Title
81330
    1CHL1    C3    1   4.619   1.214  10.426  0.2557  0.3487 -0.5966
    1CHL1    H3    2   4.613   1.104  10.410  0.7988  0.1954  0.2086
    1CHL1    O3    3   4.634   1.245  10.563  0.4971 -0.1939  0.4474
    1CHL1   H3'    4   4.546   1.241  10.602  1.3233  0.2616  2.4224
    1CHL1    C4    5   4.746   1.254  10.353 -0.3287 -0.1076 -0.5130
    1CHL1   H4A    6   4.766   1.358  10.387  2.1501 -0.9164  0.7986
    1CHL1   H4B    7   4.834   1.201  10.395 -0.3982  1.1074  1.2775
    1CHL1    C5    8   4.747   1.257  10.203 -0.0428 -0.2691 -0.0557
    1CHL1    C6    9   4.849   1.205  10.146 -0.2282  0.0713  0.8022
    1CHL1    H6   10   4.931   1.167  10.207  1.2078 -1.0628 -1.6668
    1CHL1    C7   11   4.866   1.193   9.994  0.3569 -0.4380 -0.4505
    1CHL1   H7A   12   4.957   1.244   9.956  1.2391 -1.5785  0.0597
    1CHL1   H7B   13   4.888   1.087   9.970  2.1130  0.3642 -2.7564
    1CHL1    C8   14   4.743   1.245   9.914 -0.1346  0.1123  0.0592
    1CHL1    H8   15   4.770   1.351   9.895  1.0919 -0.3422 -0.8430
    1CHL1   C14   16   4.729   1.180   9.780 -0.5421  0.4140  0.5938
    1CHL1   H14   17   4.696   1.075   9.798 -0.3832  0.3776  0.6699
    1CHL1   C15   18   4.845   1.178   9.682 -1.0223 -0.3278  0.9953
    1CHL1  H15A   19   4.900   1.274   9.688 -0.3217 -0.6485  0.0656
    1CHL1  H15B   20   4.918   1.099   9.712  0.2690  0.1208 -0.8311
    1CHL1   C16   21   4.792   1.149   9.540 -0.3065 -0.1929 -0.9205
    1CHL1  H16A   22   4.832   1.213   9.458 -1.2012 -2.0959 -2.9643
    1CHL1  H16B   23   4.822   1.043   9.524  0.4819 -0.3099  1.0324
    1CHL1   C17   24   4.639   1.158   9.554  0.1311 -0.3622  0.0906
    1CHL1   H17   25   4.600   1.056   9.575  1.1648 -1.0511 -1.2051
    1CHL1   C13   26   4.618   1.238   9.689 -0.0874 -0.7753  0.5169
    1CHL1   C18   27   4.644   1.391   9.658 -0.5983 -0.7632  0.1112
    1CHL1  H18A   28   4.562   1.435   9.597 -1.0851 -0.1243  1.1918
    1CHL1  H18B   29   4.630   1.454   9.748 -0.5989 -1.7773  0.8514
    1CHL1  H18C   30   4.744   1.405   9.611 -1.4153  0.1916 -1.4152
    1CHL1   C12   31   4.489   1.206   9.769  0.2118  0.5441  0.0663
    1CHL1  H12A   32   4.397   1.245   9.721  0.6451  0.5708 -0.7573
    1CHL1  H12B   33   4.478   1.096   9.766  0.2341  0.5409  0.1111
    1CHL1   C11   34   4.495   1.272   9.908  0.1959 -0.3141 -0.5524
    1CHL1  H11A   35   4.500   1.382   9.895 -0.7736 -0.2261 -0.2439
    1CHL1  H11B   36   4.409   1.252   9.974  1.7549 -1.4304  1.2492
    1CHL1    C9   37   4.615   1.228   9.995 -0.0319  0.5668  0.2678
    1CHL1    H9   38   4.598   1.121  10.021 -1.2249  0.0137 -2.3653
    1CHL1   C10   39   4.621   1.302  10.135  0.0185 -0.3953  0.5078
    1CHL1   C19   40   4.625   1.454  10.109 -0.7300  0.3701  0.0622
    1CHL1  H19A   41   4.538   1.497  10.056 -0.6571 -0.8485 -1.1054
    1CHL1  H19B   42   4.625   1.499  10.210 -0.3976  0.2582  0.1160
    1CHL1  H19C   43   4.726   1.488  10.076  1.0878 -2.6044  2.0701
    1CHL1    C1   44   4.490   1.261  10.210 -0.0284 -0.0673  0.0760
    1CHL1   H1A   45   4.416   1.329  10.162  0.2043  1.1525  1.3846
    1CHL1   H1B   46   4.465   1.155  10.188  1.6451 -0.2074 -1.4253
    1CHL1    C2   47   4.495   1.279  10.362  0.4624  0.2949 -0.1503
    1CHL1   H2A   48   4.407   1.234  10.412  1.1378 -0.6899  0.1899
    1CHL1   H2B   49   4.487   1.388  10.381 -0.2612  0.4114 -1.0789
    1CHL1   C20   50   4.570   1.201   9.428 -0.2792  0.3614 -0.3804
    1CHL1   H20   51   4.609   1.302   9.404  2.0344 -0.2837  0.3861
    1CHL1   C21   52   4.422   1.201   9.438 -1.1371  0.2938 -0.1891
    1CHL1  H21A   53   4.390   1.105   9.483  1.9940 -1.9783 -2.3536
    1CHL1  H21B   54   4.376   1.211   9.337  0.1906  1.6894 -0.7035
    1CHL1  H21C   55   4.384   1.286   9.497 -0.1180  0.9190 -0.3972
    1CHL1   C22   56   4.616   1.116   9.309  0.4819 -0.3431  0.1086
    1CHL1  H22A   57   4.727   1.113   9.306  0.5897  1.7646  0.0742
    1CHL1  H22B   58   4.577   1.013   9.322  1.1011 -0.4258  1.4374
    1CHL1   C23   59   4.561   1.160   9.170 -0.4154  0.1567 -0.1747
    1CHL1  H23A   60   4.604   1.106   9.083 -0.3849  2.2995 -1.5823
    1CHL1  H23B   61   4.453   1.136   9.162 -0.5096  0.7235 -0.7564
    1CHL1   C24   62   4.574   1.314   9.147 -0.3377 -0.1282 -0.7795
    1CHL1  H24A   63   4.512   1.362   9.225  0.4104 -0.8653  0.3061
    1CHL1  H24B   64   4.679   1.347   9.166  0.8111 -3.6070 -0.3372
    1CHL1   C25   65   4.524   1.355   9.005 -0.6593  0.0628 -0.2471
    1CHL1   H25   66   4.568   1.281   8.935  1.4979 -0.3050  1.3913
    1CHL1   C26   67   4.371   1.334   8.981  0.1885 -0.4871  0.8146
    1CHL1  H26A   68   4.353   1.233   8.940 -0.2553  0.9686 -3.0386
    1CHL1  H26B   69   4.314   1.350   9.075  0.4981  0.0081  0.9219
    1CHL1  H26C   70   4.328   1.400   8.902  0.5145 -0.4285  0.6845
    1CHL1   C27   71   4.573   1.497   8.965 -0.0011  0.3709 -0.1179
    1CHL1  H27A   72   4.684   1.501   8.955 -0.0072 -0.2994 -0.4838
    1CHL1  H27B   73   4.536   1.530   8.866  0.5444  1.1868 -0.0657
    1CHL1  H27C   74   4.544   1.577   9.036  2.5603 -0.3716  1.9596
    2CHL1    C3   75   5.672   5.511  10.022  0.5349  0.3300  0.1978
    2CHL1    H3   76   5.724   5.606   9.997  0.2599 -0.0850 -2.2165
    2CHL1    O3   77   5.703   5.485  10.157  0.2377 -0.9296  0.1613
    2CHL1   H3'   78   5.799   5.490  10.158  0.3638  3.3713 -3.4779
    2CHL1    C4   79   5.530   5.510   9.987 -0.4584  0.1590  0.0832
    2CHL1   H4A   80   5.494   5.414  10.029  2.2244 -1.7038 -1.5473
    2CHL1   H4B   81   5.476   5.589  10.043 -0.7914  0.3439 -0.4845
    2CHL1    C5   82   5.505   5.501   9.833 -0.4965  0.1468 -0.3505
    2CHL1    C6   83   5.428   5.589   9.770 -0.0580 -0.9217 -1.4829
    2CHL1    H6   84   5.386   5.667   9.836  2.3588 -0.2102 -0.6773
    2CHL1    C7   85   5.395   5.593   9.623  0.2590 -0.1031  0.0719
    2CHL1   H7A   86   5.293   5.626   9.592  0.8355  0.1396 -1.6753
    2CHL1   H7B   87   5.461   5.673   9.584 -0.1979  0.9529  1.4147
    2CHL1    C8   88   5.436   5.460   9.557 -0.4018 -0.6783  0.0632
    2CHL1    H8   89   5.363   5.382   9.587 -2.6449  0.8085 -1.2344
    2CHL1   C14   90   5.431   5.477   9.402  0.2489  0.4074 -0.2937
    2CHL1   H14   91   5.524   5.536   9.383  0.3793 -0.0258 -1.0079
    2CHL1   C15   92   5.317   5.553   9.341  0.5167  0.3145 -0.4796
    2CHL1  H15A   93   5.220   5.506   9.365  0.2938  0.9443 -0.1321
    2CHL1  H15B   94   5.315   5.663   9.358  3.2462  0.0320  2.9640
    2CHL1   C16   95   5.342   5.518   9.190 -0.6431  1.3296  0.6696
    2CHL1  H16A   96   5.255   5.465   9.146  0.0842  1.5755 -1.1508
    2CHL1  H16B   97   5.354   5.617   9.140 -0.6120  0.8331 -0.3190
    2CHL1   C17   98   5.462   5.417   9.187 -0.2790 -0.4168  0.3220
    2CHL1   H17   99   5.549   5.486   9.183  0.2719 -0.9674  1.9392
    2CHL1   C13  100   5.469   5.354   9.323 -0.2011  0.1261 -0.9460
    2CHL1   C18  101   5.361   5.244   9.344 -0.0058  0.1100 -0.3529
    2CHL1  H18A  102   5.363   5.198   9.445  2.8181  2.4526  0.8053
    2CHL1  H18B  103   5.257   5.281   9.334 -0.1703  0.5970  2.4723
    2CHL1  H18C  104   5.376   5.169   9.264  0.6303 -0.3877  0.2197
    2CHL1   C12  105   5.605   5.312   9.366  0.0775  0.3853 -0.0817
    2CHL1  H12A  106   5.636   5.220   9.312 -1.1909 -1.1576  1.6939
    2CHL1  H12B  107   5.681   5.393   9.360 -1.8793  2.4336  0.9398
    2CHL1   C11  108   5.624   5.288   9.519 -0.0773  1.0071  0.4706
    2CHL1  H11A  109   5.567   5.197   9.544  5.2476 -3.2300 -0.8167
    2CHL1  H11B  110   5.732   5.269   9.537  0.3335  3.5340  1.1414
    2CHL1    C9  111   5.577   5.412   9.603  0.0657 -0.0365  0.0454
    2CHL1    H9  112   5.638   5.498   9.566 -0.7533 -0.5793 -2.8289
    2CHL1   C10  113   5.588   5.388   9.759 -0.2029 -0.2980  0.3311
    2CHL1   C19  114   5.532   5.247   9.801  0.1561 -0.2346 -0.0829
    2CHL1  H19A  115   5.525   5.235   9.911 -0.2149  0.9698  0.0370
    2CHL1  H19B  116   5.435   5.219   9.754  1.0263 -2.0850 -0.8755
    2CHL1  H19C  117   5.600   5.164   9.773 -1.1095 -1.5489  0.6195
    2CHL1    C1  118   5.735   5.400   9.795 -0.0550  0.0155  0.3212
    2CHL1   H1A  119   5.797   5.327   9.737 -2.6240 -0.1747 -2.4409
    2CHL1   H1B  120   5.766   5.501   9.759  0.3160  0.2558  1.3016
    2CHL1    C2  121   5.749   5.402   9.950 -0.3269 -0.4712 -0.0280
    2CHL1   H2A  122   5.858   5.403   9.972 -0.4015 -1.5250  0.4312
    2CHL1   H2B  123   5.717   5.302   9.985  1.6638 -0.1340  3.1789
    2CHL1   C20  124   5.475   5.329   9.065  0.0768 -0.0045  0.3834
    2CHL1   H20  125   5.524   5.235   9.099 -0.0311 -0.0867  0.3082
    2CHL1   C21  126   5.574   5.386   8.962 -0.0463 -0.0006  0.1781
    2CHL1  H21A  127   5.666   5.426   9.009 -0.9755  0.2239  1.8953
    2CHL1  H21B  128   5.519   5.466   8.909  2.0314  1.0897 -0.4318
    2CHL1  H21C  129   5.605   5.314   8.883 -0.0077  1.3982 -1.1209
    2CHL1   C22  130   5.337   5.286   9.004  0.2868  0.0021 -0.4285
    2CHL1  H22A  131   5.263   5.248   9.077 -0.6599 -0.3525 -1.5278
    2CHL1  H22B  132   5.304   5.381   8.957  0.0017  1.2693  2.1643
    2CHL1   C23  133   5.344   5.174   8.895  0.5520  0.0654  0.9128
    2CHL1  H23A  134   5.378   5.221   8.800 -0.7829 -1.1558 -0.2180
    2CHL1  H23B  135   5.416   5.093   8.917 -0.7046 -1.9904 -1.8512
    2CHL1   C24  136   5.205   5.108   8.862 -0.3495 -0.5721  0.2016
    2CHL1  H24A  137   5.158   5.064   8.953  0.4251  0.7982  1.2983
    2CHL1  H24B  138   5.145   5.198   8.837 -0.8800 -1.1001 -0.4851
    2CHL1   C25  139   5.209   5.004   8.755 -0.3363 -1.0441  0.0086
    2CHL1   H25  140   5.267   5.040   8.668 -0.4493  1.2986  0.8496
    2CHL1   C26  141   5.272   4.877   8.815 -0.3658  0.5928 -0.0538
    2CHL1  H26A  142   5.286   4.810   8.727 -0.5186 -0.1327  0.4617
    2CHL1  H26B  143   5.371   4.913   8.852 -0.1953  0.2888 -0.2064
    2CHL1  H26C  144   5.224   4.822   8.898 -2.4144  0.5207 -1.2234
    2CHL1   C27  145   5.066   4.983   8.702  0.8458 -0.3947 -0.4554
    2CHL1  H27A  146   5.065   4.899   8.629 -0.3425 -0.4660 -0.3787
    2CHL1  H27B  147   4.994   4.969   8.785  0.5721  1.9450 -0.2257
    2CHL1  H27C  148   5.045   5.084   8.661  2.8587 -0.1584 -1.0094
    3CHL1    C3  149   6.059   6.422  10.422  0.5437 -0.1538  0.1754
    3CHL1    H3  150   6.008   6.519  10.405 -2.4787 -1.1701  2.5674
    3CHL1    O3  151   6.059   6.407  10.559 -0.0998 -0.0452  0.3047
    3CHL1   H3'  152   6.082   6.492  10.598 -0.9344  0.6517 -0.6552
    3CHL1    C4  153   5.994   6.306  10.347  0.2890 -0.0764 -0.1961
    3CHL1   H4A  154   6.031   6.218  10.404  0.0749  0.4313  0.7553
    3CHL1   H4B  155   5.886   6.302  10.372 -0.1580 -2.0573 -2.1739
    3CHL1    C5  156   6.022   6.296  10.199  0.6685 -0.3300 -0.6082
    3CHL1    C6  157   5.920   6.273  10.119 -0.3526 -0.1101  0.5893
    3CHL1    H6  158   5.816   6.266  10.151  0.0116  0.3488  1.9335
    3CHL1    C7  159   5.943   6.258   9.973 -0.7691 -0.1244  0.1062
    3CHL1   H7A  160   5.894   6.164   9.939 -0.1408 -0.4064 -0.0479
    3CHL1   H7B  161   5.892   6.336   9.913 -0.9957 -0.2406  0.1500
    3CHL1    C8  162   6.091   6.264   9.917  0.4129  0.5756  0.2819
    3CHL1    H8  163   6.131   6.161   9.928 -0.8984  0.0776  0.5445
    3CHL1   C14  164   6.099   6.306   9.774 -0.3911 -0.2844 -0.1612
    3CHL1   H14  165   6.066   6.412   9.763 -1.8498 -0.4038  2.4081
    3CHL1   C15  166   6.020   6.222   9.675  0.1770 -0.1751 -0.6468
    3CHL1  H15A  167   6.028   6.113   9.699 -1.5608 -0.8336 -2.7481
    3CHL1  H15B  168   5.911   6.245   9.671 -0.0865 -1.4089 -1.1040
    3CHL1   C16  169   6.081   6.257   9.532  0.1664 -0.3638  0.2898
    3CHL1  H16A  170   6.119   6.162   9.488  0.0208 -0.6833  0.8456
    3CHL1  H16B  171   6.013   6.310   9.462  1.3765 -0.2243 -0.8123
    3CHL1   C17  172   6.201   6.344   9.565 -0.5118  0.6668 -0.2985
    3CHL1   H17  173   6.156   6.445   9.569  0.0406  0.8830  1.7901
    3CHL1   C13  174   6.242   6.308   9.709 -0.3752  0.2499 -0.1737
    3CHL1   C18  175   6.319   6.171   9.710  0.2310  0.2157 -0.4212
    3CHL1  H18A  176   6.253   6.090   9.674  1.4446 -1.4878  1.0191
    3CHL1  H18B  177   6.414   6.173   9.653  0.0117  0.0148 -0.7907
    3CHL1  H18C  178   6.346   6.142   9.814 -1.3402  0.2677  0.0369
    3CHL1   C12  179   6.310   6.422   9.788  0.3387  0.1740  0.2345
    3CHL1  H12A  180   6.415   6.434   9.753  0.0141  1.0289 -0.4991
    3CHL1  H12B  181   6.259   6.516   9.756  2.0637  0.8905 -0.5811
    3CHL1   C11  182   6.310   6.391   9.935 -0.0773 -0.6239  0.2336
    3CHL1  H11A  183   6.381   6.305   9.945  0.2065 -0.4325 -0.1112
    3CHL1  H11B  184   6.339   6.483   9.990  0.5325 -0.8323  0.2700
    3CHL1    C9  185   6.169   6.366   9.996  0.4552  0.3504  0.6324
    3CHL1    H9  186   6.121   6.466   9.983  2.5598  1.4297  0.6695
    3CHL1   C10  187   6.165   6.323  10.151 -0.4040  0.9628 -0.0894
    3CHL1   C19  188   6.259   6.199  10.178  0.1187  0.2891 -0.1238
    3CHL1  H19A  189   6.229   6.128  10.097  1.7022  1.2531 -1.6109
    3CHL1  H19B  190   6.360   6.233  10.150  1.0171 -1.2744  1.0487
    3CHL1  H19C  191   6.260   6.141  10.272 -2.4173 -1.2969 -0.9521
    3CHL1    C1  192   6.218   6.445  10.236 -0.3095  0.2388  0.2755
    3CHL1   H1A  193   6.327   6.446  10.217 -0.2311 -0.1450  0.6802
    3CHL1   H1B  194   6.166   6.538  10.206  0.4697  0.0972 -1.6597
    3CHL1    C2  195   6.200   6.430  10.386 -0.2366  0.4175  0.0760
    3CHL1   H2A  196   6.253   6.521  10.422  1.2101 -0.3084 -0.1466
    3CHL1   H2B  197   6.261   6.351  10.434  0.5879  1.9180  1.6005
    3CHL1   C20  198   6.310   6.338   9.458 -0.1420  0.4259  0.1853
    3CHL1   H20  199   6.337   6.231   9.440 -0.7674  0.1600  0.7658
    3CHL1   C21  200   6.439   6.414   9.496  0.4285  0.1176 -0.4171
    3CHL1  H21A  201   6.512   6.422   9.413  1.2648 -1.3487  0.1312
    3CHL1  H21B  202   6.480   6.356   9.582  0.1626 -1.5947 -1.3950
    3CHL1  H21C  203   6.413   6.514   9.536 -1.1431  0.3575 -1.9479
    3CHL1   C22  204   6.247   6.396   9.324 -1.0541  0.3853 -0.7655
    3CHL1  H22A  205   6.158   6.337   9.292  0.2745 -2.0281 -0.2826
    3CHL1  H22B  206   6.215   6.499   9.351 -1.8296 -0.2198  0.7775
    3CHL1   C23  207   6.326   6.386   9.196 -1.1064  0.3607 -0.5673
    3CHL1  H23A  208   6.415   6.453   9.202 -0.5538  0.1290 -4.1109
    3CHL1  H23B  209   6.371   6.286   9.176 -0.9007  0.2458  0.4172
    3CHL1   C24  210   6.247   6.440   9.068  0.2379  0.5565  0.0906
    3CHL1  H24A  211   6.309   6.422   8.978 -0.8360  2.5559 -1.1123
    3CHL1  H24B  212   6.157   6.375   9.073  1.1439 -0.7019  0.8533
    3CHL1   C25  213   6.221   6.585   9.084  0.5533 -0.6901 -0.0807
    3CHL1   H25  214   6.195   6.604   9.191  0.3839 -2.1520  0.1587
    3CHL1   C26  215   6.336   6.680   9.044  0.8145  0.0665  0.4745
    3CHL1  H26A  216   6.306   6.782   9.076 -2.1789 -1.0976  1.7990
    3CHL1  H26B  217   6.428   6.655   9.100  0.8274  0.0828  0.4612
    3CHL1  H26C  218   6.363   6.697   8.937 -0.8807  2.0678  0.2898
    3CHL1   C27  219   6.109   6.641   8.998  0.3684 -0.6142 -0.0696
    3CHL1  H27A  220   6.021   6.575   9.017  0.1080  0.0219  1.0390
    3CHL1  H27B  221   6.085   6.748   9.013 -0.1104 -0.1466 -3.4885
    3CHL1  H27C  222   6.144   6.628   8.894  0.7393  0.7559 -0.1298
    4CHL1    C3  223   6.021   0.370  10.628 -0.1759 -0.5105 -0.2972
    4CHL1    H3  224   6.095   0.453  10.616  1.5011 -1.6662  1.3464
    4CHL1    O3  225   6.004   0.367  10.769 -0.0524 -0.5309  0.1179
    4CHL1   H3'  226   5.937   0.435  10.779  1.2433  1.4973 -3.2629
    4CHL1    C4  227   5.888   0.376  10.553 -0.0230 -0.0863  0.1293
    4CHL1   H4A  228   5.820   0.298  10.595 -0.3849  0.6025  0.8558
    4CHL1   H4B  229   5.845   0.474  10.583 -1.4383 -1.0899  1.5595
    4CHL1    C5  230   5.880   0.357  10.402  0.1185  0.0811 -0.0244
    4CHL1    C6  231   5.822   0.455  10.329  0.0633 -0.0801  0.3885
    4CHL1    H6  232   5.787   0.551  10.368  0.3192  0.0948  0.1873
    4CHL1    C7  233   5.797   0.424  10.182 -0.5318 -0.2738 -0.2124
    4CHL1   H7A  234   5.694   0.454  10.153  0.1601  2.3004 -0.2172
    4CHL1   H7B  235   5.863   0.477  10.110  1.1671 -1.1677  0.6161
    4CHL1    C8  236   5.816   0.274  10.142  0.2900 -0.4387  0.0265
    4CHL1    H8  237   5.726   0.225  10.185 -0.3632  1.2560  0.7097
    4CHL1   C14  238   5.812   0.238  10.002  0.9861 -0.3491  1.0453
    4CHL1   H14  239   5.889   0.291   9.942  1.6548 -2.1500  0.2411
    4CHL1   C15  240   5.676   0.276   9.933 -1.1121  0.1059  0.2566
    4CHL1  H15A  241   5.592   0.246  10.000 -2.0542 -0.5370 -1.1577
    4CHL1  H15B  242   5.674   0.385   9.911  1.2834  0.1103 -0.1571
    4CHL1   C16  243   5.685   0.198   9.800 -0.4459  0.7038  0.0860
    4CHL1  H16A  244   5.592   0.139   9.786 -2.1285  3.0559  0.7303
    4CHL1  H16B  245   5.698   0.264   9.712  1.9861  2.1848  1.4275
    4CHL1   C17  246   5.806   0.101   9.803 -0.5196 -0.1979 -0.8500
    4CHL1   H17  247   5.893   0.147   9.752 -1.4202  3.2511  0.4379
    4CHL1   C13  248   5.843   0.096   9.954  0.3693  0.9867  0.8284
    4CHL1   C18  249   5.748  -0.003  10.021  0.3664 -0.2367 -0.5002
    4CHL1  H18A  250   5.788  -0.105  10.006  3.1430  0.5605  0.8788
    4CHL1  H18B  251   5.751  -0.002  10.132  2.0060 -0.6542 -0.5215
    4CHL1  H18C  252   5.639   0.007   9.998  0.3134 -0.9091 -0.5744
    4CHL1   C12  253   5.991   0.066   9.994  0.1036  0.5266  0.0545
    4CHL1  H12A  254   6.022  -0.037   9.967  0.2525  0.7171 -0.5167
    4CHL1  H12B  255   6.054   0.139   9.939 -0.6663  1.9494  1.0091
    4CHL1   C11  256   6.007   0.087  10.138  0.3367  0.3189 -0.5188
    4CHL1  H11A  257   5.954   0.008  10.195 -1.9646  1.1313 -1.4145
    4CHL1  H11B  258   6.112   0.075  10.172 -0.1279 -0.9393  0.5452
    4CHL1    C9  259   5.952   0.223  10.197  0.6268 -0.6856  0.2811
    4CHL1    H9  260   6.025   0.295  10.154 -1.6165  1.2842 -0.4509
    4CHL1   C10  261   5.952   0.231  10.355 -0.0801  0.5630 -0.2895
    4CHL1   C19  262   5.862   0.117  10.417 -0.3050  0.5774  0.1650
    4CHL1  H19A  263   5.763   0.100  10.368 -1.0065  0.7295  1.4656
    4CHL1  H19B  264   5.920   0.023  10.407 -0.4127  0.7407 -2.7428
    4CHL1  H19C  265   5.855   0.113  10.528 -0.9933 -0.3238  0.1017
    4CHL1    C1  266   6.090   0.239  10.422  0.7898  0.5519 -0.2099
    4CHL1   H1A  267   6.143   0.147  10.389  3.1360  1.2223  1.4611
    4CHL1   H1B  268   6.129   0.330  10.372  0.7225  0.9746  0.5040
    4CHL1    C2  269   6.090   0.244  10.581 -0.2774 -0.3251  0.0105
    4CHL1   H2A  270   6.192   0.248  10.625  1.0848 -0.8580 -2.8435
    4CHL1   H2B  271   6.037   0.157  10.626 -2.3418 -0.2159 -2.0559
    4CHL1   C20  272   5.786  -0.025   9.718 -0.3788  0.1849 -1.3287
    4CHL1   H20  273   5.707  -0.087   9.765  0.0179  0.8233  0.2395
    4CHL1   C21  274   5.918  -0.118   9.713  0.3061 -0.5287  0.1298
    4CHL1  H21A  275   5.904  -0.206   9.646  1.7233 -0.9538  0.3585
    4CHL1  H21B  276   5.948  -0.141   9.817  0.6145  1.1764  0.4538
    4CHL1  H21C  277   6.002  -0.058   9.672  0.4402 -1.5799 -1.2174
    4CHL1   C22  278   5.744   0.007   9.572 -0.6187 -0.1914 -0.5128
    4CHL1  H22A  279   5.744  -0.095   9.530  1.3528 -0.6645  0.5214
    4CHL1  H22B  280   5.639   0.045   9.569 -1.2970 -2.0333 -1.5454
    4CHL1   C23  281   5.844   0.097   9.497  0.1093  0.2371  0.1152
    4CHL1  H23A  282   5.873   0.187   9.556 -0.8703  0.8210 -0.2707
    4CHL1  H23B  283   5.935   0.041   9.467 -0.1284  0.0510 -0.2673
    4CHL1   C24  284   5.776   0.167   9.381  1.1014  0.3962 -0.1723
    4CHL1  H24A  285   5.685   0.212   9.425  1.4219  2.8268 -1.7937
    4CHL1  H24B  286   5.843   0.243   9.335  0.6859 -0.1982 -1.8218
    4CHL1   C25  287   5.715   0.084   9.267 -0.4924  0.5638 -0.5499
    4CHL1   H25  288   5.635   0.021   9.312  0.9475 -0.2198  1.0499
    4CHL1   C26  289   5.653   0.177   9.163  0.2391  0.1780  0.0917
    4CHL1  H26A  290   5.595   0.121   9.087  1.1850  1.5291 -1.7174
    4CHL1  H26B  291   5.580   0.242   9.217  1.6988  1.9259  0.0423
    4CHL1  H26C  292   5.731   0.241   9.116 -0.7574  1.3661 -0.0197
    4CHL1   C27  293   5.816  -0.008   9.200 -0.0749  0.1056 -0.5399
    4CHL1  H27A  294   5.911   0.040   9.169  0.6954 -0.1409  1.2780
    4CHL1  H27B  295   5.841  -0.084   9.278  1.9416  0.9867 -0.2546
    4CHL1  H27C  296   5.771  -0.061   9.113  2.7073 -1.3543 -1.2079
    5CHL1    C3  297   0.298   4.568  10.179 -0.6497 -0.0781  0.0402
    5CHL1    H3  298   0.255   4.469  10.208 -0.7345  0.8924  3.6952
    5CHL1    O3  299   0.361   4.597  10.299 -0.1203 -0.0678  0.2559
    5CHL1   H3'  300   0.295   4.581  10.367 -2.1698  1.7968 -1.1992
    5CHL1    C4  301   0.414   4.560  10.068  0.4052  0.9861  0.1992
    5CHL1   H4A  302   0.476   4.652  10.077  1.1421  0.5736 -0.5052
    5CHL1   H4B  303   0.478   4.472  10.087 -1.6857 -1.3966 -2.7749
    5CHL1    C5  304   0.356   4.556   9.926 -0.0776 -0.2308 -0.3265
    5CHL1    C6  305   0.395   4.470   9.830  0.0490 -0.2488  0.2700
    5CHL1    H6  306   0.468   4.396   9.866  0.7048  1.5143  2.8600
    5CHL1    C7  307   0.358   4.473   9.687 -0.1313  0.0938 -0.1718
    5CHL1   H7A  308   0.443   4.455   9.616 -1.9343 -2.2396 -1.9157
    5CHL1   H7B  309   0.295   4.382   9.677  0.9937 -0.9345  1.4449
    5CHL1    C8  310   0.288   4.600   9.641  0.6164 -0.0973 -0.3454
    5CHL1    H8  311   0.362   4.683   9.635 -0.4368  0.9497  0.5554
    5CHL1   C14  312   0.219   4.589   9.502 -0.2999  0.4798 -1.0346
    5CHL1   H14  313   0.145   4.507   9.519 -0.7016  1.6365  5.8857
    5CHL1   C15  314   0.313   4.538   9.391  0.4175  0.3000  0.2771
    5CHL1  H15A  315   0.400   4.606   9.389 -0.6014  1.6399 -0.0943
    5CHL1  H15B  316   0.354   4.435   9.390  1.2303  0.6153  0.7013
    5CHL1   C16  317   0.232   4.571   9.264 -0.5839 -0.2702  0.1721
    5CHL1  H16A  318   0.293   4.627   9.189  0.0278  0.5985  1.2908
    5CHL1  H16B  319   0.184   4.490   9.206 -0.8810  0.3876 -0.5271
    5CHL1   C17  320   0.108   4.659   9.312  0.4951  0.1299  0.1832
    5CHL1   H17  321   0.025   4.588   9.330  2.7019 -2.0445  2.4863
    5CHL1   C13  322   0.147   4.710   9.443  0.0389  0.6139  0.0621
    5CHL1   C18  323   0.241   4.831   9.438 -0.2377 -0.9123  0.5190
    5CHL1  H18A  324   0.189   4.924   9.406 -2.0681 -2.5781 -1.6945
    5CHL1  H18B  325   0.272   4.848   9.543  0.1275 -2.8491  0.7636
    5CHL1  H18C  326   0.334   4.816   9.379 -1.8658 -1.6910 -2.0443
    5CHL1   C12  327   0.025   4.729   9.538 -0.2263 -0.3824 -0.5036
    5CHL1  H12A  328  -0.030   4.822   9.513 -0.8761  0.5312  3.6794
    5CHL1  H12B  329  -0.037   4.637   9.535  0.8660 -1.1322 -1.5622
    5CHL1   C11  330   0.078   4.744   9.685  0.7423 -0.8127  0.5678
    5CHL1  H11A  331   0.134   4.839   9.678 -2.4644  1.3265  1.6459
    5CHL1  H11B  332  -0.007   4.756   9.756  1.7765 -0.3158  1.7407
    5CHL1    C9  333   0.176   4.635   9.743  0.0208  0.6685 -0.0782
    5CHL1    H9  334   0.119   4.539   9.748  2.4425 -0.8522  0.1413
    5CHL1   C10  335   0.251   4.668   9.880  0.4461  0.0143 -0.2785
    5CHL1   C19  336   0.315   4.811   9.876  0.5866 -0.4412 -0.6998
    5CHL1  H19A  337   0.385   4.828   9.791 -0.5564  0.1247 -1.5561
    5CHL1  H19B  338   0.240   4.893   9.872  1.2424  0.1758 -0.5796
    5CHL1  H19C  339   0.362   4.826   9.976 -0.4822  2.6020 -0.5502
    5CHL1    C1  340   0.148   4.651   9.994 -0.7123 -0.2044  0.5092
    5CHL1   H1A  341   0.065   4.722   9.975 -3.2297 -1.8600  4.0527
    5CHL1   H1B  342   0.105   4.550   9.978  1.7662 -1.3362  0.5531
    5CHL1    C2  343   0.187   4.668  10.144  0.0848  0.3368  0.2238
    5CHL1   H2A  344   0.099   4.649  10.209  0.8689  0.4165  1.3378
    5CHL1   H2B  345   0.229   4.770  10.157  3.4506 -1.0019  0.9146
    5CHL1   C20  346   0.055   4.754   9.203 -0.1997  0.0996  0.3191
    5CHL1   H20  347   0.132   4.834   9.199 -0.3960  0.2809  0.0858
    5CHL1   C21  348  -0.076   4.820   9.239 -0.0886  0.6886 -0.0372
    5CHL1  H21A  349  -0.151   4.758   9.292 -0.1645  0.8358  0.0276
    5CHL1  H21B  350  -0.127   4.880   9.161 -0.7953 -1.1387 -1.0433
    5CHL1  H21C  351  -0.043   4.889   9.319  0.7923  1.1828 -0.7980
    5CHL1   C22  352   0.036   4.691   9.054 -0.5500 -0.2575 -0.3549
    5CHL1  H22A  353   0.129   4.644   9.014 -0.6659 -0.4554 -0.3947
    5CHL1  H22B  354  -0.043   4.614   9.045 -1.1964  0.4709 -1.1123
    5CHL1   C23  355   0.014   4.792   8.943  0.1688 -0.1984 -0.1120
    5CHL1  H23A  356  -0.083   4.845   8.956  0.4137  0.1707  0.2462
    5CHL1  H23B  357   0.091   4.871   8.934 -0.4128  0.5576  1.2537
    5CHL1   C24  358  -0.003   4.738   8.797  0.3956  0.7825 -0.9112
    5CHL1  H24A  359   0.095   4.692   8.775 -0.0302 -2.2185  2.5976
    5CHL1  H24B  360  -0.066   4.647   8.794  0.6546  0.5727 -0.2321
    5CHL1   C25  361  -0.034   4.840   8.698  0.2713 -0.0288  0.3916
    5CHL1   H25  362  -0.035   4.795   8.597  3.4952  0.2418  0.1255
    5CHL1   C26  363  -0.172   4.905   8.718  0.3775  0.5410  0.0340
    5CHL1  H26A  364  -0.169   4.966   8.810  1.0079  0.8302 -0.1735
    5CHL1  H26B  365  -0.202   4.970   8.633 -2.0447  0.5423  0.8067
    5CHL1  H26C  366  -0.254   4.833   8.740  1.0697 -0.1838  0.2649
    5CHL1   C27  367   0.081   4.945   8.688  0.1618 -0.6031  0.4795
    5CHL1  H27A  368   0.086   4.996   8.589  1.0425  1.0705  1.3469
    5CHL1  H27B  369   0.055   5.008   8.776 -2.9836 -0.0955 -0.6557
    5CHL1  H27C  370   0.176   4.891   8.704 -0.1975 -1.9748 -1.6097
    6CHL1    C3  371   4.724   2.750  10.429 -0.9223  0.1021 -0.9919
    6CHL1    H3  372   4.679   2.848  10.457  0.8483  0.6616  0.0420
    6CHL1    O3  373   4.726   2.680  10.554 -0.1468 -0.7629  0.5090
    6CHL1   H3'  374   4.815   2.656  10.578  0.2147 -0.8162 -0.8429
    6CHL1    C4  375   4.642   2.666  10.335 -0.5951  0.0326  0.4638
    6CHL1   H4A  376   4.672   2.559  10.326 -2.7510 -0.4623 -1.7736
    6CHL1   H4B  377   4.540   2.654  10.377 -0.1234  0.0062  1.6745
    6CHL1    C5  378   4.648   2.720  10.198  0.0419 -0.4922  0.5884
    6CHL1    C6  379   4.533   2.744  10.136 -0.1626 -0.4594  0.0341
    6CHL1    H6  380   4.441   2.716  10.189  0.5007 -0.5900  1.1449
    6CHL1    C7  381   4.518   2.803   9.995  1.0938  0.4392 -0.2440
    6CHL1   H7A  382   4.439   2.750   9.936  0.5674 -3.2787  3.3319
    6CHL1   H7B  383   4.487   2.909  10.008  1.5579  0.4497  0.8229
    6CHL1    C8  384   4.650   2.792   9.917  0.0864  1.0319 -0.1005
    6CHL1    H8  385   4.660   2.685   9.890 -1.2462  0.7915  0.2839
    6CHL1   C14  386   4.641   2.892   9.804  0.1850 -0.1841  0.3455
    6CHL1   H14  387   4.641   2.994   9.849 -1.6785 -0.0353  0.0779
    6CHL1   C15  388   4.525   2.888   9.707  0.4303 -0.2369  0.4298
    6CHL1  H15A  389   4.499   2.781   9.690 -1.6198  0.1697  0.7356
    6CHL1  H15B  390   4.434   2.934   9.750  1.7585 -0.4281  3.7027
    6CHL1   C16  391   4.577   2.970   9.578  0.3112 -0.3089 -0.5552
    6CHL1  H16A  392   4.549   2.906   9.491 -0.1785  1.9212 -2.1288
    6CHL1  H16B  393   4.520   3.065   9.572  1.5812  0.4157 -5.8653
    6CHL1   C17  394   4.725   2.985   9.592  0.2899 -0.2594 -0.7506
    6CHL1   H17  395   4.744   3.088   9.629  0.4639 -1.2040  1.9885
    6CHL1   C13  396   4.762   2.891   9.707 -0.3709 -0.1260  0.3038
    6CHL1   C18  397   4.769   2.745   9.644 -0.0603  0.2686 -0.1315
    6CHL1  H18A  398   4.673   2.705   9.603 -1.1420  1.6643  0.9233
    6CHL1  H18B  399   4.852   2.737   9.571  1.7903  3.3635  1.4287
    6CHL1  H18C  400   4.795   2.679   9.729  1.1787 -1.7931 -2.0267
    6CHL1   C12  401   4.886   2.925   9.794  0.1052 -0.7150 -0.5039
    6CHL1  H12A  402   4.982   2.932   9.737 -0.8804  2.5256 -2.0166
    6CHL1  H12B  403   4.870   3.030   9.824 -0.4779 -0.9761  0.1101
    6CHL1   C11  404   4.900   2.841   9.919  0.1170 -0.0804  0.4586
    6CHL1  H11A  405   4.930   2.736   9.897 -2.8849 -1.0213  0.3759
    6CHL1  H11B  406   4.973   2.884   9.992 -0.1311 -0.0621  0.7001
    6CHL1    C9  407   4.767   2.834  10.007 -0.0768 -0.3570  0.9681
    6CHL1    H9  408   4.738   2.936  10.043 -0.3871 -1.1294  3.0398
    6CHL1   C10  409   4.784   2.757  10.139  0.2530  0.4633 -0.6456
    6CHL1   C19  410   4.854   2.615  10.103  0.2353  0.4518 -0.3011
    6CHL1  H19A  411   4.961   2.636  10.082  0.9375 -0.7695  1.7489
    6CHL1  H19B  412   4.845   2.545  10.189  0.4373  0.2533 -0.4413
    6CHL1  H19C  413   4.800   2.560  10.023 -1.9208 -1.5256  2.3131
    6CHL1    C1  414   4.869   2.836  10.243 -0.0064  0.1481  0.0704
    6CHL1   H1A  415   4.974   2.852  10.211  1.1963 -0.7943  3.1280
    6CHL1   H1B  416   4.822   2.937  10.251  1.9563  1.3258 -1.9865
    6CHL1    C2  417   4.870   2.764  10.380  0.0968  0.6355  0.2985
    6CHL1   H2A  418   4.937   2.822  10.447  1.7360 -0.4172 -0.3536
    6CHL1   H2B  419   4.909   2.661  10.370 -0.1974  0.5310  0.2290
    6CHL1   C20  420   4.789   2.966   9.447  0.2245 -0.2920 -1.0435
    6CHL1   H20  421   4.762   2.867   9.405 -1.7355 -0.6737  0.9331
    6CHL1   C21  422   4.946   2.971   9.448  0.5531 -0.0458 -0.8169
    6CHL1  H21A  423   4.984   2.967   9.343 -0.8531 -2.3818 -1.2992
    6CHL1  H21B  424   4.982   2.877   9.493 -2.1260 -1.4250 -1.3617
    6CHL1  H21C  425   4.978   3.061   9.504  0.8196 -1.7847  1.9871
    6CHL1   C22  426   4.737   3.073   9.356  0.0020  0.6143  0.2630
    6CHL1  H22A  427   4.636   3.105   9.390 -0.6335 -1.5830  0.6167
    6CHL1  H22B  428   4.806   3.159   9.366  0.2957  0.6032 -1.4294
    6CHL1   C23  429   4.744   3.029   9.204 -0.7463 -0.4780  0.2151
    6CHL1  H23A  430   4.848   2.995   9.185 -0.6316 -0.8332  1.4074
    6CHL1  H23B  431   4.679   2.942   9.184 -4.1064  1.6652  0.9805
    6CHL1   C24  432   4.722   3.149   9.103 -0.2253  0.0067 -0.8635
    6CHL1  H24A  433   4.629   3.203   9.132 -2.0439 -4.8794  4.2908
    6CHL1  H24B  434   4.808   3.219   9.097 -0.3545  0.3908  0.9870
    6CHL1   C25  435   4.695   3.091   8.963 -0.1322  0.4026 -0.0198
    6CHL1   H25  436   4.774   3.023   8.925 -0.6682  0.4728 -1.3203
    6CHL1   C26  437   4.561   3.015   8.962  0.1090  0.4302  0.4117
    6CHL1  H26A  438   4.488   3.097   8.982 -1.0951 -0.3381 -0.7057
    6CHL1  H26B  439   4.541   2.982   8.858 -0.0553  4.3074 -0.9551
    6CHL1  H26C  440   4.565   2.926   9.028  2.4373 -1.1821 -1.7051
    6CHL1   C27  441   4.687   3.214   8.875 -0.4136 -0.3046  1.1484
    6CHL1  H27A  442   4.791   3.254   8.873  0.4374 -2.3609  1.5439
    6CHL1  H27B  443   4.666   3.186   8.769 -2.4312  3.6468  0.3363
    6CHL1  H27C  444   4.617   3.295   8.900 -1.6099 -0.4459 -1.4168
    7CHL1    C3  445   0.175   0.427  10.367  0.5174  0.8421 -0.5754
    7CHL1    H3  446   0.247   0.364  10.310 -1.2638 -1.0086 -0.9017
    7CHL1    O3  447   0.208   0.403  10.504 -0.1460  0.2902  0.1017
    7CHL1   H3'  448   0.119   0.395  10.541  0.2536 -1.3536  0.8162
    7CHL1    C4  449   0.190   0.574  10.326 -0.4920  0.2450  0.0083
    7CHL1   H4A  450   0.122   0.631  10.393 -3.5015 -2.5050 -0.4724
    7CHL1   H4B  451   0.294   0.602  10.357 -0.5719  0.0335  0.4795
    7CHL1    C5  452   0.155   0.607  10.186  0.1267 -0.2234 -0.3940
    7CHL1    C6  453   0.245   0.672  10.110 -1.2563 -0.8360 -0.1116
    7CHL1    H6  454   0.329   0.714  10.167 -3.2473  0.7917  1.7730
    7CHL1    C7  455   0.213   0.721   9.973  0.1255 -0.3018  0.6481
    7CHL1   H7A  456   0.236   0.830   9.969 -0.4126 -0.1992  0.2111
    7CHL1   H7B  457   0.273   0.664   9.899 -1.1729  1.0950 -1.5970
    7CHL1    C8  458   0.063   0.696   9.937 -0.3687  0.2417 -0.0469
    7CHL1    H8  459   0.000   0.773   9.987  0.3880  0.9998 -0.2306
    7CHL1   C14  460   0.057   0.696   9.791 -0.1465  0.3383  0.6252
    7CHL1   H14  461   0.119   0.612   9.752  1.1978  1.6975 -0.3070
    7CHL1   C15  462   0.122   0.813   9.721 -0.8942 -0.1301 -0.0617
    7CHL1  H15A  463   0.090   0.912   9.759 -0.6240  1.5431 -3.7288
    7CHL1  H15B  464   0.232   0.802   9.713 -0.9017 -0.2758  0.0362
    7CHL1   C16  465   0.061   0.805   9.579  0.1378 -0.4230 -0.0220
    7CHL1  H16A  466   0.023   0.906   9.551 -0.6866 -0.3768  1.2165
    7CHL1  H16B  467   0.138   0.783   9.502 -1.5080 -3.4359 -0.9791
    7CHL1   C17  468  -0.058   0.712   9.581 -0.3776 -0.5188  0.4284
    7CHL1   H17  469  -0.015   0.615   9.548 -0.4803 -1.2408  2.2977
    7CHL1   C13  470  -0.081   0.681   9.730  0.0836 -0.1438 -0.7578
    7CHL1   C18  471  -0.193   0.789   9.771 -0.3575  0.4770 -0.0524
    7CHL1  H18A  472  -0.163   0.889   9.733 -0.2787 -0.4305 -2.5597
    7CHL1  H18B  473  -0.293   0.770   9.726  0.5296 -1.7389 -1.2462
    7CHL1  H18C  474  -0.199   0.788   9.882 -2.0935  2.1477 -0.0814
    7CHL1   C12  475  -0.131   0.536   9.772  0.0349 -0.5350 -0.4478
    7CHL1  H12A  476  -0.227   0.518   9.719 -1.2525  0.2849  1.5155
    7CHL1  H12B  477  -0.058   0.467   9.724  1.1370  0.0907  0.2774
    7CHL1   C11  478  -0.134   0.517   9.925 -0.2955 -0.6332 -0.4025
    7CHL1  H11A  479  -0.216   0.576   9.972  1.3328  0.4905  1.1583
    7CHL1  H11B  480  -0.169   0.416   9.956  1.1502 -1.1786 -0.4769
    7CHL1    C9  481   0.001   0.561   9.985 -0.5477 -0.6977 -0.2272
    7CHL1    H9  482   0.072   0.489   9.938  0.1533  0.3844 -0.8807
    7CHL1   C10  483   0.021   0.548  10.139 -0.7023  0.2465 -0.0970
    7CHL1   C19  484  -0.092   0.632  10.209  0.2057  0.8502 -0.1485
    7CHL1  H19A  485  -0.199   0.608  10.189 -0.0388 -0.6667  2.4724
    7CHL1  H19B  486  -0.092   0.614  10.319 -2.3848  2.8865  0.2850
    7CHL1  H19C  487  -0.077   0.739  10.182 -0.8319  1.0363 -0.0509
    7CHL1    C1  488   0.010   0.399  10.179 -0.2591 -0.2759  0.4864
    7CHL1   H1A  489  -0.094   0.363  10.160 -0.1072 -0.4774  0.0176
    7CHL1   H1B  490   0.072   0.331  10.117 -2.0294 -1.3771 -0.1614
    7CHL1    C2  491   0.035   0.376  10.331 -1.1235  0.1897 -0.2412
    7CHL1   H2A  492   0.027   0.267  10.350 -0.5762  0.3438  0.9478
    7CHL1   H2B  493  -0.039   0.424  10.398 -0.2687  0.6387  0.4005
    7CHL1   C20  494  -0.172   0.748   9.484 -0.2487  0.3319 -0.0022
    7CHL1   H20  495  -0.223   0.842   9.512  0.4365  1.0463 -1.0928
    7CHL1   C21  496  -0.281   0.632   9.476 -0.3785 -1.0433 -0.3182
    7CHL1  H21A  497  -0.339   0.628   9.571  0.1649 -0.3225  0.0510
    7CHL1  H21B  498  -0.235   0.532   9.462 -0.7256 -1.5781  1.9908
    7CHL1  H21C  499  -0.360   0.637   9.398 -0.0723  1.6018 -0.5379
    7CHL1   C22  500  -0.115   0.773   9.337 -0.3597 -0.2064 -0.5976
    7CHL1  H22A  501  -0.043   0.858   9.330 -0.3285 -0.0529  1.0710
    7CHL1  H22B  502  -0.074   0.675   9.305 -0.5292 -0.7728  0.8317
    7CHL1   C23  503  -0.223   0.808   9.232  0.3407 -0.0801  0.5502
    7CHL1  H23A  504  -0.306   0.735   9.219 -0.2647  0.4772  1.1810
    7CHL1  H23B  505  -0.274   0.895   9.279  0.8837 -0.3188  1.5958
    7CHL1   C24  506  -0.158   0.825   9.094  0.7419  0.4767  1.0209
    7CHL1  H24A  507  -0.065   0.883   9.113  0.2155  1.5211  0.4695
    7CHL1  H24B  508  -0.128   0.725   9.058 -1.2728 -0.5810  2.0861
    7CHL1   C25  509  -0.243   0.879   8.975  0.4134 -0.0936 -0.3086
    7CHL1   H25  510  -0.332   0.812   8.968 -0.7419  0.9886  2.4556
    7CHL1   C26  511  -0.285   1.026   8.990  0.3451  0.2913 -0.0846
    7CHL1  H26A  512  -0.368   1.034   9.064 -1.0133 -2.6776 -1.1518
    7CHL1  H26B  513  -0.194   1.090   8.994  0.7507 -0.1834 -1.1973
    7CHL1  H26C  514  -0.339   1.058   8.898  1.8258 -1.0742 -1.4758
    7CHL1   C27  515  -0.182   0.862   8.833  0.1866  0.0812  0.3534
    7CHL1  H27A  516  -0.094   0.928   8.816  0.6099 -0.2644  1.1475
    7CHL1  H27B  517  -0.157   0.756   8.810  2.2141  0.7157 -0.5863
    7CHL1  H27C  518  -0.257   0.901   8.761  1.7727 -0.3584 -1.6504
    8CHL1    C3  519   0.190   1.531  10.428 -0.2296  0.5816  0.4431
    8CHL1    H3  520   0.283   1.475  10.405 -0.2979  1.1203 -1.2905
    8CHL1    O3  521   0.168   1.497  10.564 -0.3110  0.3171 -0.0656
    8CHL1   H3'  522   0.114   1.419  10.578  1.4891 -0.6884  1.8160
    8CHL1    C4  523   0.217   1.675  10.407  0.5304 -0.1631 -0.1893
    8CHL1   H4A  524   0.139   1.749  10.435  0.8784 -0.4820  1.8006
    8CHL1   H4B  525   0.309   1.689  10.468  1.5097 -1.3241 -1.3465
    8CHL1    C5  526   0.259   1.693  10.263  0.0588 -0.9537  0.1152
    8CHL1    C6  527   0.387   1.733  10.228 -0.1893  0.5241 -0.3944
    8CHL1    H6  528   0.471   1.759  10.294 -0.6715  0.1447  0.3896
    8CHL1    C7  529   0.426   1.763  10.086 -0.4968 -0.6889  0.3348
    8CHL1   H7A  530   0.485   1.857  10.088 -0.7739 -0.5193  0.5792
    8CHL1   H7B  531   0.504   1.687  10.062 -0.7082 -0.9713  0.5320
    8CHL1    C8  532   0.309   1.755   9.985 -0.3883 -1.1262 -0.1883
    8CHL1    H8  533   0.260   1.854   9.986 -1.2844 -1.5495  1.7493
    8CHL1   C14  534   0.366   1.735   9.842 -0.2671  0.2178  0.0333
    8CHL1   H14  535   0.427   1.643   9.850  0.6135  0.8089  0.2222
    8CHL1   C15  536   0.471   1.835   9.794  0.3965  0.4370  0.1981
    8CHL1  H15A  537   0.411   1.927   9.809 -2.2976 -1.4878  2.2867
    8CHL1  H15B  538   0.570   1.828   9.843  0.0868 -4.0321  0.6571
    8CHL1   C16  539   0.471   1.804   9.634  0.1224 -0.4840 -0.9718
    8CHL1  H16A  540   0.460   1.897   9.574 -1.9587  0.0028  0.0700
    8CHL1  H16B  541   0.566   1.752   9.608  0.8654 -0.8437  2.0971
    8CHL1   C17  542   0.355   1.714   9.604  0.8204 -0.4175  0.2370
    8CHL1   H17  543   0.385   1.607   9.607 -1.2558 -1.0302  1.5577
    8CHL1   C13  544   0.260   1.720   9.727 -0.5402  0.6359  0.5445
    8CHL1   C18  545   0.168   1.846   9.715 -0.2421  0.9928  0.0839
    8CHL1  H18A  546   0.075   1.827   9.658 -0.8179  3.1677  0.2080
    8CHL1  H18B  547   0.131   1.875   9.816 -0.3957 -0.4799  0.4724
    8CHL1  H18C  548   0.222   1.937   9.680  0.6248  0.3875 -0.1727
    8CHL1   C12  549   0.180   1.593   9.764 -0.2244 -0.5356  0.5260
    8CHL1  H12A  550   0.095   1.584   9.693 -0.2324  0.0021  0.4642
    8CHL1  H12B  551   0.237   1.499   9.757  1.5668  0.6062 -0.9930
    8CHL1   C11  552   0.117   1.611   9.901  0.2731  0.3845  0.7557
    8CHL1  H11A  553   0.037   1.688   9.893  1.0267  1.0861 -0.4574
    8CHL1  H11B  554   0.066   1.514   9.918  0.4068 -0.0915 -1.2433
    8CHL1    C9  555   0.216   1.643  10.015 -0.3353  0.0810  0.5106
    8CHL1    H9  556   0.280   1.552  10.010  0.1223  0.4575 -1.0415
    8CHL1   C10  557   0.157   1.643  10.152  0.1486  0.4858 -0.3225
    8CHL1   C19  558   0.040   1.746  10.156  0.1044  0.3907  0.8771
    8CHL1  H19A  559   0.070   1.843  10.109  1.1661 -0.0894  0.5276
    8CHL1  H19B  560  -0.047   1.707  10.100  0.5244 -0.1115  0.5594
    8CHL1  H19C  561   0.004   1.767  10.259  1.2879  1.4906  1.1070
    8CHL1    C1  562   0.116   1.500  10.188 -0.0589  0.2418 -0.5015
    8CHL1   H1A  563   0.028   1.457  10.135  0.2179 -2.4708  1.0635
    8CHL1   H1B  564   0.200   1.428  10.176 -1.6897 -2.0720  0.9779
    8CHL1    C2  565   0.078   1.477  10.336  0.4714  0.1598  0.0003
    8CHL1   H2A  566   0.057   1.370  10.355 -2.5538  0.3488 -1.6368
    8CHL1   H2B  567  -0.020   1.525  10.358 -0.3465 -1.5192  0.1898
    8CHL1   C20  568   0.302   1.743   9.462  0.0899  0.4636  0.7504
    8CHL1   H20  569   0.269   1.849   9.466 -1.5836 -0.0055 -0.1688
    8CHL1   C21  570   0.175   1.657   9.438 -0.3402  0.3445 -0.0416
    8CHL1  H21A  571   0.136   1.685   9.338 -1.4806  2.1536  0.8416
    8CHL1  H21B  572   0.092   1.671   9.512 -2.0160 -3.7267 -0.9135
    8CHL1  H21C  573   0.183   1.547   9.430  1.6361  0.6120 -2.9446
    8CHL1   C22  574   0.404   1.727   9.352  0.1923  1.2423 -0.4860
    8CHL1  H22A  575   0.355   1.755   9.256  0.2020  1.1925 -0.5050
    8CHL1  H22B  576   0.490   1.797   9.351  0.3834  1.0091 -0.3738
    8CHL1   C23  577   0.465   1.578   9.344 -0.0146 -1.4471 -0.7419
    8CHL1  H23A  578   0.526   1.561   9.435 -0.8225  2.3026  0.6876
    8CHL1  H23B  579   0.379   1.507   9.347 -1.1945 -0.1557 -2.1581
    8CHL1   C24  580   0.546   1.556   9.218 -0.1300 -0.4473  0.6567
    8CHL1  H24A  581   0.493   1.570   9.121  0.7342 -1.3347  0.0439
    8CHL1  H24B  582   0.635   1.621   9.212  0.0192 -0.6418  0.7249
    8CHL1   C25  583   0.584   1.407   9.206  0.1804 -0.2920  0.1863
    8CHL1   H25  584   0.627   1.374   9.302  1.3108  2.9306  0.9077
    8CHL1   C26  585   0.463   1.324   9.166 -0.4044 -0.5406 -0.3744
    8CHL1  H26A  586   0.387   1.314   9.247 -0.6061 -0.9365 -0.6100
    8CHL1  H26B  587   0.416   1.364   9.074 -0.7985  1.2933  0.5593
    8CHL1  H26C  588   0.502   1.222   9.145 -0.8469 -0.6517 -0.6663
    8CHL1   C27  589   0.688   1.383   9.093  0.1406  0.2266 -0.2626
    8CHL1  H27A  590   0.775   1.448   9.118  0.0934  0.3153 -0.3285
    8CHL1  H27B  591   0.701   1.274   9.077  2.1016  0.2069  1.0567
    8CHL1  H27C  592   0.645   1.426   9.000  1.0462 -1.6970 -1.6336
    9CHL1    C3  593   2.226   2.351  10.356  0.5133 -0.1618 -0.2045
    9CHL1    H3  594   2.336   2.363  10.370  0.6019  1.5036 -1.9091
    9CHL1    O3  595   2.162   2.338  10.481 -0.1789 -0.7859  0.1234
    9CHL1   H3'  596   2.067   2.334  10.465 -0.4588  0.5478  1.3341
    9CHL1    C4  597   2.174   2.481  10.289 -0.0059 -0.3862 -0.1757
    9CHL1   H4A  598   2.063   2.476  10.297 -0.1946 -0.1399 -2.1539
    9CHL1   H4B  599   2.201   2.570  10.349 -0.4866 -1.2177  1.3243
    9CHL1    C5  600   2.222   2.498  10.141  0.0460 -0.5323 -0.3685
    9CHL1    C6  601   2.287   2.605  10.103 -0.1840 -0.7211  0.0124
    9CHL1    H6  602   2.291   2.687  10.177 -0.4161 -0.4574 -0.2655
    9CHL1    C7  603   2.343   2.638   9.968 -0.2410  0.0523  0.3793
    9CHL1   H7A  604   2.332   2.745   9.939  0.8903  0.7624  2.3494
    9CHL1   H7B  605   2.448   2.603   9.956 -0.1662  0.8138 -1.5994
    9CHL1    C8  606   2.277   2.543   9.860  0.4147 -0.5934 -0.0940
    9CHL1    H8  607   2.171   2.569   9.840  0.2074 -0.2445  1.3151
    9CHL1   C14  608   2.356   2.556   9.734 -0.4598 -0.5863 -0.1288
    9CHL1   H14  609   2.459   2.523   9.760 -0.8743 -1.4416  0.4687
    9CHL1   C15  610   2.370   2.693   9.661 -0.1111 -0.1350 -0.0489
    9CHL1  H15A  611   2.271   2.745   9.661 -0.4625 -0.7849  0.5826
    9CHL1  H15B  612   2.441   2.755   9.719  0.1045 -0.5016  0.0787
    9CHL1   C16  613   2.420   2.651   9.520 -0.1126  0.5133 -0.1523
    9CHL1  H16A  614   2.367   2.691   9.431  0.1215  0.7245 -0.1986
    9CHL1  H16B  615   2.522   2.693   9.506  1.1335 -1.8405  1.2776
    9CHL1   C17  616   2.414   2.494   9.510 -0.2626  0.1642 -0.9168
    9CHL1   H17  617   2.512   2.456   9.547 -0.4241 -1.1047 -1.7404
    9CHL1   C13  618   2.306   2.464   9.621  0.1597  0.4521  0.9421
    9CHL1   C18  619   2.166   2.509   9.564 -0.3240  0.2552 -0.3724
    9CHL1  H18A  620   2.181   2.606   9.512 -0.3367 -0.2783 -1.4097
    9CHL1  H18B  621   2.129   2.422   9.506 -0.7908 -0.7412  1.3394
    9CHL1  H18C  622   2.094   2.538   9.643 -0.5165  0.1163 -0.4972
    9CHL1   C12  623   2.291   2.320   9.670  0.0523  0.5114  0.4772
    9CHL1  H12A  624   2.267   2.234   9.604  0.3552 -0.5300  1.6810
    9CHL1  H12B  625   2.391   2.297   9.711 -0.9459 -2.1739  1.6640
    9CHL1   C11  626   2.194   2.307   9.794  0.2768 -0.0680  0.4871
    9CHL1  H11A  627   2.100   2.360   9.767  0.8745  0.4627 -0.6593
    9CHL1  H11B  628   2.189   2.200   9.822  1.7315 -0.3040 -0.0869
    9CHL1    C9  629   2.261   2.395   9.912 -0.1017  0.0852 -0.2720
    9CHL1    H9  630   2.363   2.352   9.924 -0.7328 -1.6111 -0.6270
    9CHL1   C10  631   2.192   2.375  10.052 -0.8690  0.1209 -0.1961
    9CHL1   C19  632   2.040   2.363  10.024  0.4927 -0.2863 -0.3952
    9CHL1  H19A  633   1.999   2.442   9.958  0.0671  0.0432  0.2479
    9CHL1  H19B  634   2.017   2.262   9.986  2.8686 -1.0814  0.0916
    9CHL1  H19C  635   1.978   2.395  10.111 -2.3519 -1.1894 -1.9713
    9CHL1    C1  636   2.236   2.244  10.122  0.2818  0.5649  0.0771
    9CHL1   H1A  637   2.206   2.152  10.066  0.4551 -0.0544  0.9778
    9CHL1   H1B  638   2.347   2.255  10.119  0.1336  2.2110 -1.6305
    9CHL1    C2  639   2.198   2.221  10.269  0.3519  0.0716  0.2288
    9CHL1   H2A  640   2.251   2.131  10.305 -0.1608 -0.5058 -0.4132
    9CHL1   H2B  641   2.089   2.207  10.285  0.5439  0.0150  1.5758
    9CHL1   C20  642   2.402   2.442   9.367 -0.1948 -0.4026  0.0509
    9CHL1   H20  643   2.299   2.470   9.336  0.4719  1.7677 -0.3993
    9CHL1   C21  644   2.408   2.287   9.359 -0.4234 -0.1165 -0.4905
    9CHL1  H21A  645   2.471   2.258   9.273  1.7549 -0.6084  1.1651
    9CHL1  H21B  646   2.305   2.247   9.367 -1.2120  2.0077  1.1940
    9CHL1  H21C  647   2.458   2.249   9.451 -2.5745 -0.4757  0.5967
    9CHL1   C22  648   2.517   2.486   9.270  0.7101 -0.3798  0.1871
    9CHL1  H22A  649   2.544   2.593   9.285  1.9493 -0.8434  1.6251
    9CHL1  H22B  650   2.610   2.429   9.292  0.3651 -1.5540 -1.2587
    9CHL1   C23  651   2.482   2.458   9.118  0.0577  0.1054  0.2452
    9CHL1  H23A  652   2.480   2.351   9.086 -2.3192  0.9281 -2.8405
    9CHL1  H23B  653   2.376   2.486   9.100 -0.1177  0.6738  1.9977
    9CHL1   C24  654   2.568   2.549   9.026  0.1187  0.3403  0.0873
    9CHL1  H24A  655   2.556   2.651   9.067 -3.1993  0.1572 -0.1527
    9CHL1  H24B  656   2.677   2.530   9.026  0.3054  1.2544 -1.0390
    9CHL1   C25  657   2.522   2.528   8.877 -0.4247  0.1975 -0.4941
    9CHL1   H25  658   2.524   2.421   8.849 -2.3083  0.8282 -3.6293
    9CHL1   C26  659   2.370   2.577   8.855 -0.3487  0.3216 -0.4903
    9CHL1  H26A  660   2.295   2.539   8.927  1.2030  2.9272  2.7580
    9CHL1  H26B  661   2.359   2.688   8.854  3.3568  0.8739  1.5965
    9CHL1  H26C  662   2.341   2.546   8.752  0.3333  0.3540 -0.6949
    9CHL1   C27  663   2.610   2.596   8.777 -0.0799  0.1462 -0.0417
    9CHL1  H27A  664   2.619   2.704   8.800 -0.0226  0.1204  0.0554
    9CHL1  H27B  665   2.715   2.560   8.777 -0.3326 -0.6419 -0.8676
    9CHL1  H27C  666   2.560   2.589   8.677  0.2137 -2.7046 -0.0639
   10CHL1    C3  667   3.070   0.456  10.155  0.0092 -1.0244  0.0989
   10CHL1    H3  668   3.177   0.429  10.150  0.5846  1.3642 -1.7992
   10CHL1    O3  669   3.046   0.455  10.295 -0.7385  0.3408 -0.4665
   10CHL1   H3'  670   3.044   0.360  10.311  0.2273  0.4828  0.6010
   10CHL1    C4  671   3.043   0.597  10.099 -0.1392  0.0658  0.4438
   10CHL1   H4A  672   2.936   0.614  10.121 -0.1200  3.2327 -1.3182
   10CHL1   H4B  673   3.086   0.677  10.163 -0.4827  0.0881  0.6466
   10CHL1    C5  674   3.065   0.615   9.948  0.0514  1.1530  0.2789
   10CHL1    C6  675   3.143   0.709   9.887 -0.3931 -0.2359  0.1977
   10CHL1    H6  676   3.203   0.781   9.945 -2.2450 -0.5876  2.7242
   10CHL1    C7  677   3.186   0.726   9.742  1.0068  0.4469 -0.2664
   10CHL1   H7A  678   3.172   0.834   9.720  1.4707  0.5422 -0.0906
   10CHL1   H7B  679   3.293   0.705   9.722  0.9030  0.9918 -1.4919
   10CHL1    C8  680   3.096   0.639   9.653  0.6842 -0.1641  0.2172
   10CHL1    H8  681   2.999   0.693   9.662  0.6022  0.0416 -1.4838
   10CHL1   C14  682   3.163   0.627   9.513  0.0640  0.1817 -0.0268
   10CHL1   H14  683   3.247   0.556   9.524 -1.3678 -1.2825  2.2462
   10CHL1   C15  684   3.223   0.754   9.444  0.1263  0.4412  0.2705
   10CHL1  H15A  685   3.149   0.836   9.459 -1.8885 -0.5275 -3.2184
   10CHL1  H15B  686   3.327   0.771   9.477  1.9561 -1.1519 -3.9352
   10CHL1   C16  687   3.214   0.716   9.298 -0.3435  0.1971 -0.3464
   10CHL1  H16A  688   3.146   0.798   9.266 -0.5813  0.5918  1.0832
   10CHL1  H16B  689   3.315   0.730   9.253  0.7079 -1.7292  1.2828
   10CHL1   C17  690   3.149   0.579   9.285 -0.0903  0.2928 -0.2239
   10CHL1   H17  691   3.232   0.505   9.285  0.6039  1.0325 -0.9210
   10CHL1   C13  692   3.069   0.563   9.413  0.1903  0.4846 -0.3290
   10CHL1   C18  693   2.943   0.648   9.399  0.6882  0.3402 -0.5925
   10CHL1  H18A  694   2.870   0.592   9.338  0.4563  0.2532 -0.2391
   10CHL1  H18B  695   2.887   0.670   9.493  0.6784 -1.6368 -0.0977
   10CHL1  H18C  696   2.967   0.746   9.352  0.6428  0.4486 -0.3940
   10CHL1   C12  697   3.042   0.421   9.464 -0.1186  0.3679 -0.9769
   10CHL1  H12A  698   2.974   0.370   9.392 -1.3899  0.1143  0.3488
   10CHL1  H12B  699   3.142   0.373   9.462 -0.3268 -0.1383 -4.1463
   10CHL1   C11  700   2.984   0.414   9.611 -0.1026 -0.4891 -0.0240
   10CHL1  H11A  701   2.880   0.452   9.606 -0.8557 -2.0542  2.2278
   10CHL1  H11B  702   2.983   0.311   9.653 -1.8901  0.3891  2.3277
   10CHL1    C9  703   3.061   0.499   9.712 -0.0569  0.6044  1.0492
   10CHL1    H9  704   3.162   0.453   9.716 -0.1898  0.3312  1.2415
   10CHL1   C10  705   3.000   0.505   9.857  0.6153  1.2440  0.3835
   10CHL1   C19  706   2.847   0.534   9.855  0.4090 -0.4473  0.2231
   10CHL1  H19A  707   2.808   0.516   9.958  0.9307 -1.3458  0.2738
   10CHL1  H19B  708   2.849   0.640   9.820  0.8175 -0.6249 -0.3071
   10CHL1  H19C  709   2.788   0.469   9.788 -1.4966  0.4907  0.8978
   10CHL1    C1  710   3.021   0.369   9.920  0.3379 -0.3574 -0.4114
   10CHL1   H1A  711   2.965   0.293   9.862 -0.0147  0.5369 -1.2828
   10CHL1   H1B  712   3.130   0.348   9.914  0.3534  0.0516 -3.4790
   10CHL1    C2  713   2.983   0.360  10.075  0.5759 -0.0232  0.2119
   10CHL1   H2A  714   2.995   0.255  10.109  0.6819  0.2770  1.1267
   10CHL1   H2B  715   2.875   0.368  10.100  0.7048 -0.8416  1.0966
   10CHL1   C20  716   3.084   0.566   9.145  0.1233 -0.0040 -0.5049
   10CHL1   H20  717   3.003   0.641   9.143  0.0215 -0.0904  0.1770
   10CHL1   C21  718   3.024   0.428   9.121 -0.2204 -0.0086  0.3337
   10CHL1  H21A  719   3.102   0.349   9.113  1.2952  1.4040  0.4820
   10CHL1  H21B  720   2.964   0.428   9.028 -1.2667  2.1707  0.9359
   10CHL1  H21C  721   2.942   0.408   9.193 -1.8335 -0.4086 -1.5489
   10CHL1   C22  722   3.183   0.602   9.030  0.4283 -0.0960  0.1175
   10CHL1  H22A  723   3.241   0.694   9.052  0.6270 -0.5076  1.4450
   10CHL1  H22B  724   3.241   0.507   9.021 -1.3670 -1.2050 -0.2317
   10CHL1   C23  725   3.103   0.617   8.904  0.0953  1.0149  0.0483
   10CHL1  H23A  726   3.045   0.526   8.874  1.9331 -0.5817  1.0908
   10CHL1  H23B  727   3.025   0.695   8.915 -0.4933  0.5090 -0.4499
   10CHL1   C24  728   3.185   0.646   8.781 -0.2420  0.1808  0.5160
   10CHL1  H24A  729   3.275   0.586   8.809 -1.8142 -2.1016  0.9317
   10CHL1  H24B  730   3.136   0.605   8.690 -0.2760  1.2330  0.0501
   10CHL1   C25  731   3.224   0.791   8.753 -0.1813  0.5636 -0.5180
   10CHL1   H25  732   3.260   0.827   8.851 -1.9516  1.4299 -0.1696
   10CHL1   C26  733   3.332   0.795   8.650  0.6646 -0.3713 -0.0122
   10CHL1  H26A  734   3.284   0.750   8.561 -0.8333  0.0968  0.5297
   10CHL1  H26B  735   3.353   0.901   8.626 -0.3218  0.0593  0.9327
   10CHL1  H26C  736   3.428   0.744   8.674  1.6612  1.6370  0.4319
   10CHL1   C27  737   3.110   0.880   8.711  0.1024  0.0610  0.0393
   10CHL1  H27A  738   3.024   0.849   8.774  0.4200 -2.0985 -0.5126
   10CHL1  H27B  739   3.120   0.991   8.718  0.7290  0.2134 -2.3689
   10CHL1  H27C  740   3.082   0.854   8.606  0.9770 -0.3627 -0.1002
   11CHL1    C3  741   5.887   4.883  10.167  0.5448  0.5604  0.2814
   11CHL1    H3  742   5.980   4.832  10.133 -1.6621 -1.4348 -3.4546
   11CHL1    O3  743   5.901   4.949  10.290 -0.5170  0.6225 -0.6082
   11CHL1   H3'  744   5.902   4.887  10.363  1.4642  0.5220 -0.6668
   11CHL1    C4  745   5.865   4.995  10.066  0.0927  0.3105 -0.0677
   11CHL1   H4A  746   5.793   5.072  10.100 -0.3383 -0.3153  0.4493
   11CHL1   H4B  747   5.961   5.052  10.061  0.0815  0.2838 -0.7414
   11CHL1    C5  748   5.830   4.950   9.926 -0.0303  0.0939 -0.0310
   11CHL1    C6  749   5.892   5.001   9.819  0.1718  0.3953 -0.2895
   11CHL1    H6  750   5.980   5.067   9.827  0.4418 -0.0311  0.3703
   11CHL1    C7  751   5.856   4.971   9.677  0.3881 -0.3756  0.3515
   11CHL1   H7A  752   5.835   5.064   9.620 -0.3407  0.4356  1.8707
   11CHL1   H7B  753   5.933   4.918   9.617 -1.0780 -0.5723 -1.4336
   11CHL1    C8  754   5.727   4.889   9.672 -0.2515 -0.2303  0.5832
   11CHL1    H8  755   5.636   4.954   9.665 -1.2564 -1.5094  1.2916
   11CHL1   C14  756   5.728   4.810   9.547 -0.6063  0.2993  0.8046
   11CHL1   H14  757   5.806   4.731   9.552 -0.9803 -0.1449 -0.1001
   11CHL1   C15  758   5.766   4.888   9.423 -1.0530  0.6001 -0.3589
   11CHL1  H15A  759   5.714   4.986   9.425 -0.3900  1.0265 -2.4424
   11CHL1  H15B  760   5.876   4.898   9.410 -0.5207 -1.8683  1.4853
   11CHL1   C16  761   5.703   4.813   9.304 -0.3207  0.7321 -0.1607
   11CHL1  H16A  762   5.636   4.895   9.270 -1.5956 -0.2541 -0.0770
   11CHL1  H16B  763   5.773   4.793   9.220 -0.8120  0.9648 -0.6301
   11CHL1   C17  764   5.626   4.692   9.360 -0.9023 -0.2380  0.2038
   11CHL1   H17  765   5.706   4.616   9.372  1.1373  1.6405 -0.7763
   11CHL1   C13  766   5.597   4.746   9.509  0.4256  0.1820  0.0209
   11CHL1   C18  767   5.474   4.834   9.494  1.6999 -0.0329 -0.2650
   11CHL1  H18A  768   5.467   4.890   9.398 -0.1413 -0.6789 -0.5517
   11CHL1  H18B  769   5.384   4.770   9.485  0.9548  1.0283 -0.5630
   11CHL1  H18C  770   5.457   4.890   9.589  0.1282 -2.2923  0.8958
   11CHL1   C12  771   5.577   4.637   9.612 -0.4390  0.5071  0.0054
   11CHL1  H12A  772   5.478   4.591   9.592  0.3271 -0.9065 -0.6861
   11CHL1  H12B  773   5.648   4.554   9.593  0.1875  0.6666  1.5076
   11CHL1   C11  774   5.591   4.692   9.753 -0.2972 -0.1292 -0.2481
   11CHL1  H11A  775   5.505   4.762   9.769  1.0142  1.8472 -1.3840
   11CHL1  H11B  776   5.589   4.612   9.830  2.1240  0.7011  0.7790
   11CHL1    C9  777   5.711   4.783   9.778  0.5937  0.0919 -0.1604
   11CHL1    H9  778   5.797   4.712   9.774 -0.1666 -0.9035  0.5385
   11CHL1   C10  779   5.723   4.851   9.916  0.2044  0.2203  0.3125
   11CHL1   C19  780   5.588   4.921   9.947 -0.3286  0.5321  0.1099
   11CHL1  H19A  781   5.521   4.854  10.005 -3.8582  2.8719 -0.9313
   11CHL1  H19B  782   5.597   5.021   9.995  1.2311  0.0921  0.8275
   11CHL1  H19C  783   5.549   4.947   9.846  1.6232  1.3716 -0.4855
   11CHL1    C1  784   5.754   4.733  10.013 -0.4266  0.6303 -0.2453
   11CHL1   H1A  785   5.658   4.677  10.018  0.0502 -0.1638  0.2641
   11CHL1   H1B  786   5.845   4.677   9.984 -0.2497  0.2114  1.0486
   11CHL1    C2  787   5.781   4.778  10.165  0.4838  0.3344 -0.8613
   11CHL1   H2A  788   5.816   4.693  10.228  1.9520  1.0803 -0.6153
   11CHL1   H2B  789   5.686   4.825  10.199  0.6016  0.8321 -1.2257
   11CHL1   C20  790   5.520   4.636   9.259  0.3370 -0.4172 -0.1733
   11CHL1   H20  791   5.445   4.712   9.227 -0.2569 -0.7000  0.5194
   11CHL1   C21  792   5.451   4.512   9.319  0.4610  0.0601 -0.1366
   11CHL1  H21A  793   5.529   4.439   9.347  0.7971 -0.3702 -2.0697
   11CHL1  H21B  794   5.393   4.453   9.244 -0.3230 -1.8488  1.8760
   11CHL1  H21C  795   5.382   4.537   9.402  2.3119  0.0061  1.4870
   11CHL1   C22  796   5.590   4.614   9.120 -0.0825 -0.1701 -0.6870
   11CHL1  H22A  797   5.588   4.717   9.078 -0.3770 -0.3709 -1.1774
   11CHL1  H22B  798   5.693   4.578   9.140 -0.3231  0.0861  1.1909
   11CHL1   C23  799   5.523   4.531   9.017  0.3973  0.2920  0.2551
   11CHL1  H23A  800   5.525   4.426   9.052 -0.2258 -0.2769 -1.3465
   11CHL1  H23B  801   5.417   4.563   9.003  0.2340 -0.4412 -0.1877
   11CHL1   C24  802   5.597   4.532   8.886 -0.0323 -0.2473 -0.3137
   11CHL1  H24A  803   5.572   4.626   8.832  0.2212 -0.7447 -1.3296
   11CHL1  H24B  804   5.706   4.525   8.905 -0.4279 -0.1835  2.3876
   11CHL1   C25  805   5.557   4.411   8.800 -0.1225  0.0887 -0.7541
   11CHL1   H25  806   5.572   4.325   8.869 -0.0951  0.6009 -0.1134
   11CHL1   C26  807   5.409   4.406   8.746  0.1610 -0.0862 -0.3057
   11CHL1  H26A  808   5.333   4.419   8.826  0.1785  0.0997 -0.3203
   11CHL1  H26B  809   5.403   4.490   8.673  3.5296  0.8214  0.2819
   11CHL1  H26C  810   5.383   4.316   8.686 -0.3680 -0.0456 -0.1406
   11CHL1   C27  811   5.661   4.383   8.681  0.9339  0.1590 -0.9987
   11CHL1  H27A  812   5.765   4.377   8.720 -0.2352 -0.5913  2.3684
   11CHL1  H27B  813   5.621   4.290   8.635  0.1938  0.5132 -1.0902
   11CHL1  H27C  814   5.675   4.459   8.601  0.5530 -1.1057 -2.3279
   12CHL1    C3  815   1.087   6.063  10.427 -0.1038 -1.0192  0.7782
   12CHL1    H3  816   1.119   5.959  10.407 -1.6936 -1.5317  0.7435
   12CHL1    O3  817   1.096   6.076  10.570 -0.9804  0.7460  0.5047
   12CHL1   H3'  818   1.188   6.097  10.587 -0.0393 -0.8172 -1.9851
   12CHL1    C4  819   1.176   6.177  10.371  0.8430  0.6315  0.1886
   12CHL1   H4A  820   1.151   6.280  10.405  0.4225  0.2670  1.0173
   12CHL1   H4B  821   1.274   6.162  10.421  0.7723  0.6462  0.3348
   12CHL1    C5  822   1.177   6.179  10.217  0.1006  0.5468  0.0926
   12CHL1    C6  823   1.277   6.159  10.138  0.0235  0.2916  0.3523
   12CHL1    H6  824   1.377   6.147  10.180  0.4226 -1.0524 -0.8783
   12CHL1    C7  825   1.262   6.167   9.986  0.1626 -0.2342 -0.3138
   12CHL1   H7A  826   1.339   6.233   9.942 -1.2904  1.0015 -1.1015
   12CHL1   H7B  827   1.281   6.074   9.928 -1.0099  0.2371 -1.5052
   12CHL1    C8  828   1.133   6.241   9.937 -0.6395 -0.6560  0.2238
   12CHL1    H8  829   1.136   6.352   9.950 -0.7890 -0.5642 -0.5054
   12CHL1   C14  830   1.125   6.215   9.792  0.6205  0.1077  0.1246
   12CHL1   H14  831   1.128   6.104   9.790  1.2399 -0.0334  3.2572
   12CHL1   C15  832   1.246   6.252   9.698 -0.1382  0.3665 -0.3099
   12CHL1  H15A  833   1.263   6.359   9.723 -0.3109  0.1184  0.9593
   12CHL1  H15B  834   1.332   6.183   9.717  0.1315  1.1473  1.5445
   12CHL1   C16  835   1.189   6.220   9.564 -0.2084 -0.2619  0.6708
   12CHL1  H16A  836   1.221   6.302   9.496 -0.1440 -1.4525 -0.7979
   12CHL1  H16B  837   1.224   6.124   9.521  0.8094  0.6643 -0.6357
   12CHL1   C17  838   1.038   6.206   9.573  0.6508 -0.2886  0.9231
   12CHL1   H17  839   1.023   6.097   9.583 -0.3695 -0.1601  0.9231
   12CHL1   C13  840   0.998   6.259   9.716 -0.3981  0.0892  0.1530
   12CHL1   C18  841   0.995   6.415   9.705  0.0495 -0.3367  0.2863
   12CHL1  H18A  842   0.996   6.459   9.807 -2.7382  0.5215  0.0397
   12CHL1  H18B  843   1.084   6.450   9.650  1.0558 -2.2698  0.5790
   12CHL1  H18C  844   0.899   6.445   9.657 -0.1720 -0.2264  0.7812
   12CHL1   C12  845   0.885   6.197   9.790 -0.1084 -0.4071  0.3435
   12CHL1  H12A  846   0.790   6.235   9.746  1.2178 -0.0919 -2.3777
   12CHL1  H12B  847   0.884   6.089   9.764 -2.3672  0.1772 -2.4119
   12CHL1   C11  848   0.887   6.230   9.946 -0.0662  0.3734 -0.4421
   12CHL1  H11A  849   0.873   6.338   9.966  0.9785  0.2504  1.0902
   12CHL1  H11B  850   0.794   6.186   9.989  0.1106  1.9708  1.7143
   12CHL1    C9  851   1.017   6.183  10.011 -0.2536  0.1194  0.2475
   12CHL1    H9  852   1.029   6.073   9.998 -1.1487 -0.0798  0.9847
   12CHL1   C10  853   1.034   6.197  10.167 -0.5545 -0.2253 -0.1962
   12CHL1   C19  854   0.986   6.336  10.216  0.5922 -0.4489 -0.1352
   12CHL1  H19A  855   1.029   6.409  10.144  0.6203  0.3379  0.6570
   12CHL1  H19B  856   0.875   6.327  10.210  0.1982 -0.1416  4.1064
   12CHL1  H19C  857   1.008   6.354  10.323  0.4383 -0.9468 -0.0147
   12CHL1    C1  858   0.940   6.088  10.229  0.6311  0.0971 -0.6611
   12CHL1   H1A  859   0.843   6.109  10.180  1.0366 -1.4681 -2.2007
   12CHL1   H1B  860   0.980   5.989  10.199 -2.0841 -0.9803 -1.0473
   12CHL1    C2  861   0.943   6.087  10.384 -0.6475 -0.7013 -0.0830
   12CHL1   H2A  862   0.878   6.006  10.423 -1.3427 -0.6329 -1.0716
   12CHL1   H2B  863   0.914   6.191  10.411  2.3708  0.3446 -0.4329
   12CHL1   C20  864   0.962   6.247   9.436 -0.7732  0.9065  0.1065
   12CHL1   H20  865   0.977   6.351   9.401 -0.1437  0.2739 -1.6111
   12CHL1   C21  866   0.813   6.245   9.471 -0.1859 -0.5690 -0.7138
   12CHL1  H21A  867   0.803   6.300   9.567 -0.5896  2.7974 -2.5310
   12CHL1  H21B  868   0.772   6.146   9.499  0.1305 -0.8156 -1.0975
   12CHL1  H21C  869   0.750   6.285   9.389  0.4041  0.5961 -0.6312
   12CHL1   C22  870   1.013   6.154   9.318  0.0703 -0.0312 -0.2584
   12CHL1  H22A  871   1.124   6.154   9.314  0.1052 -0.3002  0.5312
   12CHL1  H22B  872   0.985   6.049   9.341  0.5777 -0.2505 -0.6108
   12CHL1   C23  873   0.961   6.217   9.180 -0.0266  0.1173  0.0854
   12CHL1  H23A  874   0.851   6.207   9.185 -0.3361  2.7801  0.3225
   12CHL1  H23B  875   0.982   6.326   9.190 -0.4945  0.1813  0.3948
   12CHL1   C24  876   1.012   6.170   9.045  0.4820 -0.6362 -0.0005
   12CHL1  H24A  877   1.122   6.185   9.034  0.5167 -0.4364  0.6248
   12CHL1  H24B  878   1.002   6.059   9.041 -0.5521 -0.5304 -0.7283
   12CHL1   C25  879   0.945   6.245   8.933 -0.8912 -0.0663  0.1502
   12CHL1   H25  880   0.835   6.236   8.945 -1.0071 -1.1953 -1.4842
   12CHL1   C26  881   0.984   6.395   8.933  0.7110  0.1977  0.2088
   12CHL1  H26A  882   0.969   6.450   8.838  1.6405 -1.2233 -0.8002
   12CHL1  H26B  883   0.922   6.454   9.004 -1.3286  0.4220 -1.6605
   12CHL1  H26C  884   1.091   6.409   8.962  0.7519 -0.0574  0.1890
   12CHL1   C27  885   0.975   6.195   8.791 -0.7278 -0.2261  0.2845
   12CHL1  H27A  886   0.912   6.249   8.717 -1.6031 -1.3850  0.1594
   12CHL1  H27B  887   1.084   6.205   8.772 -0.4372  0.9976  2.3773
   12CHL1  H27C  888   0.940   6.090   8.783 -2.8846  0.5876 -2.9309
   13CHL1    C3  889   1.350   1.819   9.946  0.1864  0.2976  0.6272
   13CHL1    H3  890   1.245   1.784   9.946  0.0853  0.5802  0.1757
   13CHL1    O3  891   1.378   1.862  10.082 -0.3574 -0.3155 -0.3196
   13CHL1   H3'  892   1.340   1.788  10.130  0.4275  0.3105  1.3626
   13CHL1    C4  893   1.435   1.702   9.914 -0.4617  0.1468 -0.2423
   13CHL1   H4A  894   1.537   1.743   9.934 -0.5493  0.2157  0.0655
   13CHL1   H4B  895   1.412   1.617   9.982 -0.4142  0.4451  0.1524
   13CHL1    C5  896   1.448   1.660   9.769 -0.0162 -0.2886  0.4807
   13CHL1    C6  897   1.431   1.535   9.744  0.2687  0.6173  0.0413
   13CHL1    H6  898   1.427   1.466   9.830 -1.1113  0.3356 -0.2229
   13CHL1    C7  899   1.428   1.478   9.602  0.1578  0.0748  0.4305
   13CHL1   H7A  900   1.499   1.393   9.591  0.1436  0.3676 -3.4502
   13CHL1   H7B  901   1.326   1.439   9.583 -0.1711  2.2583 -3.4111
   13CHL1    C8  902   1.463   1.585   9.497  0.0906 -0.0352  0.1148
   13CHL1    H8  903   1.573   1.575   9.483  0.1067  0.7305 -0.3795
   13CHL1   C14  904   1.406   1.541   9.361 -0.5338 -0.6000 -0.1648
   13CHL1   H14  905   1.296   1.556   9.372 -0.3129  0.1863  1.2003
   13CHL1   C15  906   1.432   1.397   9.326  0.3309 -0.3409 -1.0938
   13CHL1  H15A  907   1.523   1.348   9.365 -0.3640 -0.0891  0.9892
   13CHL1  H15B  908   1.348   1.341   9.373  0.2129  1.0674  0.4763
   13CHL1   C16  909   1.417   1.396   9.177  0.5283 -0.9381  0.1848
   13CHL1  H16A  910   1.517   1.370   9.137  1.3500  2.4299 -0.2488
   13CHL1  H16B  911   1.337   1.328   9.144 -0.2266 -0.5111  1.0886
   13CHL1   C17  912   1.396   1.541   9.128 -1.0097 -1.1992 -0.5276
   13CHL1   H17  913   1.287   1.560   9.126 -0.8447 -0.0595  0.3474
   13CHL1   C13  914   1.441   1.630   9.244 -0.4946  1.0039  0.0448
   13CHL1   C18  915   1.596   1.643   9.232 -0.3637 -0.1399  0.9017
   13CHL1  H18A  916   1.648   1.544   9.225  1.7328  1.0115 -2.5982
   13CHL1  H18B  917   1.625   1.704   9.144 -0.1549 -0.6578  0.6049
   13CHL1  H18C  918   1.637   1.711   9.310  1.9119  0.6880 -0.8813
   13CHL1   C12  919   1.380   1.769   9.274 -0.7976 -0.2636 -0.5200
   13CHL1  H12A  920   1.408   1.840   9.192  2.9221  0.6211  1.3016
   13CHL1  H12B  921   1.270   1.760   9.267 -0.5881 -1.8505 -2.5790
   13CHL1   C11  922   1.430   1.829   9.411 -0.6310  0.0364  0.0152
   13CHL1  H11A  923   1.536   1.859   9.400  0.2876 -2.0286  2.3961
   13CHL1  H11B  924   1.368   1.920   9.424 -1.6875 -0.8570  1.5795
   13CHL1    C9  925   1.407   1.724   9.528  0.4902 -0.2302  0.2840
   13CHL1    H9  926   1.296   1.716   9.530  0.2379  2.2992  0.0092
   13CHL1   C10  927   1.449   1.770   9.667  0.2873 -0.1238  0.1417
   13CHL1   C19  928   1.600   1.804   9.663  0.4738  0.1598  0.0129
   13CHL1  H19A  929   1.661   1.720   9.623  0.7937  0.2830  0.2346
   13CHL1  H19B  930   1.626   1.883   9.590  0.8123  0.5291  0.5236
   13CHL1  H19C  931   1.637   1.825   9.766 -0.6914 -1.8348  0.8916
   13CHL1    C1  932   1.361   1.897   9.706 -0.7015  0.2908  0.8946
   13CHL1   H1A  933   1.398   1.979   9.641  0.8242 -1.4704 -0.5944
   13CHL1   H1B  934   1.259   1.861   9.683 -1.5963  3.3943 -0.5944
   13CHL1    C2  935   1.368   1.942   9.854 -0.2688  0.1302  0.4215
   13CHL1   H2A  936   1.289   2.019   9.863 -0.4218  0.0733 -0.3353
   13CHL1   H2B  937   1.462   1.999   9.868 -0.0523 -0.1272  0.0533
   13CHL1   C20  938   1.456   1.572   8.991 -0.4193  0.1994  1.1079
   13CHL1   H20  939   1.566   1.557   8.986 -0.3373  1.0621 -0.0297
   13CHL1   C21  940   1.426   1.710   8.946  0.4984 -0.6835  0.0632
   13CHL1  H21A  941   1.447   1.727   8.838  0.8213 -0.7258  0.1204
   13CHL1  H21B  942   1.486   1.789   8.996  2.2905 -0.4701 -2.2759
   13CHL1  H21C  943   1.319   1.739   8.952 -0.5868 -4.3621  0.7647
   13CHL1   C22  944   1.399   1.475   8.880 -0.3819 -0.3828  0.1626
   13CHL1  H22A  945   1.447   1.507   8.785  1.5950  2.3374  1.8974
   13CHL1  H22B  946   1.439   1.375   8.906 -0.0985 -0.2378  0.2812
   13CHL1   C23  947   1.245   1.470   8.873 -0.2858 -0.8047 -0.1580
   13CHL1  H23A  948   1.200   1.448   8.973  0.1763  1.2571  0.5450
   13CHL1  H23B  949   1.214   1.574   8.849 -0.1338 -0.0018  2.6890
   13CHL1   C24  950   1.192   1.363   8.777  0.5122 -0.1094 -0.4821
   13CHL1  H24A  951   1.195   1.406   8.674 -1.8352 -0.9943 -0.9717
   13CHL1  H24B  952   1.260   1.275   8.775  0.1440 -0.3903 -1.5638
   13CHL1   C25  953   1.038   1.346   8.798 -0.0020  0.0059  0.2143
   13CHL1   H25  954   0.994   1.448   8.797  0.1250  0.1051 -2.9538
   13CHL1   C26  955   0.964   1.275   8.688  0.2869 -0.3397 -0.5494
   13CHL1  H26A  956   0.862   1.243   8.718  0.4134 -0.2954 -0.0483
   13CHL1  H26B  957   0.949   1.343   8.602  2.5316  1.6325  0.4986
   13CHL1  H26C  958   1.015   1.182   8.654 -0.4986 -0.6575 -0.8828
   13CHL1   C27  959   1.006   1.283   8.934 -0.5781 -0.1402 -0.2610
   13CHL1  H27A  960   0.900   1.251   8.940 -0.8285  0.7417  0.0878
   13CHL1  H27B  961   1.066   1.190   8.944  0.4852  0.4258 -1.1044
   13CHL1  H27C  962   1.025   1.355   9.016 -0.1794  1.2992 -1.5706
   14CHL1    C3  963   0.486   5.254  10.460 -0.7547  0.1863  0.7138
   14CHL1    H3  964   0.390   5.198  10.456 -0.8398  0.3809 -1.5521
   14CHL1    O3  965   0.549   5.230  10.584 -0.5674 -0.1901  0.2028
   14CHL1   H3'  966   0.616   5.298  10.596 -2.3467  1.5887  0.5889
   14CHL1    C4  967   0.589   5.208  10.349  0.7614  0.0275 -0.1900
   14CHL1   H4A  968   0.681   5.269  10.360  0.7959  0.1487 -1.0468
   14CHL1   H4B  969   0.622   5.104  10.370 -1.0802 -0.9056 -1.6410
   14CHL1    C5  970   0.536   5.212  10.205 -0.0162  0.5788 -0.2655
   14CHL1    C6  971   0.524   5.109  10.127  0.1770  0.2339  0.1898
   14CHL1    H6  972   0.546   5.005  10.158  2.4478  0.2510 -1.1581
   14CHL1    C7  973   0.477   5.122   9.979 -0.2490  0.0276 -0.3800
   14CHL1   H7A  974   0.534   5.056   9.911 -2.9938  0.1421 -3.0039
   14CHL1   H7B  975   0.375   5.083   9.962  0.2685 -0.2383 -3.4795
   14CHL1    C8  976   0.480   5.269   9.933  0.0180 -0.1573 -0.1970
   14CHL1    H8  977   0.587   5.298   9.926  0.2161 -0.5702  0.8475
   14CHL1   C14  978   0.396   5.279   9.809  0.3489  0.4629  0.5683
   14CHL1   H14  979   0.294   5.245   9.835  0.4518 -0.4320 -0.1564
   14CHL1   C15  980   0.433   5.180   9.689 -0.7413  0.0779 -1.5027
   14CHL1  H15A  981   0.541   5.195   9.668 -0.3368  0.2963  0.4729
   14CHL1  H15B  982   0.403   5.074   9.706 -2.1382  0.9382  2.5651
   14CHL1   C16  983   0.357   5.239   9.575  0.3156  0.7167  0.5024
   14CHL1  H16A  984   0.409   5.253   9.477 -0.2284  0.6252  0.1978
   14CHL1  H16B  985   0.269   5.173   9.564 -0.3025  1.3753  1.3992
   14CHL1   C17  986   0.295   5.371   9.620 -0.1266  0.3242 -0.0484
   14CHL1   H17  987   0.187   5.363   9.644 -0.5433  2.1426 -1.0781
   14CHL1   C13  988   0.373   5.413   9.746 -0.3289  0.4028  0.3788
   14CHL1   C18  989   0.512   5.463   9.700 -0.1865  0.6691 -0.7661
   14CHL1  H18A  990   0.572   5.403   9.628  0.4896 -1.2051  1.2308
   14CHL1  H18B  991   0.506   5.562   9.651  0.1825  1.8943  1.5296
   14CHL1  H18C  992   0.578   5.479   9.788  0.1363  0.4707 -0.9690
   14CHL1   C12  993   0.305   5.507   9.848 -0.2635  0.2058  0.0331
   14CHL1  H12A  994   0.298   5.614   9.822  0.8211  0.6376  1.3793
   14CHL1  H12B  995   0.201   5.466   9.853  0.5674 -2.1415 -0.5271
   14CHL1   C11  996   0.374   5.496   9.979 -1.0128 -0.3014 -0.2444
   14CHL1  H11A  997   0.473   5.545   9.974 -0.3922 -1.6113 -2.7157
   14CHL1  H11B  998   0.316   5.553  10.054  0.2711  0.7366 -0.0037
   14CHL1    C9  999   0.408   5.356  10.034 -0.0210 -0.1081 -0.1881
   14CHL1    H9 1000   0.312   5.302  10.050  0.6289 -1.3754 -0.4371
   14CHL1   C10 1001   0.484   5.357  10.168 -0.5862  0.8380  0.2809
   14CHL1   C19 1002   0.604   5.450  10.161 -0.3674 -0.6434  0.1119
   14CHL1  H19A 1003   0.653   5.434  10.062 -1.0857 -1.4727 -0.1182
   14CHL1  H19B 1004   0.576   5.557  10.168  1.9490 -0.0593  1.8945
   14CHL1  H19C 1005   0.673   5.435  10.247  0.9823  2.4807 -0.2845
   14CHL1    C1 1006   0.389   5.399  10.291 -0.4553  0.0988  0.6409
   14CHL1   H1A 1007   0.353   5.502  10.266  3.4487  1.2912 -0.8542
   14CHL1   H1B 1008   0.303   5.330  10.281 -1.5577  1.6809 -1.9395
   14CHL1    C2 1009   0.454   5.401  10.431  0.9516 -0.3379 -0.3904
   14CHL1   H2A 1010   0.369   5.436  10.493 -0.1842 -3.5108 -0.0050
   14CHL1   H2B 1011   0.545   5.464  10.447  0.2944  0.1254  1.8900
   14CHL1   C20 1012   0.289   5.481   9.508  0.9133  0.3244  0.0217
   14CHL1   H20 1013   0.392   5.499   9.469  0.1372  1.1479 -1.7742
   14CHL1   C21 1014   0.239   5.623   9.561  0.2402 -0.6510 -0.4385
   14CHL1  H21A 1015   0.311   5.679   9.624 -2.1370  2.3585 -0.1588
   14CHL1  H21B 1016   0.144   5.620   9.620  1.2847  1.0236  1.4526
   14CHL1  H21C 1017   0.218   5.686   9.473  0.3562 -0.1029 -0.0753
   14CHL1   C22 1018   0.204   5.439   9.382 -0.3931  0.3184 -0.2295
   14CHL1  H22A 1019   0.235   5.335   9.359 -0.9712  0.2663 -0.7999
   14CHL1  H22B 1020   0.097   5.441   9.411 -0.2897 -0.8918  0.2769
   14CHL1   C23 1021   0.235   5.516   9.258  0.1443  0.4408 -0.0318
   14CHL1  H23A 1022   0.195   5.617   9.277  0.7804  0.6453  0.2391
   14CHL1  H23B 1023   0.346   5.529   9.254  0.3165 -1.0661 -1.1902
   14CHL1   C24 1024   0.156   5.464   9.138 -0.6023 -0.1394 -0.0839
   14CHL1  H24A 1025   0.171   5.358   9.107  3.2462  0.7252 -1.7251
   14CHL1  H24B 1026   0.047   5.477   9.158 -0.7632 -2.3611  0.7702
   14CHL1   C25 1027   0.201   5.550   9.007 -0.0328  0.7811 -0.1590
   14CHL1   H25 1028   0.189   5.654   9.045 -0.4508  1.1035 -1.1614
   14CHL1   C26 1029   0.353   5.533   8.959  0.5361 -0.1301  0.2710
   14CHL1  H26A 1030   0.382   5.605   8.879 -0.4617  0.0791  0.0869
   14CHL1  H26B 1031   0.422   5.543   9.046  1.8995 -0.9784 -0.6694
   14CHL1  H26C 1032   0.374   5.438   8.907 -1.1890 -0.7368  0.6181
   14CHL1   C27 1033   0.106   5.535   8.888 -0.4071  0.2986 -0.2496
   14CHL1  H27A 1034   0.134   5.444   8.831  1.0681  1.0666 -0.8186
   14CHL1  H27B 1035  -0.002   5.542   8.913 -0.6268 -0.4208 -0.9780
   14CHL1  H27C 1036   0.117   5.617   8.813 -0.4303  0.6264  0.0988
   15CHL1    C3 1037   6.708   4.339  10.156 -0.4374  0.1109 -0.5320
   15CHL1    H3 1038   6.742   4.442  10.136 -0.1235  0.1279  0.0652
   15CHL1    O3 1039   6.677   4.313  10.293 -0.0593  0.6068 -0.6213
   15CHL1   H3' 1040   6.617   4.386  10.310 -2.0043 -0.5718 -1.9714
   15CHL1    C4 1041   6.572   4.322  10.078 -0.2545 -1.0120 -0.5446
   15CHL1   H4A 1042   6.518   4.232  10.112  1.0357 -1.8411 -0.6245
   15CHL1   H4B 1043   6.518   4.413  10.114  2.7770  0.1733  1.4367
   15CHL1    C5 1044   6.599   4.325   9.925 -0.3777  0.3596  0.5190
   15CHL1    C6 1045   6.543   4.414   9.847  0.0580  0.4072  0.3463
   15CHL1    H6 1046   6.467   4.475   9.898  0.4098  0.4250  0.8587
   15CHL1    C7 1047   6.548   4.419   9.696 -0.2166  0.5689  0.1894
   15CHL1   H7A 1048   6.448   4.418   9.647 -0.9368  0.4191  1.6116
   15CHL1   H7B 1049   6.598   4.508   9.653 -1.6166  1.6351  0.6916
   15CHL1    C8 1050   6.613   4.288   9.643  0.3358 -0.4506  0.0748
   15CHL1    H8 1051   6.535   4.208   9.643 -1.0308  0.7446 -2.5744
   15CHL1   C14 1052   6.652   4.301   9.499 -0.1761 -0.1200  0.0482
   15CHL1   H14 1053   6.731   4.379   9.502  0.8716 -1.1796  2.7675
   15CHL1   C15 1054   6.552   4.358   9.398 -0.1542  0.3422 -0.2541
   15CHL1  H15A 1055   6.455   4.305   9.405  1.3755 -2.4418  1.8614
   15CHL1  H15B 1056   6.545   4.469   9.403  1.0629  0.6195 -2.8748
   15CHL1   C16 1057   6.610   4.324   9.253  0.2781 -0.3654  0.5322
   15CHL1  H16A 1058   6.530   4.272   9.195  0.3561 -1.3667  1.3105
   15CHL1  H16B 1059   6.642   4.422   9.211 -1.5249 -0.0668 -0.2151
   15CHL1   C17 1060   6.723   4.224   9.285  0.1669 -0.7099  0.3507
   15CHL1   H17 1061   6.807   4.296   9.288 -1.8894  1.8021  1.7792
   15CHL1   C13 1062   6.714   4.180   9.435  0.1647  0.0523  0.9657
   15CHL1   C18 1063   6.620   4.057   9.439  0.2490  0.3823  0.3863
   15CHL1  H18A 1064   6.656   3.981   9.366  0.5099  0.1333  0.7723
   15CHL1  H18B 1065   6.619   4.014   9.541  1.2177  1.6611  0.9564
   15CHL1  H18C 1066   6.516   4.089   9.417  0.5775  1.2206  0.0425
   15CHL1   C12 1067   6.856   4.156   9.502 -0.2945 -0.3492 -0.1715
   15CHL1  H12A 1068   6.908   4.065   9.467  0.9465  0.1459  0.3525
   15CHL1  H12B 1069   6.925   4.243   9.500  0.3995 -0.8177  1.5807
   15CHL1   C11 1070   6.828   4.130   9.655  0.7732  0.0418  1.2238
   15CHL1  H11A 1071   6.783   4.029   9.665  0.4744  0.2889  2.4687
   15CHL1  H11B 1072   6.929   4.116   9.698  0.5661 -3.3048  0.8459
   15CHL1    C9 1073   6.739   4.243   9.720 -0.5628 -0.2529 -0.3146
   15CHL1    H9 1074   6.810   4.328   9.714 -1.0705  0.3309  1.4309
   15CHL1   C10 1075   6.705   4.226   9.874 -0.1492  0.2365  0.4589
   15CHL1   C19 1076   6.638   4.085   9.900 -0.4007  0.3538 -0.4721
   15CHL1  H19A 1077   6.616   4.066  10.007  0.1147 -1.8669 -0.7177
   15CHL1  H19B 1078   6.543   4.081   9.844 -0.9838  0.4513  0.4863
   15CHL1  H19C 1079   6.704   4.000   9.872  0.8955  1.2471 -0.2271
   15CHL1    C1 1080   6.840   4.247   9.956 -0.4362  0.2911 -0.5243
   15CHL1   H1A 1081   6.910   4.165   9.931  0.4003  0.2766  1.6157
   15CHL1   H1B 1082   6.896   4.340   9.932 -1.2794  1.4045  1.5171
   15CHL1    C2 1083   6.815   4.234  10.110 -0.0841 -0.4949  0.2442
   15CHL1   H2A 1084   6.901   4.250  10.178 -1.6911 -0.3011  2.2993
   15CHL1   H2B 1085   6.780   4.130  10.123 -1.3771 -0.5458 -2.7212
   15CHL1   C20 1086   6.745   4.118   9.175  0.3547  0.0323 -0.1736
   15CHL1   H20 1087   6.649   4.061   9.182 -0.2797  1.0626 -0.3303
   15CHL1   C21 1088   6.860   4.026   9.208 -0.0084  0.6268 -0.6072
   15CHL1  H21A 1089   6.879   3.954   9.126 -0.5119 -2.1399  1.5393
   15CHL1  H21B 1090   6.827   3.970   9.298  4.2203  0.5085  1.0801
   15CHL1  H21C 1091   6.955   4.081   9.227  0.9584 -1.6730  1.7707
   15CHL1   C22 1092   6.768   4.161   9.028 -0.1360  0.1307 -0.2756
   15CHL1  H22A 1093   6.794   4.072   8.967 -1.7711 -0.1355 -0.6488
   15CHL1  H22B 1094   6.677   4.212   8.989  0.9632  0.4112 -2.6553
   15CHL1   C23 1095   6.872   4.272   9.010  0.6278  0.1835  0.2745
   15CHL1  H23A 1096   6.829   4.358   9.067  0.1508 -0.8710  1.5689
   15CHL1  H23B 1097   6.972   4.234   9.038 -1.1825 -5.1967  0.6749
   15CHL1   C24 1098   6.882   4.318   8.868  0.7206 -0.5419 -0.2097
   15CHL1  H24A 1099   6.914   4.223   8.820  0.4195 -0.6603 -0.1823
   15CHL1  H24B 1100   6.780   4.339   8.829  0.7086  1.6300  0.8678
   15CHL1   C25 1101   6.992   4.423   8.849  0.1947 -0.1649 -0.2959
   15CHL1   H25 1102   6.979   4.518   8.905  1.3881 -0.8544  1.2247
   15CHL1   C26 1103   7.131   4.367   8.883 -0.2752  0.0015 -0.8888
   15CHL1  H26A 1104   7.134   4.326   8.986  0.1064  0.3503 -0.7530
   15CHL1  H26B 1105   7.160   4.285   8.814 -0.9953 -0.8556 -0.1847
   15CHL1  H26C 1106   7.204   4.451   8.875 -1.4872  1.3150  1.0677
   15CHL1   C27 1107   6.985   4.455   8.695 -0.3018  0.5210 -0.1189
   15CHL1  H27A 1108   6.886   4.493   8.660 -1.0149 -0.5062  0.6948
   15CHL1  H27B 1109   7.057   4.536   8.672 -1.7229  1.4654 -1.4830
   15CHL1  H27C 1110   7.025   4.375   8.630  0.5929 -1.0734  2.2505
   16CHL1    C3 1111   1.408   5.074  10.534 -0.2031 -0.0538 -0.0017
   16CHL1    H3 1112   1.318   5.140  10.534  0.1143  0.3988 -0.9379
   16CHL1    O3 1113   1.406   5.009  10.656 -0.6744  0.9387  0.0808
   16CHL1   H3' 1114   1.494   4.971  10.663  0.2550  2.7013 -1.2858
   16CHL1    C4 1115   1.398   4.969  10.424  0.1025 -0.3858 -0.1647
   16CHL1   H4A 1116   1.481   4.896  10.439 -1.5766 -2.4812 -0.5700
   16CHL1   H4B 1117   1.304   4.911  10.438  0.5226 -0.7507  1.3108
   16CHL1    C5 1118   1.406   5.039  10.291  0.3932  0.7473  0.1211
   16CHL1    C6 1119   1.304   5.028  10.193  0.4088 -0.2296  0.0168
   16CHL1    H6 1120   1.205   4.985  10.213 -0.3966  1.8550  0.7338
   16CHL1    C7 1121   1.320   5.084  10.056  0.0937  0.1565  0.1482
   16CHL1   H7A 1122   1.261   5.025   9.982 -1.2749  0.5727  0.8640
   16CHL1   H7B 1123   1.274   5.185  10.061  2.5696  1.3095  1.2525
   16CHL1    C8 1124   1.467   5.102  10.013  0.4384 -0.3560  0.0594
   16CHL1    H8 1125   1.512   5.000  10.009  0.2455 -0.4201 -0.4385
   16CHL1   C14 1126   1.471   5.165   9.877 -0.4125 -0.2849  0.0459
   16CHL1   H14 1127   1.424   5.266   9.879  0.9179  0.4846 -2.2194
   16CHL1   C15 1128   1.410   5.090   9.757 -0.8170 -0.1294  0.1944
   16CHL1  H15A 1129   1.443   4.984   9.750 -1.3258 -0.3605  1.0639
   16CHL1  H15B 1130   1.299   5.088   9.749 -1.0867  3.0645  1.4809
   16CHL1   C16 1131   1.469   5.155   9.638 -0.7630  0.0211 -0.3878
   16CHL1  H16A 1132   1.515   5.085   9.565  0.4511 -0.7697  1.0534
   16CHL1  H16B 1133   1.389   5.214   9.588 -0.5018  0.7451  0.0237
   16CHL1   C17 1134   1.583   5.254   9.684  0.6412  0.0208 -0.4259
   16CHL1   H17 1135   1.530   5.352   9.688  3.0028  1.3399  2.2827
   16CHL1   C13 1136   1.611   5.205   9.834  0.0161 -0.3928  0.7636
   16CHL1   C18 1137   1.700   5.079   9.822 -0.0108 -0.8209  0.0669
   16CHL1  H18A 1138   1.706   5.021   9.917  1.2715 -0.1118  0.4536
   16CHL1  H18B 1139   1.663   5.018   9.738 -2.1124  0.3968  0.0318
   16CHL1  H18C 1140   1.805   5.105   9.794 -0.3665 -0.3826 -0.8783
   16CHL1   C12 1141   1.672   5.303   9.936  0.1127  0.3116 -0.1235
   16CHL1  H12A 1142   1.776   5.327   9.908  0.5180 -1.1924  0.0454
   16CHL1  H12B 1143   1.612   5.397   9.937  1.0781  0.9422 -0.6023
   16CHL1   C11 1144   1.664   5.260  10.082 -0.4133 -0.2399 -0.2071
   16CHL1  H11A 1145   1.750   5.191  10.093  1.0307  1.1304 -2.1757
   16CHL1  H11B 1146   1.682   5.344  10.153  0.2604  0.4690 -1.1827
   16CHL1    C9 1147   1.532   5.180  10.126 -0.3976 -0.1870 -0.0344
   16CHL1    H9 1148   1.460   5.263  10.139 -0.7548 -0.4328 -0.4445
   16CHL1   C10 1149   1.535   5.109  10.265 -0.4769 -0.8910 -1.1985
   16CHL1   C19 1150   1.648   5.004  10.265 -0.4794  0.7878  0.1968
   16CHL1  H19A 1151   1.658   4.965  10.368 -1.7338 -0.2722 -0.0523
   16CHL1  H19B 1152   1.607   4.922  10.201 -1.0932  1.8729 -0.8466
   16CHL1  H19C 1153   1.742   5.057  10.238 -1.2836  2.0612 -0.2278
   16CHL1    C1 1154   1.550   5.208  10.378 -0.3009 -0.6822  0.5739
   16CHL1   H1A 1155   1.648   5.258  10.390 -1.1699  1.1064  0.5000
   16CHL1   H1B 1156   1.470   5.284  10.364  1.4568  0.7750 -2.3115
   16CHL1    C2 1157   1.536   5.155  10.513  0.0319 -0.4077  0.0122
   16CHL1   H2A 1158   1.541   5.235  10.590  0.4222 -0.7796  0.3769
   16CHL1   H2B 1159   1.632   5.102  10.530  1.0133  1.2746 -0.0067
   16CHL1   C20 1160   1.697   5.268   9.580 -0.0994  0.5718 -0.4254
   16CHL1   H20 1161   1.747   5.171   9.561  1.8198  1.3089  0.6186
   16CHL1   C21 1162   1.803   5.360   9.650  0.1523  0.2859 -1.0617
   16CHL1  H21A 1163   1.844   5.307   9.739 -0.9336  0.3319 -0.5143
   16CHL1  H21B 1164   1.761   5.458   9.683 -0.9991 -0.5258 -0.0309
   16CHL1  H21C 1165   1.885   5.379   9.579  1.8317 -2.9667 -0.1542
   16CHL1   C22 1166   1.651   5.335   9.451 -0.4005 -0.6810 -0.2402
   16CHL1  H22A 1167   1.542   5.329   9.431 -0.6141  0.2698  0.5300
   16CHL1  H22B 1168   1.671   5.444   9.457  0.4855 -0.7214 -1.8274
   16CHL1   C23 1169   1.736   5.290   9.331 -0.3991 -0.6793  0.0741
   16CHL1  H23A 1170   1.844   5.297   9.353 -0.6486 -0.6462  1.3584
   16CHL1  H23B 1171   1.722   5.182   9.311 -0.3597 -0.1715 -3.1920
   16CHL1   C24 1172   1.707   5.374   9.205 -0.5257 -0.3480 -0.6927
   16CHL1  H24A 1173   1.598   5.363   9.188 -0.8503  1.6115 -0.1636
   16CHL1  H24B 1174   1.734   5.481   9.218  1.9100 -1.0057  0.2565
   16CHL1   C25 1175   1.772   5.316   9.073 -0.3751 -0.1174 -0.3521
   16CHL1   H25 1176   1.736   5.211   9.076 -2.3566  0.5127 -0.4197
   16CHL1   C26 1177   1.719   5.377   8.948 -0.3082  0.1153 -0.2943
   16CHL1  H26A 1178   1.744   5.485   8.948 -0.1093  0.0852 -1.6380
   16CHL1  H26B 1179   1.766   5.325   8.862  1.0250 -0.2920  0.6531
   16CHL1  H26C 1180   1.608   5.368   8.948 -0.2102 -2.5973  2.0190
   16CHL1   C27 1181   1.932   5.324   9.079  1.0053  0.0678 -0.0932
   16CHL1  H27A 1182   1.972   5.293   8.981 -0.3377  0.6617 -0.8547
   16CHL1  H27B 1183   1.962   5.425   9.115 -0.4527  0.8380 -0.9485
   16CHL1  H27C 1184   1.961   5.247   9.154 -0.1651  0.0876  0.3984
   17CHL1    C3 1185   3.975   1.566  10.550  0.2469 -0.3090  0.6970
   17CHL1    H3 1186   4.028   1.663  10.552 -0.8131  0.2622  1.6779
   17CHL1    O3 1187   3.953   1.521  10.679 -0.0073 -0.2792 -0.0513
   17CHL1   H3' 1188   3.920   1.434  10.658 -3.9675  0.3997  2.4167
   17CHL1    C4 1189   3.836   1.584  10.480  0.8794 -0.0028 -0.0806
   17CHL1   H4A 1190   3.781   1.487  10.485  1.7072 -0.4554  0.4875
   17CHL1   H4B 1191   3.786   1.658  10.546  3.4521  0.0961  1.9280
   17CHL1    C5 1192   3.850   1.628  10.339 -0.1938  0.2048  0.7069
   17CHL1    C6 1193   3.791   1.739  10.286  0.5345  0.1697 -0.2768
   17CHL1    H6 1194   3.738   1.805  10.356  0.7252  0.3950 -0.3437
   17CHL1    C7 1195   3.806   1.768  10.137 -0.0087 -0.1610 -0.3097
   17CHL1   H7A 1196   3.707   1.806  10.103 -0.9330 -1.5511  0.6907
   17CHL1   H7B 1197   3.879   1.850  10.121  0.0219 -0.0673  0.3060
   17CHL1    C8 1198   3.856   1.649  10.049  0.7622 -0.0830 -0.0724
   17CHL1    H8 1199   3.774   1.575  10.038  1.6972 -0.8889 -2.2220
   17CHL1   C14 1200   3.876   1.706   9.906 -0.5754  0.1084 -0.4148
   17CHL1   H14 1201   3.949   1.787   9.925  0.2325 -0.6971  0.0306
   17CHL1   C15 1202   3.760   1.782   9.830 -0.1852 -0.1584 -0.2604
   17CHL1  H15A 1203   3.660   1.734   9.840  0.8474 -2.3500  0.2260
   17CHL1  H15B 1204   3.745   1.890   9.851 -0.8552 -0.0734 -1.0874
   17CHL1   C16 1205   3.808   1.773   9.683  0.2320 -0.1520  0.8145
   17CHL1  H16A 1206   3.740   1.705   9.627 -0.8281  2.7335 -1.6918
   17CHL1  H16B 1207   3.826   1.869   9.630 -0.1278  0.6670  2.1560
   17CHL1   C17 1208   3.944   1.688   9.689  0.3764 -0.4425 -0.0235
   17CHL1   H17 1209   4.014   1.772   9.705 -1.4165  1.1996 -0.4380
   17CHL1   C13 1210   3.936   1.602   9.811  0.4520 -0.6354 -0.3191
   17CHL1   C18 1211   3.839   1.485   9.790  0.2702 -0.3917 -0.3391
   17CHL1  H18A 1212   3.892   1.417   9.720  1.5426 -1.1766  1.2959
   17CHL1  H18B 1213   3.819   1.429   9.884  0.1117  1.8149  1.0116
   17CHL1  H18C 1214   3.738   1.501   9.749 -0.5015 -0.5016  1.4097
   17CHL1   C12 1215   4.071   1.568   9.865  0.2761  0.0911  0.8318
   17CHL1  H12A 1216   4.125   1.488   9.810 -0.4368  1.3573 -1.8947
   17CHL1  H12B 1217   4.129   1.662   9.876  0.1756  0.5011 -1.6150
   17CHL1   C11 1218   4.047   1.493  10.003  0.5246  0.3037  0.7363
   17CHL1  H11A 1219   3.987   1.401   9.992  1.6538 -0.6863  2.3257
   17CHL1  H11B 1220   4.145   1.456  10.041 -0.3223  0.1924  2.9142
   17CHL1    C9 1221   3.980   1.592  10.110  0.1151 -0.7441  0.1244
   17CHL1    H9 1222   4.044   1.679  10.133 -2.7126  1.7637 -0.8340
   17CHL1   C10 1223   3.941   1.538  10.252 -0.6164  0.3681  0.7506
   17CHL1   C19 1224   3.866   1.403  10.236 -0.2015 -0.2590  0.2533
   17CHL1  H19A 1225   3.810   1.364  10.323 -1.3821 -3.1797 -1.6676
   17CHL1  H19B 1226   3.777   1.413  10.170 -0.6881  0.3942  0.9999
   17CHL1  H19C 1227   3.937   1.325  10.201  0.2223  1.0565 -2.0438
   17CHL1    C1 1228   4.080   1.516  10.329 -0.0058 -1.4317 -0.1204
   17CHL1   H1A 1229   4.157   1.460  10.271 -0.9044 -2.4374 -0.3826
   17CHL1   H1B 1230   4.128   1.614  10.351 -2.6386 -0.1356  0.2346
   17CHL1    C2 1231   4.062   1.469  10.470 -1.0099  0.6874 -0.4723
   17CHL1   H2A 1232   4.160   1.461  10.520 -1.7557  2.2649  1.3755
   17CHL1   H2B 1233   4.011   1.370  10.479  1.2189 -0.5117 -0.4225
   17CHL1   C20 1234   3.971   1.625   9.545  0.6394 -0.2823  0.3303
   17CHL1   H20 1235   3.924   1.525   9.548 -1.2553  0.4988 -1.1492
   17CHL1   C21 1236   4.121   1.604   9.536  0.3923  0.4478 -0.0186
   17CHL1  H21A 1237   4.167   1.700   9.502 -0.1173  0.5235 -0.5013
   17CHL1  H21B 1238   4.157   1.533   9.458 -0.1533  1.2027 -0.9796
   17CHL1  H21C 1239   4.169   1.583   9.634 -1.5789 -2.0757  0.4974
   17CHL1   C22 1240   3.914   1.704   9.418 -0.0248  0.2182 -0.0298
   17CHL1  H22A 1241   3.803   1.700   9.414 -0.0612 -0.1655  0.9999
   17CHL1  H22B 1242   3.931   1.813   9.430 -3.5890  0.8839 -0.0078
   17CHL1   C23 1243   3.968   1.643   9.282 -0.5958 -1.2565 -0.0841
   17CHL1  H23A 1244   4.071   1.677   9.259 -1.0947  0.5544  0.2338
   17CHL1  H23B 1245   3.975   1.532   9.278  1.8186 -1.1284 -1.3687
   17CHL1   C24 1246   3.880   1.695   9.167  0.0285 -0.4695 -0.0456
   17CHL1  H24A 1247   3.776   1.659   9.181  1.1280 -3.5177  1.1276
   17CHL1  H24B 1248   3.877   1.806   9.170  0.1724 -0.4365 -0.9149
   17CHL1   C25 1249   3.924   1.647   9.023  0.1657  0.6539 -0.2566
   17CHL1   H25 1250   4.034   1.654   9.029  0.0467  1.2087  3.7520
   17CHL1   C26 1251   3.883   1.506   9.007 -0.0848  0.7608 -0.0390
   17CHL1  H26A 1252   3.775   1.479   9.000 -0.2505  1.5494 -0.7033
   17CHL1  H26B 1253   3.931   1.457   8.920 -0.6951 -1.2715  0.7072
   17CHL1  H26C 1254   3.922   1.444   9.091 -0.6819  1.7609  1.0014
   17CHL1   C27 1255   3.863   1.731   8.910  0.6226 -0.2628  0.4224
   17CHL1  H27A 1256   3.894   1.678   8.817 -3.2346  0.4432 -1.5093
   17CHL1  H27B 1257   3.752   1.736   8.900  0.5371  1.4397  1.9240
   17CHL1  H27C 1258   3.891   1.838   8.908 -2.1645  0.5573 -1.0205
   18CHL1    C3 1259   2.236   0.653  10.336  0.2590 -0.1134 -0.8289
   18CHL1    H3 1260   2.329   0.681  10.282 -0.0138 -0.0097 -1.2466
   18CHL1    O3 1261   2.239   0.711  10.468 -0.1248 -0.9070 -0.2738
   18CHL1   H3' 1262   2.149   0.706  10.500 -0.3836 -1.5418 -1.0694
   18CHL1    C4 1263   2.110   0.714  10.279  0.0094  0.4534 -0.2397
   18CHL1   H4A 1264   2.017   0.693  10.336 -0.7556  0.0831 -1.5749
   18CHL1   H4B 1265   2.135   0.822  10.280  1.6973  0.0987 -0.7895
   18CHL1    C5 1266   2.081   0.668  10.141  0.5065 -0.1196  0.5440
   18CHL1    C6 1267   2.074   0.756  10.039 -0.6491  1.1359  0.0000
   18CHL1    H6 1268   2.088   0.862  10.066  0.8637  0.3777  2.5817
   18CHL1    C7 1269   2.048   0.708   9.898  0.7625 -0.0221  0.7772
   18CHL1   H7A 1270   1.976   0.773   9.844  1.7507 -0.7670 -1.5669
   18CHL1   H7B 1271   2.140   0.720   9.835  0.2063 -0.5615 -0.1667
   18CHL1    C8 1272   1.995   0.564   9.886  0.3389 -0.3156 -0.2478
   18CHL1    H8 1273   1.892   0.549   9.923  0.5182 -0.2277  0.2935
   18CHL1   C14 1274   2.004   0.530   9.740  0.4624  0.8531  0.1530
   18CHL1   H14 1275   2.111   0.546   9.711  1.6562 -2.2683  2.2719
   18CHL1   C15 1276   1.931   0.611   9.631 -0.6951  0.3782 -0.3457
   18CHL1  H15A 1277   1.823   0.613   9.657 -0.5998  0.5660  0.0345
   18CHL1  H15B 1278   1.961   0.717   9.612 -1.8117  0.4889 -1.6788
   18CHL1   C16 1279   1.960   0.529   9.500 -0.3058 -0.7576 -0.0785
   18CHL1  H16A 1280   1.874   0.529   9.429  0.5114 -0.6533 -1.0893
   18CHL1  H16B 1281   2.043   0.584   9.451 -0.9040  2.9370  2.6599
   18CHL1   C17 1282   2.018   0.395   9.541  0.5687  0.3115  0.2368
   18CHL1   H17 1283   2.129   0.397   9.534  0.6791  2.0438  1.6151
   18CHL1   C13 1284   1.985   0.379   9.691 -0.2116 -0.0035  0.2655
   18CHL1   C18 1285   1.839   0.334   9.718 -0.2867 -0.2133  0.4646
   18CHL1  H18A 1286   1.768   0.407   9.674  1.1435 -0.3409 -2.2429
   18CHL1  H18B 1287   1.815   0.236   9.671  0.2169  0.0868 -0.4375
   18CHL1  H18C 1288   1.827   0.332   9.829  0.4493  1.9593  0.6313
   18CHL1   C12 1289   2.094   0.292   9.778 -0.0328  0.5812 -0.2675
   18CHL1  H12A 1290   2.082   0.184   9.754 -0.1704  0.5665 -0.1324
   18CHL1  H12B 1291   2.194   0.331   9.750 -0.1516  1.8025  0.9110
   18CHL1   C11 1292   2.076   0.320   9.932 -0.4087 -0.0270  0.4919
   18CHL1  H11A 1293   1.984   0.267   9.968 -0.5341 -0.2210 -0.1102
   18CHL1  H11B 1294   2.163   0.275   9.984  1.4646  0.8078 -1.7635
   18CHL1    C9 1295   2.095   0.471   9.972  0.5415  0.4679 -0.1491
   18CHL1    H9 1296   2.201   0.486   9.943  1.6489  0.5566  3.4456
   18CHL1   C10 1297   2.087   0.514  10.123  0.3474  0.0189 -0.8990
   18CHL1   C19 1298   1.957   0.448  10.182  0.4902 -0.0387 -0.4097
   18CHL1  H19A 1299   1.961   0.464  10.292 -1.2779 -1.7256 -0.0464
   18CHL1  H19B 1300   1.869   0.497  10.137 -1.0740 -0.3998  2.0463
   18CHL1  H19C 1301   1.945   0.337  10.174 -0.5580  0.1352 -1.4185
   18CHL1    C1 1302   2.207   0.451  10.204  0.3488  0.3025  0.6561
   18CHL1   H1A 1303   2.184   0.342  10.213  0.2637  0.2213 -0.3865
   18CHL1   H1B 1304   2.303   0.457  10.148  1.0597  1.3534  1.9211
   18CHL1    C2 1305   2.238   0.502  10.343  0.2808 -0.1410 -0.0963
   18CHL1   H2A 1306   2.331   0.453  10.378 -0.1278 -1.4323 -0.7631
   18CHL1   H2B 1307   2.160   0.471  10.417 -0.5105  1.2950 -0.2821
   18CHL1   C20 1308   1.981   0.276   9.449 -0.0076 -0.0852  0.5964
   18CHL1   H20 1309   1.871   0.259   9.450 -0.1211  0.6088  0.7786
   18CHL1   C21 1310   2.045   0.138   9.494  0.7092 -1.4281 -0.0087
   18CHL1  H21A 1311   2.155   0.147   9.498  0.5601  1.0896 -0.0653
   18CHL1  H21B 1312   2.014   0.068   9.414 -0.0411 -1.0397 -0.0754
   18CHL1  H21C 1313   2.004   0.098   9.589 -0.2827  1.8382  1.0976
   18CHL1   C22 1314   2.020   0.306   9.300  0.0421 -0.1368  0.5937
   18CHL1  H22A 1315   1.971   0.399   9.265 -1.0342 -1.5345 -1.8657
   18CHL1  H22B 1316   2.129   0.316   9.287 -0.1130 -0.9589 -1.6978
   18CHL1   C23 1317   1.964   0.206   9.193 -0.0766 -0.0522 -0.1268
   18CHL1  H23A 1318   1.999   0.252   9.098  1.3569  1.2318  0.9705
   18CHL1  H23B 1319   2.008   0.107   9.216  0.0360 -0.0296 -0.2428
   18CHL1   C24 1320   1.819   0.177   9.197 -0.1806 -0.0314 -0.3653
   18CHL1  H24A 1321   1.799   0.100   9.276  0.2145 -0.1294 -0.3609
   18CHL1  H24B 1322   1.766   0.271   9.224 -0.2070  0.7274 -2.8470
   18CHL1   C25 1323   1.744   0.128   9.072 -0.0849 -0.4733  1.3790
   18CHL1   H25 1324   1.745   0.204   8.992  1.4453 -1.2412  0.6182
   18CHL1   C26 1325   1.801   0.006   9.001  0.0220 -0.9925  0.0274
   18CHL1  H26A 1326   1.775  -0.087   9.056 -1.2237  0.3722  1.8455
   18CHL1  H26B 1327   1.754  -0.001   8.900  0.1598  0.7746 -0.1985
   18CHL1  H26C 1328   1.911   0.024   8.991  0.0440 -1.7617 -1.4137
   18CHL1   C27 1329   1.600   0.098   9.113  0.1726  0.7268 -0.2231
   18CHL1  H27A 1330   1.543   0.060   9.026  2.5956  1.7341 -2.3615
   18CHL1  H27B 1331   1.597   0.026   9.197 -0.1737  2.2474  1.1269
   18CHL1  H27C 1332   1.539   0.185   9.146  0.9792  0.9567  0.7220
   19CHL1    C3 1333   6.386   3.517  10.169 -0.4009  0.5934 -0.0107
   19CHL1    H3 1334   6.325   3.425  10.156  0.8122 -0.5880  2.1324
   19CHL1    O3 1335   6.394   3.558  10.304 -0.0978  0.2236  0.2426
   19CHL1   H3' 1336   6.460   3.627  10.313 -1.4619  1.3571  2.4849
   19CHL1    C4 1337   6.530   3.483  10.112 -0.1209  0.0429 -0.5180
   19CHL1   H4A 1338   6.597   3.568  10.141 -0.6419  0.9111 -1.7530
   19CHL1   H4B 1339   6.567   3.397  10.171  1.0093 -0.1592 -1.4710
   19CHL1    C5 1340   6.520   3.449   9.965  0.6104  0.0417  0.4958
   19CHL1    C6 1341   6.564   3.330   9.919  0.2482 -0.3200  0.2688
   19CHL1    H6 1342   6.600   3.248   9.983 -0.6741  0.2811  1.5960
   19CHL1    C7 1343   6.566   3.298   9.769  0.5455  0.3773  0.0530
   19CHL1   H7A 1344   6.661   3.248   9.743  0.2055  0.0304 -0.5610
   19CHL1   H7B 1345   6.482   3.230   9.741 -1.1634  1.5718  2.0246
   19CHL1    C8 1346   6.548   3.428   9.679  0.5576  0.3684 -0.2632
   19CHL1    H8 1347   6.647   3.475   9.695  0.7781 -0.0514 -0.3673
   19CHL1   C14 1348   6.528   3.393   9.538 -0.1920  0.6293  0.8281
   19CHL1   H14 1349   6.446   3.318   9.538 -0.0037  0.3402 -1.3689
   19CHL1   C15 1350   6.642   3.302   9.471  0.0658 -0.5650  0.2279
   19CHL1  H15A 1351   6.743   3.334   9.504 -0.3374  0.7592  0.2369
   19CHL1  H15B 1352   6.638   3.199   9.510 -0.7867 -0.6012  0.0676
   19CHL1   C16 1353   6.623   3.321   9.321  0.4782 -0.6277 -0.5601
   19CHL1  H16A 1354   6.722   3.351   9.281  1.3895 -1.2905  1.1104
   19CHL1  H16B 1355   6.587   3.221   9.288 -0.2393 -0.4432 -0.3434
   19CHL1   C17 1356   6.509   3.432   9.306  0.0292  0.1298 -0.3404
   19CHL1   H17 1357   6.414   3.374   9.310  0.1159 -0.0276 -0.5171
   19CHL1   C13 1358   6.502   3.505   9.444  0.1009 -0.4168  0.2428
   19CHL1   C18 1359   6.616   3.615   9.441 -0.0964 -0.5589 -0.0728
   19CHL1  H18A 1360   6.629   3.676   9.534  1.1163  0.7679 -1.0618
   19CHL1  H18B 1361   6.715   3.568   9.422  0.2661  0.0261  0.3177
   19CHL1  H18C 1362   6.590   3.686   9.360  1.3706  0.0320 -0.0730
   19CHL1   C12 1363   6.368   3.567   9.486 -0.7995  0.0452 -0.4503
   19CHL1  H12A 1364   6.339   3.648   9.415  1.0467  0.4893 -0.7591
   19CHL1  H12B 1365   6.294   3.484   9.488 -0.3863 -0.3696 -1.7048
   19CHL1   C11 1366   6.374   3.617   9.634  0.0610  0.1086  1.0222
   19CHL1  H11A 1367   6.448   3.699   9.644 -0.8917  1.3231 -1.1891
   19CHL1  H11B 1368   6.276   3.648   9.677 -0.6059 -0.5167 -0.0242
   19CHL1    C9 1369   6.432   3.510   9.733  0.0586  0.2802 -0.0429
   19CHL1    H9 1370   6.351   3.435   9.749  0.2766  0.1956  0.7147
   19CHL1   C10 1371   6.457   3.559   9.877  0.1682  0.1011 -0.2491
   19CHL1   C19 1372   6.560   3.679   9.880 -0.2115  0.8639 -0.3909
   19CHL1  H19A 1373   6.591   3.703   9.984  2.1029 -0.2133 -0.7626
   19CHL1  H19B 1374   6.654   3.650   9.829 -0.2402  0.9115 -0.4704
   19CHL1  H19C 1375   6.521   3.772   9.833 -0.3644 -0.0049 -2.0432
   19CHL1    C1 1376   6.327   3.613   9.937  0.0721 -0.4505  0.1246
   19CHL1   H1A 1377   6.273   3.699   9.891  0.8185  0.7478  1.3780
   19CHL1   H1B 1378   6.252   3.532   9.922  0.7719 -0.6203 -3.2739
   19CHL1    C2 1379   6.330   3.639  10.093  0.5737 -0.4904 -0.4376
   19CHL1   H2A 1380   6.226   3.661  10.126  0.2869 -3.5312  1.0621
   19CHL1   H2B 1381   6.393   3.726  10.122  0.0574  0.3396 -1.7292
   19CHL1   C20 1382   6.524   3.500   9.173  0.6899 -0.2039 -0.3647
   19CHL1   H20 1383   6.619   3.558   9.181  1.0196 -0.7281 -0.4494
   19CHL1   C21 1384   6.405   3.590   9.160  0.9391  0.1212  0.8476
   19CHL1  H21A 1385   6.414   3.688   9.212 -1.8191  0.3900  0.9287
   19CHL1  H21B 1386   6.314   3.543   9.204 -0.6395  1.6887 -0.6291
   19CHL1  H21C 1387   6.382   3.613   9.054 -0.3950  2.4387  1.5713
   19CHL1   C22 1388   6.533   3.401   9.051 -0.2359  0.3567  0.1016
   19CHL1  H22A 1389   6.626   3.344   9.070  0.2560  1.6163  1.7903
   19CHL1  H22B 1390   6.455   3.323   9.060  1.3569 -1.3099 -0.1211
   19CHL1   C23 1391   6.522   3.456   8.905 -0.5162 -0.1747 -0.2036
   19CHL1  H23A 1392   6.415   3.484   8.896 -0.9312 -1.5425  0.2096
   19CHL1  H23B 1393   6.594   3.541   8.899 -2.7244  1.9698  1.8254
   19CHL1   C24 1394   6.557   3.359   8.787  0.0541 -0.4200  0.2570
   19CHL1  H24A 1395   6.663   3.332   8.805  0.3812  2.1659  2.8656
   19CHL1  H24B 1396   6.489   3.272   8.795  0.9102 -0.9111  2.8281
   19CHL1   C25 1397   6.534   3.424   8.650  0.0460  0.6371 -0.1855
   19CHL1   H25 1398   6.557   3.532   8.660 -2.7738  1.2887  0.1678
   19CHL1   C26 1399   6.622   3.362   8.544  0.0974 -1.3622 -0.1304
   19CHL1  H26A 1400   6.607   3.255   8.518  0.5683 -1.4116 -0.2213
   19CHL1  H26B 1401   6.609   3.425   8.454 -0.7597  0.6550  1.3418
   19CHL1  H26C 1402   6.728   3.369   8.579  0.3429  5.1682 -0.8763
   19CHL1   C27 1403   6.390   3.409   8.607 -0.4654 -0.2928  0.9162
   19CHL1  H27A 1404   6.377   3.418   8.497  1.4644  2.3053  0.8153
   19CHL1  H27B 1405   6.334   3.323   8.651 -1.9456 -0.0294 -0.3539
   19CHL1  H27C 1406   6.338   3.504   8.631 -1.3040 -0.3708 -0.4641
   20CHL1    C3 1407   3.240   4.311  10.412 -0.4960 -0.1166  0.7563
   20CHL1    H3 1408   3.343   4.273  10.399 -1.0513 -1.0421 -1.4363
   20CHL1    O3 1409   3.225   4.318  10.553 -0.1785 -0.0876  0.2451
   20CHL1   H3' 1410   3.274   4.397  10.577 -1.0568  0.6967 -0.4911
   20CHL1    C4 1411   3.217   4.451  10.357 -0.7657  0.2328 -1.0662
   20CHL1   H4A 1412   3.130   4.500  10.405 -0.0853 -0.1255  0.6109
   20CHL1   H4B 1413   3.311   4.499  10.393  0.1945 -3.0353  1.3593
   20CHL1    C5 1414   3.207   4.443  10.201  0.4277  0.2928  0.2939
   20CHL1    C6 1415   3.301   4.507  10.125  0.5679 -0.0444  0.0237
   20CHL1    H6 1416   3.378   4.567  10.176  0.7263 -2.2316  2.5418
   20CHL1    C7 1417   3.302   4.492   9.974 -0.4632 -1.0440 -0.5528
   20CHL1   H7A 1418   3.328   4.591   9.930 -2.2832 -1.1626 -1.9777
   20CHL1   H7B 1419   3.379   4.414   9.957  0.6934  0.1086 -0.8492
   20CHL1    C8 1420   3.167   4.443   9.922  0.4206 -0.2543  0.4031
   20CHL1    H8 1421   3.093   4.523   9.941  0.7062 -0.3487  1.9802
   20CHL1   C14 1422   3.168   4.410   9.777 -0.1393 -0.9591 -0.0196
   20CHL1   H14 1423   3.235   4.322   9.765  4.2625  1.9756  0.4357
   20CHL1   C15 1424   3.226   4.513   9.682 -0.2442 -0.1462  0.6059
   20CHL1  H15A 1425   3.193   4.619   9.696  2.8661  1.3393 -1.9264
   20CHL1  H15B 1426   3.337   4.518   9.675 -0.1342 -1.0710  1.4623
   20CHL1   C16 1427   3.172   4.466   9.547 -0.6723 -0.1039  0.3695
   20CHL1  H16A 1428   3.120   4.546   9.490 -1.1113  0.8823  2.0721
   20CHL1  H16B 1429   3.261   4.446   9.484  0.0622  1.0202  1.0029
   20CHL1   C17 1430   3.079   4.343   9.559 -0.0262  0.4176 -0.1231
   20CHL1   H17 1431   3.148   4.256   9.555 -0.9018 -0.2527 -1.1861
   20CHL1   C13 1432   3.031   4.362   9.714 -0.2937 -0.0062 -0.3796
   20CHL1   C18 1433   2.930   4.479   9.713  0.2951  0.1976  0.0308
   20CHL1  H18A 1434   2.915   4.521   9.815  0.0113 -2.1137  1.0020
   20CHL1  H18B 1435   2.973   4.569   9.664  0.2691 -0.0360 -0.4289
   20CHL1  H18C 1436   2.830   4.462   9.669 -0.2882  0.2298  1.2984
   20CHL1   C12 1437   2.993   4.241   9.786  0.6240  1.2465  0.1212
   20CHL1  H12A 1438   2.891   4.219   9.748  0.1154  2.8952  0.4669
   20CHL1  H12B 1439   3.077   4.171   9.764  0.9312  1.7524 -0.3344
   20CHL1   C11 1440   2.976   4.270   9.929 -0.4496 -0.1132 -0.1269
   20CHL1  H11A 1441   2.886   4.334   9.946 -0.5250 -0.4231  0.7005
   20CHL1  H11B 1442   2.955   4.176   9.984 -0.8830 -0.6349 -1.1493
   20CHL1    C9 1443   3.113   4.323   9.993 -0.2349 -0.5462  0.5550
   20CHL1    H9 1444   3.184   4.241   9.972  0.4480 -0.1770  1.3695
   20CHL1   C10 1445   3.104   4.343  10.145 -0.3777  0.3367 -0.1560
   20CHL1   C19 1446   2.965   4.393  10.169 -0.3123 -0.6130  0.3709
   20CHL1  H19A 1447   2.881   4.319  10.167 -1.6720  0.8801 -0.0576
   20CHL1  H19B 1448   2.959   4.437  10.271  0.0712  2.8425 -0.9624
   20CHL1  H19C 1449   2.948   4.484  10.108 -0.0908 -2.1581 -2.1275
   20CHL1    C1 1450   3.138   4.210  10.212 -0.1493 -0.0615 -0.1287
   20CHL1   H1A 1451   3.062   4.137  10.176 -1.9987  1.9904 -0.6116
   20CHL1   H1B 1452   3.237   4.171  10.179  0.2623 -0.4035  1.4330
   20CHL1    C2 1453   3.132   4.212  10.367  0.3607  0.3382 -0.4206
   20CHL1   H2A 1454   3.166   4.108  10.387 -1.8287 -0.5594 -1.0264
   20CHL1   H2B 1455   3.034   4.247  10.404 -0.3458 -1.8659 -0.0613
   20CHL1   C20 1456   2.971   4.334   9.449 -0.5428 -0.1461  0.2608
   20CHL1   H20 1457   2.901   4.419   9.460  0.5458  0.5473  2.3836
   20CHL1   C21 1458   2.882   4.207   9.471  0.3652  0.1806 -0.4479
   20CHL1  H21A 1459   2.934   4.135   9.539  0.3316  1.2686  0.7721
   20CHL1  H21B 1460   2.860   4.151   9.377  4.1780 -2.2962 -0.1018
   20CHL1  H21C 1461   2.788   4.245   9.517  0.7548 -1.7842  2.2405
   20CHL1   C22 1462   3.026   4.344   9.302 -0.5721  0.2006  1.3541
   20CHL1  H22A 1463   2.936   4.341   9.236  0.7958 -2.7526 -0.5930
   20CHL1  H22B 1464   3.081   4.439   9.292 -3.0991  1.7589  1.4493
   20CHL1   C23 1465   3.115   4.227   9.255  0.2342  1.2251  0.2550
   20CHL1  H23A 1466   3.203   4.242   9.321 -0.9948 -0.3762  2.4089
   20CHL1  H23B 1467   3.067   4.130   9.279 -0.2565  1.4979  0.3979
   20CHL1   C24 1468   3.146   4.236   9.106  0.0526  0.5863 -0.9767
   20CHL1  H24A 1469   3.057   4.186   9.062  1.5934 -2.0733 -1.2616
   20CHL1  H24B 1470   3.147   4.345   9.083 -2.0872  0.7521 -0.4859
   20CHL1   C25 1471   3.278   4.163   9.065  0.4648 -0.2501  0.8672
   20CHL1   H25 1472   3.361   4.204   9.126 -1.9443  1.3959  3.2602
   20CHL1   C26 1473   3.280   4.007   9.084 -0.6487  0.1224 -0.0955
   20CHL1  H26A 1474   3.250   3.973   9.185 -2.6092 -0.3846 -0.8172
   20CHL1  H26B 1475   3.219   3.964   9.002 -1.1643  0.3813  0.1468
   20CHL1  H26C 1476   3.381   3.964   9.064 -0.2340  1.0167  0.0079
   20CHL1   C27 1477   3.329   4.200   8.920 -0.7701  0.2310 -0.1138
   20CHL1  H27A 1478   3.329   4.309   8.900 -2.0260  0.1951 -0.4158
   20CHL1  H27B 1479   3.429   4.155   8.904  0.3819  2.2028  1.1115
   20CHL1  H27C 1480   3.268   4.158   8.837  0.4609 -2.2015  0.1130
   21CHL1    C3 1481   1.274   1.317  10.121 -0.1039  0.6438  0.1895
   21CHL1    H3 1482   1.366   1.338  10.061  0.4892 -2.3006 -0.0875
   21CHL1    O3 1483   1.295   1.358  10.255 -0.0499  0.5638  0.3849
   21CHL1   H3' 1484   1.215   1.352  10.308  0.5662  1.2734  1.4174
   21CHL1    C4 1485   1.153   1.382  10.064  0.3468 -0.6858  0.0560
   21CHL1   H4A 1486   1.073   1.374  10.141 -0.3497 -2.7033 -0.8227
   21CHL1   H4B 1487   1.173   1.491  10.049  2.1071 -1.1256 -1.1055
   21CHL1    C5 1488   1.108   1.327   9.931 -0.2420 -0.4872  0.6129
   21CHL1    C6 1489   1.090   1.414   9.823 -0.1778  0.5601 -0.0311
   21CHL1    H6 1490   1.109   1.520   9.846  0.4342  0.1057  1.8015
   21CHL1    C7 1491   1.049   1.373   9.685 -0.2296 -0.0810  0.6184
   21CHL1   H7A 1492   0.963   1.435   9.652 -0.0162  0.6689  1.4338
   21CHL1   H7B 1493   1.130   1.394   9.612 -1.0180 -2.1953 -0.9606
   21CHL1    C8 1494   1.011   1.229   9.687 -0.5254  1.1529  0.2882
   21CHL1    H8 1495   0.902   1.216   9.704 -0.4499  0.6399  0.3863
   21CHL1   C14 1496   1.029   1.173   9.548 -0.1139  0.1127 -0.0080
   21CHL1   H14 1497   1.138   1.176   9.529  0.0455  3.2054  0.9357
   21CHL1   C15 1498   0.969   1.258   9.438 -0.4075 -0.0214 -0.3247
   21CHL1  H15A 1499   0.874   1.300   9.478 -0.4136 -0.9731  0.7274
   21CHL1  H15B 1500   1.046   1.330   9.405  0.9601 -0.8261  1.0054
   21CHL1   C16 1501   0.957   1.156   9.326 -0.0685 -0.2559 -0.1721
   21CHL1  H16A 1502   0.853   1.157   9.286  0.8316  2.2518 -2.7508
   21CHL1  H16B 1503   1.014   1.181   9.234 -0.7029 -1.1047 -0.8119
   21CHL1   C17 1504   1.006   1.017   9.374  0.0717  0.1000 -0.1421
   21CHL1   H17 1505   1.116   1.019   9.361  0.1154  0.8956  0.2900
   21CHL1   C13 1506   0.977   1.032   9.526 -0.4587  0.6312 -0.1139
   21CHL1   C18 1507   0.825   1.027   9.544  0.3841  0.1683  0.4682
   21CHL1  H18A 1508   0.806   1.023   9.653  2.5447 -2.5740  0.8572
   21CHL1  H18B 1509   0.774   1.117   9.503  0.8606  0.2865  0.1287
   21CHL1  H18C 1510   0.779   0.934   9.502  0.8958 -0.4409  1.2259
   21CHL1   C12 1511   1.058   0.945   9.617  0.0833  0.4428 -0.1737
   21CHL1  H12A 1512   1.017   0.842   9.623  1.3142 -0.0754 -0.5509
   21CHL1  H12B 1513   1.162   0.936   9.580 -0.1397  2.2080 -1.3812
   21CHL1   C11 1514   1.047   0.983   9.767  0.1618 -1.4547  0.1542
   21CHL1  H11A 1515   0.940   0.978   9.797 -0.8631 -0.4098 -2.9966
   21CHL1  H11B 1516   1.098   0.917   9.841 -0.4377 -0.9646  1.0175
   21CHL1    C9 1517   1.089   1.130   9.787 -0.3888 -0.0948 -0.2430
   21CHL1    H9 1518   1.191   1.143   9.746 -0.9717  1.7372 -1.2351
   21CHL1   C10 1519   1.092   1.176   9.932 -0.2518 -0.8465  0.0548
   21CHL1   C19 1520   0.966   1.129  10.007  0.0431  0.0599  0.4414
   21CHL1  H19A 1521   0.977   1.020  10.027 -0.8183 -0.4271 -1.5291
   21CHL1  H19B 1522   0.950   1.191  10.098  0.7088  1.7074 -0.5291
   21CHL1  H19C 1523   0.875   1.143   9.945  1.7895  0.6977 -2.1172
   21CHL1    C1 1524   1.222   1.112   9.993  0.1063 -0.5238 -0.0646
   21CHL1   H1A 1525   1.212   1.001   9.991 -2.1034 -0.3648 -0.9202
   21CHL1   H1B 1526   1.305   1.133   9.923  0.2416  0.0443  0.2625
   21CHL1    C2 1527   1.251   1.164  10.131 -0.1937 -0.6358 -0.8831
   21CHL1   H2A 1528   1.351   1.129  10.165  0.5612  2.7438  0.8423
   21CHL1   H2B 1529   1.176   1.145  10.211  0.9502  0.8951  0.6334
   21CHL1   C20 1530   0.953   0.902   9.292  0.2189  0.5836 -0.8199
   21CHL1   H20 1531   0.844   0.891   9.307  0.4253  0.0594  0.4937
   21CHL1   C21 1532   1.028   0.771   9.340 -1.0762 -0.5394  0.7445
   21CHL1  H21A 1533   1.135   0.776   9.313 -0.9640  3.6702  1.4001
   21CHL1  H21B 1534   0.987   0.678   9.294 -1.7331  0.7426 -1.3500
   21CHL1  H21C 1535   1.004   0.761   9.449 -0.6342 -0.2170  0.8731
   21CHL1   C22 1536   0.972   0.915   9.143 -0.3279  0.6691  0.1154
   21CHL1  H22A 1537   0.903   0.995   9.109 -0.1623  0.6845 -0.1917
   21CHL1  H22B 1538   1.072   0.962   9.128 -1.0871  1.9648 -1.0814
   21CHL1   C23 1539   0.955   0.787   9.064  0.2848 -0.2878  1.1509
   21CHL1  H23A 1540   1.036   0.714   9.084  0.7049 -0.3959 -0.8072
   21CHL1  H23B 1541   0.856   0.740   9.083 -0.8885  1.5674 -0.0681
   21CHL1   C24 1542   0.976   0.816   8.912 -0.7150 -0.1864 -0.0722
   21CHL1  H24A 1543   0.889   0.875   8.874 -0.9869 -1.0367 -0.8141
   21CHL1  H24B 1544   1.069   0.876   8.903  0.4553 -1.7463  1.0667
   21CHL1   C25 1545   0.997   0.691   8.828 -0.3322 -0.1539  0.0937
   21CHL1   H25 1546   0.916   0.619   8.852  1.0297 -2.1710 -1.0716
   21CHL1   C26 1547   0.983   0.715   8.680  0.1982 -0.2025 -0.1829
   21CHL1  H26A 1548   0.876   0.744   8.669 -0.2876 -2.0686 -0.7605
   21CHL1  H26B 1549   1.065   0.782   8.648 -0.4636  0.9996  0.5826
   21CHL1  H26C 1550   1.000   0.618   8.627  0.1941 -0.0312 -0.4988
   21CHL1   C27 1551   1.127   0.617   8.857  0.0511  0.6312 -0.1003
   21CHL1  H27A 1552   1.124   0.522   8.800  1.1216  0.6280 -0.1626
   21CHL1  H27B 1553   1.208   0.687   8.829 -1.5464  2.4526 -0.3659
   21CHL1  H27C 1554   1.141   0.589   8.964  1.9872 -2.2474 -0.9974
   22CHL1    C3 1555   2.363   1.373  10.138  0.3305  0.3814  0.1790
   22CHL1    H3 1556   2.438   1.293  10.156 -0.7326 -0.7675 -0.4209
   22CHL1    O3 1557   2.332   1.420  10.271  0.6049 -0.2371 -0.1324
   22CHL1   H3' 1558   2.270   1.369  10.323 -0.8336  0.2286 -1.3308
   22CHL1    C4 1559   2.417   1.492  10.062 -1.1418 -0.1592 -0.2610
   22CHL1   H4A 1560   2.334   1.563  10.077  0.9954  2.3760  0.3366
   22CHL1   H4B 1561   2.502   1.538  10.117 -1.5227  0.1651  0.0655
   22CHL1    C5 1562   2.452   1.461   9.918  0.5252 -0.3073 -0.2764
   22CHL1    C6 1563   2.577   1.490   9.870  0.8002 -0.2651  0.6163
   22CHL1    H6 1564   2.652   1.516   9.946  1.9301  0.7628 -0.8154
   22CHL1    C7 1565   2.626   1.468   9.734 -0.1354  0.2755 -0.5389
   22CHL1   H7A 1566   2.690   1.553   9.704  1.8411 -1.9517 -3.1845
   22CHL1   H7B 1567   2.687   1.375   9.739 -0.4223  0.1469  1.6161
   22CHL1    C8 1568   2.504   1.444   9.639 -0.3031 -0.2944  0.7030
   22CHL1    H8 1569   2.467   1.548   9.621  1.1622  0.2190  0.5262
   22CHL1   C14 1570   2.552   1.384   9.508 -0.0197  0.1861 -0.3065
   22CHL1   H14 1571   2.595   1.282   9.523  2.0912  1.3052  1.9060
   22CHL1   C15 1572   2.666   1.469   9.447  0.1265 -0.4443 -0.1592
   22CHL1  H15A 1573   2.641   1.575   9.467 -1.9429 -1.1844  1.4725
   22CHL1  H15B 1574   2.763   1.431   9.486  0.3791 -2.2059 -2.2564
   22CHL1   C16 1575   2.660   1.437   9.295  1.2378  0.1390 -0.6335
   22CHL1  H16A 1576   2.644   1.530   9.236  1.0833  1.1490  0.9429
   22CHL1  H16B 1577   2.754   1.388   9.264  0.1223 -1.6991 -1.2470
   22CHL1   C17 1578   2.529   1.352   9.276 -0.1881 -0.0760  0.2915
   22CHL1   H17 1579   2.560   1.245   9.274 -1.7258 -0.5411 -0.8476
   22CHL1   C13 1580   2.443   1.376   9.399 -0.3226 -0.2953 -0.1704
   22CHL1   C18 1581   2.375   1.511   9.380  0.4914 -0.4604 -0.1530
   22CHL1  H18A 1582   2.440   1.593   9.344 -1.5913  0.4757 -2.0014
   22CHL1  H18B 1583   2.297   1.508   9.301  0.5859  1.7094 -0.3811
   22CHL1  H18C 1584   2.319   1.543   9.471 -4.3975 -0.6512 -2.7378
   22CHL1   C12 1585   2.350   1.269   9.441  0.7042  0.9526  0.2344
   22CHL1  H12A 1586   2.257   1.267   9.380 -1.4520 -0.5940  3.3092
   22CHL1  H12B 1587   2.398   1.169   9.442 -1.4861 -0.1618  0.4488
   22CHL1   C11 1588   2.299   1.297   9.586 -0.0885 -0.2296  0.7026
   22CHL1  H11A 1589   2.226   1.379   9.571  2.0523  1.2670 -2.8505
   22CHL1  H11B 1590   2.237   1.210   9.616 -1.4459  0.2448 -0.5965
   22CHL1    C9 1591   2.400   1.344   9.697 -0.3307 -0.3186 -0.1416
   22CHL1    H9 1592   2.458   1.254   9.725 -0.4537 -0.1607  0.6269
   22CHL1   C10 1593   2.339   1.401   9.836  0.4878 -1.3579 -0.7412
   22CHL1   C19 1594   2.233   1.509   9.810  0.4999 -0.7440  0.4759
   22CHL1  H19A 1595   2.133   1.466   9.786  0.4943  0.1802 -1.3560
   22CHL1  H19B 1596   2.213   1.564   9.904  2.5373 -0.7885  0.9649
   22CHL1  H19C 1597   2.261   1.588   9.737  1.7306  0.7646  2.4901
   22CHL1    C1 1598   2.267   1.289   9.922 -0.0135  0.0152  0.2654
   22CHL1   H1A 1599   2.185   1.243   9.863 -0.3489 -0.6426  1.2303
   22CHL1   H1B 1600   2.337   1.203   9.928  1.5671  1.2994  1.3394
   22CHL1    C2 1601   2.238   1.324  10.066  0.0078  0.3494  0.4131
   22CHL1   H2A 1602   2.194   1.241  10.125 -1.1640  0.9286  0.3692
   22CHL1   H2B 1603   2.162   1.404  10.058  0.2317  0.3839 -2.5715
   22CHL1   C20 1604   2.481   1.373   9.128  0.7385  0.2296  0.7855
   22CHL1   H20 1605   2.477   1.483   9.111  2.0389  0.3885  1.3765
   22CHL1   C21 1606   2.351   1.303   9.111  0.4531 -0.3162  1.0950
   22CHL1  H21A 1607   2.354   1.198   9.147  0.9691 -1.1596 -1.2403
   22CHL1  H21B 1608   2.321   1.303   9.004 -3.3979 -0.1040  2.0473
   22CHL1  H21C 1609   2.270   1.363   9.158 -0.0620  1.4670 -1.8399
   22CHL1   C22 1610   2.591   1.328   9.024 -0.8195 -0.1049 -0.2524
   22CHL1  H22A 1611   2.694   1.367   9.038 -1.8380  3.6860 -2.1061
   22CHL1  H22B 1612   2.584   1.217   9.026  0.4596 -0.2107 -0.7789
   22CHL1   C23 1613   2.568   1.371   8.876 -0.6915 -0.3100  0.2139
   22CHL1  H23A 1614   2.461   1.364   8.847 -0.0984 -0.5213 -2.0716
   22CHL1  H23B 1615   2.575   1.481   8.864 -0.3321 -0.6002 -2.9414
   22CHL1   C24 1616   2.662   1.299   8.771 -0.3476  0.1220  0.4539
   22CHL1  H24A 1617   2.768   1.306   8.803 -0.7808  0.5390  1.8754
   22CHL1  H24B 1618   2.635   1.191   8.773  1.2697 -0.3026  0.3276
   22CHL1   C25 1619   2.641   1.328   8.623 -0.2228 -0.4604  0.3261
   22CHL1   H25 1620   2.650   1.438   8.615 -1.5781 -0.2327  1.5366
   22CHL1   C26 1621   2.752   1.266   8.535  0.1113 -0.0018 -0.4337
   22CHL1  H26A 1622   2.749   1.305   8.431 -0.5722  0.5859 -0.2033
   22CHL1  H26B 1623   2.853   1.280   8.581 -0.0491  0.3662 -0.1824
   22CHL1  H26C 1624   2.750   1.155   8.535  1.7434 -0.0646 -0.3671
   22CHL1   C27 1625   2.498   1.290   8.568 -0.2503 -0.0431  0.6848
   22CHL1  H27A 1626   2.419   1.344   8.625 -0.7780 -0.4807  0.3821
   22CHL1  H27B 1627   2.499   1.318   8.460  0.8148  0.6905  0.8704
   22CHL1  H27C 1628   2.479   1.182   8.585 -1.6006  0.2663  1.2698
   23CHL1    C3 1629   3.935   3.717  10.416 -0.5219  0.1163 -0.0012
   23CHL1    H3 1630   3.852   3.791  10.415  0.0275  0.7987  1.7349
   23CHL1    O3 1631   3.997   3.702  10.543 -0.4202 -0.0635 -0.0339
   23CHL1   H3' 1632   4.090   3.725  10.543 -0.7620  1.6327  1.9439
   23CHL1    C4 1633   3.863   3.582  10.394  0.0661  0.0666  0.2713
   23CHL1   H4A 1634   3.938   3.501  10.391  0.0879  0.0741  0.5544
   23CHL1   H4B 1635   3.795   3.561  10.480  0.3795 -0.9798  0.2746
   23CHL1    C5 1636   3.793   3.587  10.258  0.0677  0.4245  0.3378
   23CHL1    C6 1637   3.663   3.574  10.243  0.0800 -0.4389 -0.1726
   23CHL1    H6 1638   3.603   3.563  10.334  1.7065 -0.8855  0.8757
   23CHL1    C7 1639   3.586   3.570  10.111  0.0598 -0.4328 -0.6354
   23CHL1   H7A 1640   3.514   3.486  10.113 -0.4485  0.0047 -0.2936
   23CHL1   H7B 1641   3.547   3.674  10.099  3.3123  1.3210  2.2101
   23CHL1    C8 1642   3.690   3.544   9.993 -0.1950 -0.6199 -0.3670
   23CHL1    H8 1643   3.718   3.437   9.996 -1.2197 -1.0090 -2.6173
   23CHL1   C14 1644   3.621   3.577   9.865  0.6630 -0.7025  1.0593
   23CHL1   H14 1645   3.593   3.684   9.879  2.7493  0.5540 -2.8546
   23CHL1   C15 1646   3.483   3.510   9.830  0.0834 -0.1508 -0.0003
   23CHL1  H15A 1647   3.463   3.410   9.873 -0.3427 -2.2149 -4.5355
   23CHL1  H15B 1648   3.408   3.580   9.872  1.0707  0.8203  0.1870
   23CHL1   C16 1649   3.474   3.512   9.681  0.3436 -0.7699 -0.6199
   23CHL1  H16A 1650   3.477   3.410   9.638  1.6109 -0.0579 -2.3735
   23CHL1  H16B 1651   3.386   3.576   9.661  1.0453  0.2720 -0.4834
   23CHL1   C17 1652   3.599   3.595   9.625  0.6926 -0.6866 -0.5357
   23CHL1   H17 1653   3.569   3.697   9.656 -1.0258 -1.6592  1.2998
   23CHL1   C13 1654   3.702   3.563   9.733 -0.2490  0.5533  0.0439
   23CHL1   C18 1655   3.744   3.413   9.712  0.5544 -0.2385  0.3259
   23CHL1  H18A 1656   3.806   3.428   9.621 -0.6420  0.8412 -0.3459
   23CHL1  H18B 1657   3.814   3.382   9.793  0.3302  1.6774  1.3035
   23CHL1  H18C 1658   3.666   3.335   9.699 -0.4152  0.9375 -1.2454
   23CHL1   C12 1659   3.813   3.665   9.741  0.2405  0.2364  0.1970
   23CHL1  H12A 1660   3.880   3.675   9.653  0.1668  4.8039  0.4007
   23CHL1  H12B 1661   3.760   3.763   9.747  0.9624  0.9385 -3.0536
   23CHL1   C11 1662   3.898   3.650   9.870 -0.4251  0.6420 -0.2433
   23CHL1  H11A 1663   3.966   3.563   9.854  1.6542  1.6183  2.4884
   23CHL1  H11B 1664   3.959   3.741   9.888 -1.0505  0.8008  1.2903
   23CHL1    C9 1665   3.813   3.635  10.007  0.1379 -1.0363 -0.7243
   23CHL1    H9 1666   3.773   3.739  10.011  1.0804 -0.4422 -3.6061
   23CHL1   C10 1667   3.898   3.615  10.137  0.0241 -0.0636 -0.6349
   23CHL1   C19 1668   3.998   3.499  10.126  0.0468  0.6089  0.3623
   23CHL1  H19A 1669   4.065   3.497  10.215 -1.0412  2.6446  1.2853
   23CHL1  H19B 1670   3.943   3.404  10.107 -0.2936  0.7141  0.8033
   23CHL1  H19C 1671   4.068   3.512  10.041  0.0568 -0.5343  0.1747
   23CHL1    C1 1672   3.972   3.742  10.172 -0.3204 -0.5628 -0.3106
   23CHL1   H1A 1673   4.050   3.764  10.095 -1.5744  0.9576 -1.2168
   23CHL1   H1B 1674   3.900   3.826  10.164  0.2820 -0.0939 -1.0323
   23CHL1    C2 1675   4.039   3.737  10.312  0.2191  0.0223  0.3251
   23CHL1   H2A 1676   4.086   3.834  10.339 -1.6634  0.5753  1.9397
   23CHL1   H2B 1677   4.112   3.654  10.316 -0.0574 -0.1830  1.4618
   23CHL1   C20 1678   3.625   3.569   9.475  0.3538  0.0923 -0.6700
   23CHL1   H20 1679   3.617   3.459   9.465 -0.4729  0.1355 -0.5310
   23CHL1   C21 1680   3.761   3.607   9.420  0.5865 -0.5629  0.5304
   23CHL1  H21A 1681   3.847   3.550   9.461  0.5631 -1.5463 -0.7103
   23CHL1  H21B 1682   3.779   3.716   9.429 -0.8573 -0.4458  2.8596
   23CHL1  H21C 1683   3.771   3.574   9.314  0.7748  1.9790 -0.3046
   23CHL1   C22 1684   3.512   3.627   9.383  0.6406 -0.2073 -0.5516
   23CHL1  H22A 1685   3.409   3.606   9.416  0.4268 -0.2812 -1.2517
   23CHL1  H22B 1686   3.519   3.737   9.374 -0.7118 -0.0838 -0.2270
   23CHL1   C23 1687   3.529   3.572   9.237  0.0039 -0.0800  0.2658
   23CHL1  H23A 1688   3.622   3.616   9.196  0.3318 -2.3475 -1.6628
   23CHL1  H23B 1689   3.536   3.461   9.247 -1.9816 -0.0716  2.8870
   23CHL1   C24 1690   3.411   3.613   9.147 -0.1503 -0.3691  0.4529
   23CHL1  H24A 1691   3.319   3.570   9.193 -0.1705 -1.8007 -0.8162
   23CHL1  H24B 1692   3.408   3.724   9.144 -1.9963 -0.3990 -0.6641
   23CHL1   C25 1693   3.415   3.551   8.999 -0.4830  0.3381 -0.3412
   23CHL1   H25 1694   3.408   3.443   9.021  4.6477 -0.1620  0.2161
   23CHL1   C26 1695   3.294   3.604   8.912 -0.4286  0.4666 -0.0713
   23CHL1  H26A 1696   3.287   3.715   8.912 -3.1456  0.3478 -0.6757
   23CHL1  H26B 1697   3.306   3.570   8.807  0.1262  2.0365 -0.5391
   23CHL1  H26C 1698   3.202   3.573   8.965  0.7549 -0.6347  1.4644
   23CHL1   C27 1699   3.543   3.574   8.920 -0.1850 -0.2042  0.1702
   23CHL1  H27A 1700   3.539   3.684   8.903  0.2355 -0.2202 -0.0461
   23CHL1  H27B 1701   3.634   3.545   8.976  1.0516  0.5761 -1.3437
   23CHL1  H27C 1702   3.549   3.530   8.818  1.9373  0.3659 -0.0100
   24CHL1    C3 1703   6.267   4.853  10.246  1.0074  1.0346 -0.7331
   24CHL1    H3 1704   6.157   4.869  10.254  0.5835 -1.8969  0.5874
   24CHL1    O3 1705   6.313   4.850  10.378  0.3943 -0.1210 -0.2807
   24CHL1   H3' 1706   6.405   4.822  10.370 -0.0888 -2.1482  0.6332
   24CHL1    C4 1707   6.294   4.717  10.190 -0.4716 -0.0984  0.9917
   24CHL1   H4A 1708   6.400   4.689  10.205 -0.5036  0.1595  1.7634
   24CHL1   H4B 1709   6.238   4.643  10.251 -2.8444 -0.4338 -1.3744
   24CHL1    C5 1710   6.243   4.709  10.045 -0.7158 -0.4216 -0.0294
   24CHL1    C6 1711   6.158   4.618   9.993 -0.9301 -0.1049 -0.3071
   24CHL1    H6 1712   6.117   4.535  10.053  1.7104 -0.9953  0.4199
   24CHL1    C7 1713   6.114   4.613   9.851 -0.0239  0.1221 -0.3543
   24CHL1   H7A 1714   6.112   4.508   9.814 -0.2762 -0.3959  1.0946
   24CHL1   H7B 1715   6.013   4.656   9.836 -0.0208  0.9229  1.7070
   24CHL1    C8 1716   6.214   4.685   9.757  0.2347 -0.1236 -0.2436
   24CHL1    H8 1717   6.304   4.620   9.756  0.4490  0.1698 -0.7621
   24CHL1   C14 1718   6.150   4.693   9.614 -0.3562 -0.6802  0.5279
   24CHL1   H14 1719   6.055   4.747   9.627 -1.2264 -2.3275  1.2940
   24CHL1   C15 1720   6.109   4.560   9.547  0.1091 -0.7135 -0.9793
   24CHL1  H15A 1721   6.192   4.487   9.557 -0.2457 -0.9264  0.6450
   24CHL1  H15B 1722   6.027   4.507   9.600  0.6546 -0.4795  0.1259
   24CHL1   C16 1723   6.081   4.599   9.405  0.8280  0.1742 -0.4469
   24CHL1  H16A 1724   6.114   4.520   9.334  0.1204 -0.1938 -0.3766
   24CHL1  H16B 1725   5.973   4.624   9.392  0.6934 -0.4104 -0.4841
   24CHL1   C17 1726   6.155   4.738   9.385 -0.2157 -0.0516 -0.3813
   24CHL1   H17 1727   6.084   4.824   9.391  1.2793  1.2247 -0.1384
   24CHL1   C13 1728   6.241   4.762   9.512 -0.3598 -0.6075 -0.2686
   24CHL1   C18 1729   6.370   4.678   9.496  0.3266 -0.5711  0.5305
   24CHL1  H18A 1730   6.358   4.576   9.455  2.1187 -0.4523 -0.3886
   24CHL1  H18B 1731   6.436   4.734   9.426 -0.1004  0.0479  0.6200
   24CHL1  H18C 1732   6.427   4.681   9.591 -1.1725  0.7566  1.4369
   24CHL1   C12 1733   6.262   4.901   9.564  0.7343 -0.3228 -0.0794
   24CHL1  H12A 1734   6.333   4.966   9.509 -1.4571  1.4190 -1.0533
   24CHL1  H12B 1735   6.161   4.946   9.573  0.1382 -1.2702 -1.5602
   24CHL1   C11 1736   6.324   4.909   9.706  0.6666  0.5551  0.1417
   24CHL1  H11A 1737   6.430   4.873   9.705 -0.0164 -1.6108 -0.8406
   24CHL1  H11B 1738   6.316   5.014   9.739 -2.8165 -0.5996  3.7369
   24CHL1    C9 1739   6.244   4.822   9.811  1.1744 -0.2679  0.2532
   24CHL1    H9 1740   6.143   4.866   9.827  1.4094 -0.2272  1.7377
   24CHL1   C10 1741   6.311   4.817   9.953  1.4131 -0.2961 -0.1163
   24CHL1   C19 1742   6.457   4.778   9.943  0.8297 -0.1538 -0.1152
   24CHL1  H19A 1743   6.505   4.786  10.043 -2.4072  2.6064  1.4231
   24CHL1  H19B 1744   6.467   4.679   9.894 -0.0046  0.2613 -1.1300
   24CHL1  H19C 1745   6.519   4.860   9.901  2.1349 -1.3234 -0.5729
   24CHL1    C1 1746   6.296   4.963  10.012 -0.6979 -0.2035 -0.9859
   24CHL1   H1A 1747   6.361   5.038   9.963  0.5200  0.2361  1.1643
   24CHL1   H1B 1748   6.188   4.989  10.010 -0.9695 -1.0006  1.0637
   24CHL1    C2 1749   6.336   4.965  10.167 -0.1414 -0.3619  0.1843
   24CHL1   H2A 1750   6.314   5.063  10.215  0.3900 -1.0060  1.8256
   24CHL1   H2B 1751   6.446   4.956  10.176 -0.3836 -1.6657  2.7173
   24CHL1   C20 1752   6.213   4.752   9.239  0.8446  0.0274  0.4149
   24CHL1   H20 1753   6.300   4.682   9.234 -1.3758 -2.8644 -0.6782
   24CHL1   C21 1754   6.284   4.888   9.220 -0.4258 -0.6164  0.2285
   24CHL1  H21A 1755   6.211   4.971   9.231  1.1645  0.6331  2.1268
   24CHL1  H21B 1756   6.347   4.910   9.131 -0.3669  3.1712  1.0356
   24CHL1  H21C 1757   6.359   4.898   9.302  0.0475 -0.4542 -0.2140
   24CHL1   C22 1758   6.111   4.721   9.121 -0.2708 -0.8537 -0.8919
   24CHL1  H22A 1759   6.065   4.620   9.126  0.0643 -0.9303  1.7868
   24CHL1  H22B 1760   6.041   4.805   9.106  0.6145 -0.3239 -2.2354
   24CHL1   C23 1761   6.186   4.706   8.984 -0.0021  0.9356 -0.3907
   24CHL1  H23A 1762   6.110   4.693   8.903 -0.3779 -1.9136  0.2897
   24CHL1  H23B 1763   6.247   4.794   8.957  0.2759  0.5084 -1.2002
   24CHL1   C24 1764   6.271   4.580   8.973  0.3412  0.6634 -0.6317
   24CHL1  H24A 1765   6.379   4.588   8.996  0.4754 -2.0627  0.0530
   24CHL1  H24B 1766   6.236   4.505   9.047 -0.4021  0.2018 -1.4304
   24CHL1   C25 1767   6.257   4.516   8.836  0.3342  0.0061 -0.4944
   24CHL1   H25 1768   6.147   4.506   8.818  0.6613 -0.1540 -2.6531
   24CHL1   C26 1769   6.321   4.606   8.721  0.1343  0.3014 -0.4158
   24CHL1  H26A 1770   6.324   4.552   8.624 -1.2505  2.4159 -1.7154
   24CHL1  H26B 1771   6.268   4.702   8.706  1.3046  1.3476  1.6076
   24CHL1  H26C 1772   6.422   4.612   8.768 -0.0359 -2.4416  0.4881
   24CHL1   C27 1773   6.325   4.378   8.843  0.5080  0.1696 -0.4311
   24CHL1  H27A 1774   6.429   4.405   8.871 -0.5566  0.8213  3.3694
   24CHL1  H27B 1775   6.282   4.309   8.919  2.3788 -0.2749  0.2944
   24CHL1  H27C 1776   6.329   4.339   8.739 -0.4499  1.2975 -0.8985
   25CHL1    C3 1777   1.369   5.640  10.435 -0.1633 -0.4215  0.3285
   25CHL1    H3 1778   1.468   5.600  10.465 -1.1393 -1.2953  2.6025
   25CHL1    O3 1779   1.278   5.625  10.546 -0.6278  0.4276  0.2219
   25CHL1   H3' 1780   1.200   5.658  10.501  1.0691  2.7499 -1.2400
   25CHL1    C4 1781   1.375   5.789  10.393 -0.1790  0.7994 -0.5119
   25CHL1   H4A 1782   1.269   5.819  10.374 -1.0454 -2.2085 -0.9382
   25CHL1   H4B 1783   1.401   5.847  10.484 -1.5445 -0.9993  1.1121
   25CHL1    C5 1784   1.454   5.815  10.266 -0.4593 -0.0080 -0.2503
   25CHL1    C6 1785   1.564   5.893  10.270  0.1172  0.1288 -0.2858
   25CHL1    H6 1786   1.597   5.936  10.366  0.5874 -1.5265  0.3445
   25CHL1    C7 1787   1.645   5.924  10.152  0.0699 -0.6653  0.5630
   25CHL1   H7A 1788   1.659   6.034  10.146  0.4928 -0.7729 -1.0545
   25CHL1   H7B 1789   1.749   5.889  10.168 -0.0244  0.0581  3.1967
   25CHL1    C8 1790   1.580   5.878  10.019  0.6290  0.1922  0.0361
   25CHL1    H8 1791   1.498   5.948   9.995  0.7486  0.4747  0.4316
   25CHL1   C14 1792   1.684   5.887   9.909 -0.2467  0.4124  0.1471
   25CHL1   H14 1793   1.766   5.818   9.937 -0.7568 -0.8362 -1.3153
   25CHL1   C15 1794   1.740   6.024   9.881 -1.0190  0.0244  0.7083
   25CHL1  H15A 1795   1.651   6.089   9.866  0.0372  1.5575  0.8215
   25CHL1  H15B 1796   1.804   6.060   9.965  1.5744 -1.0273 -0.6954
   25CHL1   C16 1797   1.800   6.008   9.741 -1.2433 -0.0111  0.3292
   25CHL1  H16A 1798   1.776   6.084   9.664  0.6305 -0.4912 -0.7917
   25CHL1  H16B 1799   1.911   6.007   9.752 -0.7177  1.9624 -3.1281
   25CHL1   C17 1800   1.754   5.865   9.689  0.0035  0.7074 -0.1304
   25CHL1   H17 1801   1.832   5.794   9.723  0.1287  0.6176 -0.6107
   25CHL1   C13 1802   1.633   5.829   9.775  1.4738  0.2587 -0.1148
   25CHL1   C18 1803   1.512   5.909   9.713 -0.3539  0.3575 -0.1632
   25CHL1  H18A 1804   1.440   5.922   9.797  0.5481  2.5630  0.3168
   25CHL1  H18B 1805   1.533   6.007   9.666  2.7302  0.2005  0.6743
   25CHL1  H18C 1806   1.459   5.845   9.639 -0.0940 -2.1985  1.7129
   25CHL1   C12 1807   1.596   5.678   9.798  0.3684 -0.5222 -0.6413
   25CHL1  H12A 1808   1.547   5.627   9.713  1.2055  0.3624 -1.6796
   25CHL1  H12B 1809   1.681   5.619   9.839 -2.6531 -2.6431  3.2868
   25CHL1   C11 1810   1.483   5.667   9.901  0.4813  0.1297 -0.0962
   25CHL1  H11A 1811   1.391   5.714   9.860 -0.0850 -1.4323 -0.6956
   25CHL1  H11B 1812   1.456   5.564   9.931  1.2693  0.0722  0.4212
   25CHL1    C9 1813   1.524   5.735  10.034  0.1565  0.3158  0.5940
   25CHL1    H9 1814   1.613   5.676  10.066  0.0424 -0.9468 -1.2580
   25CHL1   C10 1815   1.415   5.736  10.138 -0.0179  0.1005 -0.2475
   25CHL1   C19 1816   1.287   5.809  10.082  0.0383 -0.6013 -0.6576
   25CHL1  H19A 1817   1.211   5.837  10.158  2.9328  1.4524  1.6993
   25CHL1  H19B 1818   1.307   5.889  10.007 -1.7274 -0.2343 -0.7827
   25CHL1  H19C 1819   1.239   5.736  10.013  1.0979 -0.8112 -1.1943
   25CHL1    C1 1820   1.386   5.588  10.190  0.3213 -0.3373 -0.3061
   25CHL1   H1A 1821   1.341   5.528  10.108 -1.2889  1.0281 -0.4492
   25CHL1   H1B 1822   1.481   5.542  10.226  0.4805  1.4503  1.7230
   25CHL1    C2 1823   1.304   5.565  10.320 -0.4843 -0.5022 -0.2077
   25CHL1   H2A 1824   1.295   5.458  10.348 -2.4143  0.2854  2.5818
   25CHL1   H2B 1825   1.207   5.616  10.298 -1.4010 -1.9629  0.3314
   25CHL1   C20 1826   1.745   5.856   9.530  0.4252 -0.8587 -0.0059
   25CHL1   H20 1827   1.653   5.914   9.505  0.6314 -0.7180 -0.4532
   25CHL1   C21 1828   1.734   5.710   9.484  0.4209  0.8086  0.0681
   25CHL1  H21A 1829   1.663   5.654   9.548  0.3130  3.2928  2.2764
   25CHL1  H21B 1830   1.824   5.647   9.490 -0.4722 -0.4429  0.6982
   25CHL1  H21C 1831   1.697   5.694   9.380  1.0042  2.9211 -0.5246
   25CHL1   C22 1832   1.868   5.918   9.461 -0.0805 -0.2446  0.6830
   25CHL1  H22A 1833   1.861   6.027   9.481  0.6741 -0.0547  0.0139
   25CHL1  H22B 1834   1.958   5.876   9.511  1.0565 -0.0904 -1.0933
   25CHL1   C23 1835   1.903   5.906   9.312 -0.8017  0.0973 -0.7861
   25CHL1  H23A 1836   1.928   5.802   9.281  2.1210  0.5196 -0.1469
   25CHL1  H23B 1837   1.812   5.926   9.252 -2.4991 -0.0754  1.5717
   25CHL1   C24 1838   2.017   6.004   9.273 -0.1236  0.2018 -1.0754
   25CHL1  H24A 1839   1.974   6.105   9.258 -0.9880 -0.1210 -0.8399
   25CHL1  H24B 1840   2.102   6.007   9.346 -1.4483  1.5784  0.5059
   25CHL1   C25 1841   2.083   5.971   9.137 -1.0164  0.3683 -0.3840
   25CHL1   H25 1842   2.136   5.874   9.146  0.7190  1.2133 -1.1280
   25CHL1   C26 1843   1.979   5.970   9.023  0.2976  0.9765 -0.0079
   25CHL1  H26A 1844   2.019   5.955   8.920  1.6641  2.2817  0.3046
   25CHL1  H26B 1845   1.893   5.904   9.048  0.7512  0.6695  0.7800
   25CHL1  H26C 1846   1.929   6.069   9.017  1.6534  1.6811  0.1515
   25CHL1   C27 1847   2.196   6.076   9.114  0.1776  0.1239 -0.2628
   25CHL1  H27A 1848   2.147   6.168   9.075 -1.9256  0.3624  2.5879
   25CHL1  H27B 1849   2.255   6.098   9.206  2.6703 -0.4146 -1.6473
   25CHL1  H27C 1850   2.268   6.047   9.035  0.7199  1.1408 -0.1555
   26CHL1    C3 1851   2.691   0.935  10.329 -0.1212 -0.4395 -0.1781
   26CHL1    H3 1852   2.797   0.919  10.301 -0.4257 -1.3464 -0.8645
   26CHL1    O3 1853   2.664   0.961  10.462 -0.3206 -0.2205 -0.0692
   26CHL1   H3' 1854   2.751   0.980  10.498  0.0633  0.7653 -1.4286
   26CHL1    C4 1855   2.626   1.047  10.250  0.5814 -0.3997 -0.5048
   26CHL1   H4A 1856   2.524   1.066  10.290  0.4583 -0.8955 -0.5811
   26CHL1   H4B 1857   2.677   1.146  10.258  3.3511 -1.6424 -1.6366
   26CHL1    C5 1858   2.617   1.010  10.100  0.4871 -0.3132 -0.2370
   26CHL1    C6 1859   2.674   1.086  10.001 -0.9438  0.1945  0.0380
   26CHL1    H6 1860   2.736   1.173  10.025 -1.7294  0.4177  1.4194
   26CHL1    C7 1861   2.682   1.044   9.858  0.5032 -0.0100 -0.0994
   26CHL1   H7A 1862   2.655   1.136   9.801  0.0917  0.0945  0.2590
   26CHL1   H7B 1863   2.780   0.999   9.830  1.9841  2.8022  0.1948
   26CHL1    C8 1864   2.565   0.940   9.821  0.0399 -0.3823 -0.0215
   26CHL1    H8 1865   2.468   0.993   9.832  0.5245  0.5743 -0.2576
   26CHL1   C14 1866   2.589   0.887   9.681  0.0343 -0.1977  0.2510
   26CHL1   H14 1867   2.688   0.838   9.688  0.3593  0.3058 -0.5994
   26CHL1   C15 1868   2.600   0.990   9.575  0.8415 -0.0444  0.3982
   26CHL1  H15A 1869   2.521   1.064   9.601  1.0951  0.3392  0.0898
   26CHL1  H15B 1870   2.696   1.046   9.571  0.3968  0.6560 -1.0013
   26CHL1   C16 1871   2.586   0.905   9.444 -0.1395  0.1172 -0.7230
   26CHL1  H16A 1872   2.515   0.944   9.368 -1.2474 -3.5956 -1.7940
   26CHL1  H16B 1873   2.684   0.889   9.395 -1.4777 -0.4450 -3.4216
   26CHL1   C17 1874   2.529   0.763   9.491 -0.5250 -0.6584 -0.4474
   26CHL1   H17 1875   2.610   0.686   9.490 -2.1943 -2.5258 -2.5958
   26CHL1   C13 1876   2.487   0.784   9.633  0.0896  0.2156  0.2404
   26CHL1   C18 1877   2.342   0.845   9.640  0.1235 -0.0758 -0.3800
   26CHL1  H18A 1878   2.259   0.776   9.613  0.4560  0.3789 -2.7919
   26CHL1  H18B 1879   2.318   0.876   9.743 -0.6842 -0.2886 -0.4984
   26CHL1  H18C 1880   2.334   0.932   9.571 -0.5835  0.1765  0.0065
   26CHL1   C12 1881   2.492   0.666   9.732  0.2122  0.5091 -0.1596
   26CHL1  H12A 1882   2.424   0.585   9.696  2.1686 -1.1614 -0.2938
   26CHL1  H12B 1883   2.591   0.616   9.724  0.8717  1.5065  1.4478
   26CHL1   C11 1884   2.475   0.710   9.873 -0.7393  0.5472 -0.6709
   26CHL1  H11A 1885   2.369   0.735   9.893 -1.5964 -2.4561 -0.9437
   26CHL1  H11B 1886   2.489   0.615   9.929 -3.8837  0.1915 -0.2810
   26CHL1    C9 1887   2.569   0.826   9.923 -0.1061  0.4006 -0.1580
   26CHL1    H9 1888   2.673   0.795   9.897 -1.3895 -1.3150 -4.0585
   26CHL1   C10 1889   2.554   0.870  10.068 -0.2515  0.2203  1.3036
   26CHL1   C19 1890   2.404   0.875  10.104 -0.2586 -0.3745 -0.0197
   26CHL1  H19A 1891   2.385   0.902  10.210  0.0121 -0.9930  0.1915
   26CHL1  H19B 1892   2.347   0.946  10.040  0.1131  1.1609  1.3173
   26CHL1  H19C 1893   2.350   0.778  10.108  0.1844 -0.6744 -0.9917
   26CHL1    C1 1894   2.616   0.758  10.150  0.7165 -0.7536  0.0207
   26CHL1   H1A 1895   2.555   0.665  10.144  1.0432 -0.8947 -1.3650
   26CHL1   H1B 1896   2.716   0.738  10.105  0.4254 -0.3836 -0.8022
   26CHL1    C2 1897   2.626   0.793  10.299 -0.2244 -0.0473  0.1402
   26CHL1   H2A 1898   2.691   0.724  10.357 -0.7712 -1.4705 -0.8851
   26CHL1   H2B 1899   2.525   0.800  10.344  0.0992 -0.3569  0.9368
   26CHL1   C20 1900   2.425   0.693   9.398  0.2505 -1.0781 -0.4560
   26CHL1   H20 1901   2.323   0.737   9.408  0.5106 -0.0812 -1.9060
   26CHL1   C21 1902   2.413   0.543   9.436 -0.2211  0.2654  0.3681
   26CHL1  H21A 1903   2.510   0.496   9.463 -2.5712 -5.3587  0.4353
   26CHL1  H21B 1904   2.363   0.483   9.358 -1.0147  0.7335  0.5066
   26CHL1  H21C 1905   2.348   0.549   9.526  1.1963  1.3926  1.3633
   26CHL1   C22 1906   2.458   0.711   9.249  0.5752  0.3380  0.3851
   26CHL1  H22A 1907   2.378   0.664   9.189  1.6237  1.6257 -2.1909
   26CHL1  H22B 1908   2.461   0.821   9.229 -2.2826  0.6680  1.3856
   26CHL1   C23 1909   2.597   0.668   9.204  0.6326 -0.4534  0.4811
   26CHL1  H23A 1910   2.678   0.726   9.254  0.3017  2.5687 -2.1770
   26CHL1  H23B 1911   2.613   0.559   9.219 -4.9239 -1.2772  2.9756
   26CHL1   C24 1912   2.619   0.697   9.049 -0.2644  0.1085 -0.8047
   26CHL1  H24A 1913   2.713   0.642   9.026  0.3584  1.0877 -0.6345
   26CHL1  H24B 1914   2.544   0.645   8.984 -1.0150  0.6562 -0.3970
   26CHL1   C25 1915   2.632   0.843   9.013 -0.5282 -0.1051 -0.3320
   26CHL1   H25 1916   2.531   0.883   9.036 -2.6544 -4.8591 -0.2362
   26CHL1   C26 1917   2.734   0.935   9.085  0.6842 -0.4340  0.1307
   26CHL1  H26A 1918   2.837   0.894   9.076  0.9673  0.2708  0.0710
   26CHL1  H26B 1919   2.719   1.035   9.038  0.2531  0.1593  1.4873
   26CHL1  H26C 1920   2.687   0.938   9.185  0.4289  2.1357  0.0082
   26CHL1   C27 1921   2.654   0.829   8.863 -0.7135 -0.1861 -0.0790
   26CHL1  H27A 1922   2.591   0.752   8.813  0.0075 -0.4397 -0.6056
   26CHL1  H27B 1923   2.634   0.924   8.811  0.8997 -0.5988 -1.5375
   26CHL1  H27C 1924   2.759   0.799   8.842  0.2791  3.4121 -0.8250
   27CHL1    C3 1925   2.121   5.017  10.452 -0.1566 -0.5872  0.0914
   27CHL1    H3 1926   2.078   4.915  10.440  0.2991 -0.5890 -1.8616
   27CHL1    O3 1927   2.104   5.067  10.585 -0.5051 -0.1362  0.4926
   27CHL1   H3' 1928   2.166   5.140  10.593 -0.7237  0.0767  0.2805
   27CHL1    C4 1929   2.262   5.019  10.413  0.0005  0.0455 -0.0013
   27CHL1   H4A 1930   2.306   5.114  10.449  0.0321  0.0785 -0.1281
   27CHL1   H4B 1931   2.322   4.936  10.456  1.9061  1.2795 -0.1959
   27CHL1    C5 1932   2.269   5.006  10.261  0.6757 -0.2529 -0.7383
   27CHL1    C6 1933   2.350   4.916  10.199  0.0764  0.4333  0.5584
   27CHL1    H6 1934   2.410   4.850  10.262 -1.1471  0.5457  1.8918
   27CHL1    C7 1935   2.391   4.920  10.055 -0.6307 -0.6007 -0.3980
   27CHL1   H7A 1936   2.500   4.938  10.045 -0.8567  1.7727  0.6025
   27CHL1   H7B 1937   2.368   4.825  10.003 -0.9075 -1.2826  0.9212
   27CHL1    C8 1938   2.320   5.035   9.969  0.2186 -0.9312 -0.7201
   27CHL1    H8 1939   2.386   5.125   9.975  1.0710 -1.4443 -1.9758
   27CHL1   C14 1940   2.306   4.994   9.823  0.7197 -0.3269  0.2776
   27CHL1   H14 1941   2.237   4.907   9.831 -0.7797  0.8836  0.8946
   27CHL1   C15 1942   2.428   4.933   9.750  0.0223 -0.2440 -1.1602
   27CHL1  H15A 1943   2.514   4.989   9.793 -1.2574 -1.4909  3.6848
   27CHL1  H15B 1944   2.445   4.829   9.785  1.5054  1.3140  3.5076
   27CHL1   C16 1945   2.403   4.950   9.601  0.1293 -0.0668  0.0923
   27CHL1  H16A 1946   2.488   5.004   9.556  0.9196 -0.7163  0.7778
   27CHL1  H16B 1947   2.402   4.851   9.553  0.5255  0.3012 -0.6898
   27CHL1   C17 1948   2.260   5.015   9.590  0.0576  0.4273 -0.2548
   27CHL1   H17 1949   2.185   4.934   9.578 -0.2788  0.7042 -0.0584
   27CHL1   C13 1950   2.238   5.096   9.723 -0.4447 -0.5519 -0.0617
   27CHL1   C18 1951   2.311   5.230   9.737 -0.1959 -0.6687  0.3956
   27CHL1  H18A 1952   2.280   5.304   9.661  2.6017  1.1469  0.8642
   27CHL1  H18B 1953   2.292   5.286   9.830  2.3017  1.6762 -0.3672
   27CHL1  H18C 1954   2.421   5.216   9.729 -0.2565 -0.6406 -0.6495
   27CHL1   C12 1955   2.094   5.096   9.780 -0.1365  0.1678  0.0428
   27CHL1  H12A 1956   2.024   5.162   9.724 -0.7808 -1.7450 -1.5188
   27CHL1  H12B 1957   2.053   4.993   9.781 -0.5345  0.3257  0.1168
   27CHL1   C11 1958   2.098   5.153   9.920  0.7116  0.6175 -0.6100
   27CHL1  H11A 1959   2.131   5.259   9.921  2.0210  0.2349 -0.7419
   27CHL1  H11B 1960   1.993   5.159   9.954  0.8287 -1.1624  0.1880
   27CHL1    C9 1961   2.182   5.067  10.025 -0.5080  0.6187 -0.3621
   27CHL1    H9 1962   2.132   4.968  10.024  0.5175  0.0767 -1.2134
   27CHL1   C10 1963   2.182   5.106  10.174 -0.2275 -0.2410 -0.6330
   27CHL1   C19 1964   2.244   5.245  10.189  0.1578 -0.0030  0.4445
   27CHL1  H19A 1965   2.229   5.278  10.294 -1.2089  0.3120  0.1776
   27CHL1  H19B 1966   2.350   5.261  10.163  0.0825 -1.2699 -0.7446
   27CHL1  H19C 1967   2.188   5.317  10.125  0.7065  0.8560  0.9213
   27CHL1    C1 1968   2.039   5.107  10.224 -0.8485 -0.1445 -0.2987
   27CHL1   H1A 1969   1.967   5.184  10.190 -1.6273 -0.5078  0.4738
   27CHL1   H1B 1970   2.004   5.006  10.196  0.6167 -0.2944 -1.7149
   27CHL1    C2 1971   2.027   5.117  10.376 -0.3308  0.1986 -0.1229
   27CHL1   H2A 1972   1.921   5.099  10.404 -0.2189 -0.6247 -0.1900
   27CHL1   H2B 1973   2.051   5.223  10.399 -4.4235  1.2410  0.1388
   27CHL1   C20 1974   2.242   5.101   9.460 -0.2386  0.4538  0.2209
   27CHL1   H20 1975   2.318   5.182   9.465  2.8304 -2.1682 -0.6525
   27CHL1   C21 1976   2.106   5.165   9.457 -0.0967 -0.3923  0.3411
   27CHL1  H21A 1977   2.091   5.225   9.549  2.0422  0.5176  0.1477
   27CHL1  H21B 1978   2.025   5.089   9.462 -0.0498 -0.4400  0.3737
   27CHL1  H21C 1979   2.088   5.220   9.363  0.1311 -1.5276 -0.3895
   27CHL1   C22 1980   2.262   5.028   9.330 -0.5693  0.5052  0.0975
   27CHL1  H22A 1981   2.360   4.980   9.349 -1.2213 -0.7068  0.5201
   27CHL1  H22B 1982   2.185   4.949   9.320  0.9577 -1.0247 -0.0520
   27CHL1   C23 1983   2.279   5.119   9.206 -0.2700 -0.1237 -0.2084
   27CHL1  H23A 1984   2.214   5.209   9.209  0.7974  0.6879 -0.7616
   27CHL1  H23B 1985   2.382   5.162   9.212 -0.4129  0.0292  2.1549
   27CHL1   C24 1986   2.257   5.042   9.077  0.4441  0.3335 -0.1344
   27CHL1  H24A 1987   2.326   4.955   9.078  0.5102  0.3841  0.6789
   27CHL1  H24B 1988   2.154   5.002   9.074 -0.5331  2.4957  1.4389
   27CHL1   C25 1989   2.289   5.118   8.946 -0.1178 -0.3657 -0.5226
   27CHL1   H25 1990   2.238   5.216   8.955  0.3995  0.0418 -1.7924
   27CHL1   C26 1991   2.438   5.146   8.932 -0.0051  0.0748  0.0557
   27CHL1  H26A 1992   2.482   5.206   9.014  0.9321  0.5391 -0.7733
   27CHL1  H26B 1993   2.500   5.054   8.938 -1.6597 -1.0405  1.0101
   27CHL1  H26C 1994   2.455   5.190   8.832 -3.1528  0.8168 -0.2585
   27CHL1   C27 1995   2.234   5.049   8.817 -0.1379  0.1731 -0.3150
   27CHL1  H27A 1996   2.129   5.014   8.828  0.0481  0.1540  1.7937
   27CHL1  H27B 1997   2.262   5.119   8.735  0.5399  0.8405  0.4634
   27CHL1  H27C 1998   2.292   4.955   8.800  1.2891  0.9859 -0.1123
   28CHL1    C3 1999   0.928   4.611  10.159  0.2900 -0.4479 -0.3139
   28CHL1    H3 2000   1.006   4.538  10.126  2.4368  1.8235 -0.5315
   28CHL1    O3 2001   0.927   4.618  10.297 -0.3052 -0.1923  0.6635
   28CHL1   H3' 2002   0.833   4.610  10.313 -0.5746 -1.8066 -1.3185
   28CHL1    C4 2003   0.973   4.746  10.097 -0.1472 -0.0067 -0.0442
   28CHL1   H4A 2004   0.912   4.820  10.153 -2.1560 -1.8208  0.3087
   28CHL1   H4B 2005   1.077   4.770  10.128  0.9451 -0.6652 -2.9165
   28CHL1    C5 2006   0.955   4.753   9.948 -0.5258 -0.3503  0.1836
   28CHL1    C6 2007   1.054   4.795   9.872  0.2505 -0.4885 -0.2169
   28CHL1    H6 2008   1.145   4.845   9.908 -1.4164  1.4466  1.5480
   28CHL1    C7 2009   1.049   4.792   9.723 -0.4261  0.1662 -0.1147
   28CHL1   H7A 2010   1.097   4.887   9.690 -1.2405  0.5574 -0.1906
   28CHL1   H7B 2011   1.123   4.717   9.688  1.2423  0.9014  1.6746
   28CHL1    C8 2012   0.905   4.775   9.667 -0.4648  0.0539  0.9276
   28CHL1    H8 2013   0.856   4.874   9.680 -1.1271 -0.0342 -0.6750
   28CHL1   C14 2014   0.909   4.750   9.516  0.3340  0.0239 -0.5387
   28CHL1   H14 2015   0.967   4.656   9.507  1.0103  0.5222 -1.6557
   28CHL1   C15 2016   0.979   4.853   9.424  0.5252 -0.3613 -0.1205
   28CHL1  H15A 2017   0.958   4.957   9.457  1.5053  0.2052 -1.2125
   28CHL1  H15B 2018   1.089   4.842   9.434  0.4236 -1.9009 -0.4011
   28CHL1   C16 2019   0.916   4.830   9.284  0.0282 -0.1576 -0.4440
   28CHL1  H16A 2020   0.872   4.921   9.237 -1.1792 -0.7876 -0.5772
   28CHL1  H16B 2021   0.989   4.793   9.208  0.2673 -0.1490 -0.2196
   28CHL1   C17 2022   0.802   4.729   9.299  0.4421  0.1491 -0.9065
   28CHL1   H17 2023   0.850   4.630   9.282 -1.3095 -1.2029  1.3943
   28CHL1   C13 2024   0.768   4.738   9.449 -0.3917  0.2903  0.1410
   28CHL1   C18 2025   0.687   4.873   9.467  0.3714 -0.4386  0.3687
   28CHL1  H18A 2026   0.697   4.898   9.575  3.9275 -0.8151  0.2291
   28CHL1  H18B 2027   0.722   4.965   9.415  0.2525 -0.5680  0.0527
   28CHL1  H18C 2028   0.580   4.853   9.441 -0.3285  1.7742  1.3003
   28CHL1   C12 2029   0.702   4.610   9.513 -0.2523 -0.9180  0.9681
   28CHL1  H12A 2030   0.598   4.591   9.477  0.5234 -1.8093 -0.9382
   28CHL1  H12B 2031   0.768   4.524   9.489  1.0613  0.1781  0.5111
   28CHL1   C11 2032   0.699   4.624   9.668 -0.5398  0.0353  0.2122
   28CHL1  H11A 2033   0.622   4.703   9.682  0.7126  1.0381  1.8198
   28CHL1  H11B 2034   0.664   4.523   9.697  0.6708 -0.1697  1.0113
   28CHL1    C9 2035   0.833   4.661   9.739  0.8144  0.1292  0.0641
   28CHL1    H9 2036   0.899   4.571   9.734  1.4482  0.5184  0.9967
   28CHL1   C10 2037   0.820   4.692   9.895  0.6227 -0.9321  0.2820
   28CHL1   C19 2038   0.708   4.805   9.916  0.3081 -0.2155  0.3761
   28CHL1  H19A 2039   0.609   4.767   9.882 -0.5466  2.2543 -0.0651
   28CHL1  H19B 2040   0.709   4.838  10.022  3.9133 -0.7799  0.6592
   28CHL1  H19C 2041   0.720   4.894   9.851  2.2693  0.4686  1.5867
   28CHL1    C1 2042   0.775   4.566   9.961  0.6803 -0.2593 -0.3153
   28CHL1   H1A 2043   0.671   4.541   9.930  0.6091 -1.0217  0.4893
   28CHL1   H1B 2044   0.840   4.481   9.930  1.1603 -0.5206  1.2868
   28CHL1    C2 2045   0.779   4.571  10.112 -0.5552 -0.2735 -1.0787
   28CHL1   H2A 2046   0.751   4.472  10.154  0.1460 -1.3569 -3.0114
   28CHL1   H2B 2047   0.705   4.644  10.150  0.2301 -0.2715  0.4959
   28CHL1   C20 2048   0.686   4.725   9.207  0.0845 -0.0346 -0.5143
   28CHL1   H20 2049   0.595   4.761   9.259 -0.3797 -0.7794 -0.7945
   28CHL1   C21 2050   0.653   4.580   9.167 -0.1778 -0.2618 -0.2072
   28CHL1  H21A 2051   0.646   4.524   9.263  3.4668 -2.6999 -1.1644
   28CHL1  H21B 2052   0.725   4.540   9.093 -0.5661  0.1413 -0.8122
   28CHL1  H21C 2053   0.550   4.584   9.127 -1.1447  0.5305  2.1767
   28CHL1   C22 2054   0.693   4.825   9.088  0.3683  0.3471 -0.2070
   28CHL1  H22A 2055   0.728   4.928   9.112  1.6034 -0.0313 -0.3161
   28CHL1  H22B 2056   0.767   4.788   9.015  2.4920  0.8073  1.5911
   28CHL1   C23 2057   0.558   4.845   9.009 -0.4114 -0.2238  0.0193
   28CHL1  H23A 2058   0.535   4.745   8.967 -0.0730 -0.1617 -0.3130
   28CHL1  H23B 2059   0.476   4.863   9.082  0.8394 -1.9435  1.9574
   28CHL1   C24 2060   0.580   4.946   8.900 -0.4557 -0.1943  0.0885
   28CHL1  H24A 2061   0.628   5.035   8.947 -1.5234  0.3132  0.2774
   28CHL1  H24B 2062   0.656   4.901   8.833  0.8843  0.0909  1.3857
   28CHL1   C25 2063   0.455   4.984   8.817  0.5853 -0.1692  0.2746
   28CHL1   H25 2064   0.417   4.894   8.765 -0.8030  0.3563  0.3451
   28CHL1   C26 2065   0.334   5.048   8.892  0.0446  0.7247 -0.1921
   28CHL1  H26A 2066   0.370   5.138   8.946 -1.8499 -0.0849  2.7012
   28CHL1  H26B 2067   0.267   5.083   8.810  0.9092  0.1218 -1.1726
   28CHL1  H26C 2068   0.288   4.992   8.977  1.1127  1.0892  0.6523
   28CHL1   C27 2069   0.505   5.091   8.712  0.5120  0.1235  0.3767
   28CHL1  H27A 2070   0.599   5.064   8.661  1.0820  1.1312  0.8585
   28CHL1  H27B 2071   0.423   5.112   8.640  1.5353  3.0614 -0.0452
   28CHL1  H27C 2072   0.531   5.182   8.771 -0.9125 -1.4226  3.6978
   29CHL1    C3 2073   6.435   2.641   6.658  1.0333  0.5140  0.1443
   29CHL1    H3 2074   6.470   2.536   6.655 -1.9558 -0.5751 -1.9986
   29CHL1    O3 2075   6.420   2.674   6.518 -0.6462 -0.1649  0.0284
   29CHL1   H3' 2076   6.411   2.770   6.515  0.4383 -0.0258  0.6062
   29CHL1    C4 2077   6.300   2.643   6.729 -0.3181  0.1320 -0.4785
   29CHL1   H4A 2078   6.252   2.740   6.703 -2.2224 -0.5242  0.4013
   29CHL1   H4B 2079   6.227   2.572   6.685 -1.2733 -0.2574  1.6376
   29CHL1    C5 2080   6.300   2.643   6.880 -0.0717 -0.5459  0.0192
   29CHL1    C6 2081   6.213   2.561   6.950 -0.4944  0.8686 -0.0387
   29CHL1    H6 2082   6.143   2.501   6.890 -1.6872  1.8979  0.2805
   29CHL1    C7 2083   6.210   2.550   7.102  0.4110  0.3286  0.8667
   29CHL1   H7A 2084   6.106   2.543   7.140 -0.1242 -0.1180 -0.6387
   29CHL1   H7B 2085   6.259   2.454   7.131  0.1585 -0.4228 -1.0925
   29CHL1    C8 2086   6.282   2.665   7.172 -0.3129 -0.8210  0.3851
   29CHL1    H8 2087   6.213   2.752   7.180 -1.1570 -1.6324  3.5490
   29CHL1   C14 2088   6.323   2.625   7.313 -0.0157 -0.1046 -0.2807
   29CHL1   H14 2089   6.404   2.552   7.290 -0.8364 -1.4583  0.9330
   29CHL1   C15 2090   6.215   2.564   7.398  0.1525 -0.0993  0.0671
   29CHL1  H15A 2091   6.124   2.624   7.383 -0.5005 -1.7689 -3.5938
   29CHL1  H15B 2092   6.214   2.457   7.368 -0.0804 -1.1188  3.2718
   29CHL1   C16 2093   6.274   2.561   7.538 -0.7524 -0.1601 -0.1247
   29CHL1  H16A 2094   6.193   2.607   7.599  0.9915  3.1643 -0.1124
   29CHL1  H16B 2095   6.310   2.461   7.571 -0.9079 -0.2197 -0.1354
   29CHL1   C17 2096   6.405   2.648   7.532  0.3284 -0.3826  0.2217
   29CHL1   H17 2097   6.497   2.589   7.512  1.0727 -0.0774  2.4289
   29CHL1   C13 2098   6.389   2.730   7.406  0.2516  0.1593  0.3571
   29CHL1   C18 2099   6.294   2.847   7.424 -0.4085 -0.2362 -0.1174
   29CHL1  H18A 2100   6.258   2.892   7.329 -2.7329 -1.6939 -0.0007
   29CHL1  H18B 2101   6.198   2.809   7.465  0.1899 -0.6376  0.9463
   29CHL1  H18C 2102   6.345   2.919   7.492 -0.2127 -0.2403 -0.2570
   29CHL1   C12 2103   6.518   2.772   7.338 -0.1171 -0.3426 -0.0328
   29CHL1  H12A 2104   6.573   2.855   7.386 -0.1410  1.3131 -2.6370
   29CHL1  H12B 2105   6.581   2.681   7.335  0.1833 -0.1263 -2.3484
   29CHL1   C11 2106   6.496   2.815   7.184 -0.1094  0.0639 -0.0236
   29CHL1  H11A 2107   6.447   2.914   7.176 -0.1000 -0.0312 -1.5573
   29CHL1  H11B 2108   6.598   2.828   7.141 -0.3024  0.7641 -0.2737
   29CHL1    C9 2109   6.418   2.705   7.107  0.5884  0.4584  0.4529
   29CHL1    H9 2110   6.482   2.614   7.099 -0.4257 -0.3003  0.6520
   29CHL1   C10 2111   6.392   2.733   6.953 -1.1689  0.7911  0.4354
   29CHL1   C19 2112   6.349   2.881   6.934 -0.6736 -0.1998  0.1534
   29CHL1  H19A 2113   6.426   2.951   6.973 -0.4032 -0.5286  0.2102
   29CHL1  H19B 2114   6.351   2.903   6.825  0.6678  0.4844  0.2854
   29CHL1  H19C 2115   6.251   2.885   6.986 -1.6156 -3.3836 -1.1881
   29CHL1    C1 2116   6.529   2.699   6.884 -0.1678 -1.1238 -0.3654
   29CHL1   H1A 2117   6.611   2.754   6.935  0.3256 -2.0237 -0.1585
   29CHL1   H1B 2118   6.554   2.591   6.896  0.1263 -0.9200  1.0355
   29CHL1    C2 2119   6.535   2.720   6.731 -0.3715 -0.7881 -0.8340
   29CHL1   H2A 2120   6.636   2.687   6.697  0.6111  0.6355  0.5277
   29CHL1   H2B 2121   6.520   2.830   6.724 -1.7245 -1.0056 -1.5465
   29CHL1   C20 2122   6.428   2.711   7.677 -0.3432 -0.3704  0.0313
   29CHL1   H20 2123   6.339   2.773   7.698  0.2611  0.7677 -0.6418
   29CHL1   C21 2124   6.559   2.796   7.676 -0.1470 -0.0977 -0.0171
   29CHL1  H21A 2125   6.560   2.870   7.593  1.1047 -0.0346  0.0327
   29CHL1  H21B 2126   6.633   2.714   7.661 -0.2069 -0.3703  1.0854
   29CHL1  H21C 2127   6.582   2.851   7.770  0.2224 -0.0962 -0.1069
   29CHL1   C22 2128   6.435   2.601   7.790  0.2417 -0.1324 -0.4350
   29CHL1  H22A 2129   6.360   2.520   7.779  1.6998 -1.7763  1.0745
   29CHL1  H22B 2130   6.530   2.546   7.774 -0.9596 -2.4244 -0.1717
   29CHL1   C23 2131   6.431   2.670   7.930 -0.3084 -0.8069 -0.0363
   29CHL1  H23A 2132   6.525   2.730   7.940  0.0645 -1.0768 -1.7120
   29CHL1  H23B 2133   6.334   2.724   7.922 -0.2136 -0.5742  0.3495
   29CHL1   C24 2134   6.432   2.564   8.038  0.1552  0.2419  0.5552
   29CHL1  H24A 2135   6.337   2.506   8.041 -1.1062  2.2388  1.0394
   29CHL1  H24B 2136   6.510   2.488   8.016 -3.1588 -3.4518  0.3673
   29CHL1   C25 2137   6.441   2.620   8.176 -0.3148 -0.1049 -0.1765
   29CHL1   H25 2138   6.521   2.697   8.178  0.5973 -0.9806 -1.4514
   29CHL1   C26 2139   6.315   2.690   8.215 -0.2646  0.9186 -0.1976
   29CHL1  H26A 2140   6.292   2.775   8.147 -1.8497  2.1018  1.6686
   29CHL1  H26B 2141   6.231   2.617   8.214  1.3720 -1.1639  2.3418
   29CHL1  H26C 2142   6.324   2.741   8.313 -2.3096 -0.6776  0.9096
   29CHL1   C27 2143   6.487   2.518   8.286  0.2548 -0.5408  1.0930
   29CHL1  H27A 2144   6.403   2.448   8.309 -1.3949  0.6714 -0.8622
   29CHL1  H27B 2145   6.577   2.463   8.251  0.8024  0.1890  1.3476
   29CHL1  H27C 2146   6.507   2.576   8.378 -1.3663 -1.1171  1.8461
   30CHL1    C3 2147   5.546   1.107   7.279 -0.8635 -0.0402  0.4067
   30CHL1    H3 2148   5.537   0.998   7.302  0.1419 -0.3097 -0.4387
   30CHL1    O3 2149   5.501   1.124   7.151 -0.1050  0.3748 -0.2872
   30CHL1   H3' 2150   5.577   1.150   7.099 -1.9859  2.2782 -2.2802
   30CHL1    C4 2151   5.447   1.187   7.370  0.4090 -0.2978 -0.2337
   30CHL1   H4A 2152   5.442   1.295   7.346 -3.0574  0.1522  1.8727
   30CHL1   H4B 2153   5.343   1.155   7.346 -0.2854 -0.9662  3.1116
   30CHL1    C5 2154   5.478   1.163   7.516  0.1130 -0.8015 -0.2683
   30CHL1    C6 2155   5.385   1.115   7.600 -0.2168 -0.1557 -0.0399
   30CHL1    H6 2156   5.285   1.085   7.565 -0.8309  1.2695  0.4278
   30CHL1    C7 2157   5.409   1.094   7.746 -0.9869 -0.1553 -0.2297
   30CHL1   H7A 2158   5.325   1.093   7.819 -0.4875 -2.8303  0.4531
   30CHL1   H7B 2159   5.453   0.992   7.746  0.1187  0.3121 -0.6586
   30CHL1    C8 2160   5.529   1.182   7.795  0.1415  0.5766 -0.3703
   30CHL1    H8 2161   5.495   1.287   7.805  2.0837  1.2129  0.0866
   30CHL1   C14 2162   5.576   1.133   7.933 -0.4592 -0.5279 -0.0513
   30CHL1   H14 2163   5.613   1.028   7.922  0.4250 -0.4891  2.0539
   30CHL1   C15 2164   5.487   1.123   8.055  0.7320  0.8438  0.0889
   30CHL1  H15A 2165   5.422   1.212   8.064  0.3245  0.7335 -1.4693
   30CHL1  H15B 2166   5.421   1.033   8.051  1.5824  0.0051  2.6350
   30CHL1   C16 2167   5.584   1.125   8.172 -0.5519 -0.0231 -0.0886
   30CHL1  H16A 2168   5.555   1.210   8.237 -1.4558 -1.3996  1.3580
   30CHL1  H16B 2169   5.581   1.030   8.229 -1.5965 -1.8421 -2.9245
   30CHL1   C17 2170   5.729   1.153   8.114  0.5167 -0.0380 -0.9998
   30CHL1   H17 2171   5.782   1.061   8.082  0.6898 -0.7838  1.2643
   30CHL1   C13 2172   5.700   1.220   7.979 -0.4838  0.5651  0.2200
   30CHL1   C18 2173   5.669   1.362   8.014 -0.2780 -0.8433  0.2996
   30CHL1  H18A 2174   5.756   1.431   8.024 -1.5839  0.8142  0.6765
   30CHL1  H18B 2175   5.609   1.406   7.932 -0.1950 -1.0429  0.1326
   30CHL1  H18C 2176   5.612   1.382   8.107  2.4836 -0.0935  1.9598
   30CHL1   C12 2177   5.815   1.213   7.882 -0.3295  0.6997 -0.8859
   30CHL1  H12A 2178   5.908   1.262   7.917  0.4869 -2.6840  2.3727
   30CHL1  H12B 2179   5.833   1.105   7.865 -0.9889  0.7298 -1.8875
   30CHL1   C11 2180   5.781   1.260   7.747  0.2465  0.6735  0.7883
   30CHL1  H11A 2181   5.761   1.369   7.751  0.1497  0.7370 -0.7815
   30CHL1  H11B 2182   5.872   1.232   7.689  0.4001 -2.2845  2.2859
   30CHL1    C9 2183   5.649   1.178   7.694 -0.3995 -0.5824 -0.1502
   30CHL1    H9 2184   5.685   1.073   7.696  1.0511 -0.1098  1.8021
   30CHL1   C10 2185   5.621   1.211   7.548  0.0768 -0.0557 -0.2435
   30CHL1   C19 2186   5.633   1.366   7.523 -0.0377  0.4715  0.2164
   30CHL1  H19A 2187   5.565   1.418   7.592  0.9579 -0.7164  2.1796
   30CHL1  H19B 2188   5.739   1.392   7.543  0.1080 -0.2822  0.4370
   30CHL1  H19C 2189   5.613   1.395   7.417  2.8665 -1.5585 -1.0453
   30CHL1    C1 2190   5.722   1.141   7.452  0.5626  1.1292  0.0623
   30CHL1   H1A 2191   5.822   1.189   7.458  0.9938  0.1767  0.7692
   30CHL1   H1B 2192   5.714   1.035   7.484 -2.0304  0.8948 -1.0713
   30CHL1    C2 2193   5.690   1.155   7.294 -0.0301  0.4065  0.0040
   30CHL1   H2A 2194   5.749   1.082   7.235 -0.1272  0.6714 -0.4255
   30CHL1   H2B 2195   5.715   1.256   7.254 -0.2453  1.0033  1.3288
   30CHL1   C20 2196   5.817   1.214   8.228  0.2569  0.7024  0.4011
   30CHL1   H20 2197   5.779   1.317   8.243 -4.9319 -0.8278 -0.3390
   30CHL1   C21 2198   5.966   1.222   8.189  0.7548 -0.6530  0.5107
   30CHL1  H21A 2199   5.985   1.288   8.102 -0.6141 -0.1721  0.5576
   30CHL1  H21B 2200   6.014   1.126   8.161 -1.7873 -1.5459 -1.0065
   30CHL1  H21C 2201   6.029   1.263   8.271 -1.4653  1.1315  1.4121
   30CHL1   C22 2202   5.788   1.143   8.371  0.6522 -0.7480  0.2258
   30CHL1  H22A 2203   5.679   1.137   8.393  0.2558  0.5601 -1.2374
   30CHL1  H22B 2204   5.824   1.038   8.376 -0.4076 -1.1397 -0.1151
   30CHL1   C23 2205   5.842   1.236   8.485  0.0732  0.5382 -0.9312
   30CHL1  H23A 2206   5.950   1.255   8.465  0.0051  0.7242 -1.1184
   30CHL1  H23B 2207   5.790   1.333   8.476 -1.8625 -0.1370  1.6748
   30CHL1   C24 2208   5.815   1.172   8.624 -0.0297  0.2753  0.6639
   30CHL1  H24A 2209   5.707   1.147   8.623  0.1167 -0.4383 -0.6734
   30CHL1  H24B 2210   5.870   1.076   8.614 -0.3203 -0.3639  4.1004
   30CHL1   C25 2211   5.859   1.260   8.750 -0.3963  0.4992  0.3295
   30CHL1   H25 2212   5.853   1.196   8.841 -0.3428 -1.8248 -1.2118
   30CHL1   C26 2213   6.010   1.314   8.730 -0.0369 -0.1647 -0.0381
   30CHL1  H26A 2214   6.053   1.383   8.806 -0.6233  0.2098 -0.0334
   30CHL1  H26B 2215   6.068   1.220   8.723  0.8799  0.3996 -0.1597
   30CHL1  H26C 2216   6.028   1.352   8.628  1.1658  1.5681  0.7673
   30CHL1   C27 2217   5.763   1.375   8.778  0.0477  0.8933 -0.2389
   30CHL1  H27A 2218   5.776   1.450   8.697  2.3648  1.5282  0.6645
   30CHL1  H27B 2219   5.657   1.342   8.789  0.3318 -0.4037 -1.1907
   30CHL1  H27C 2220   5.794   1.429   8.870 -1.1664  0.1412  0.6538
   31CHL1    C3 2221   4.935   3.614   6.724 -0.1509  0.3755 -0.2465
   31CHL1    H3 2222   4.859   3.691   6.750 -2.8064 -2.2265  0.2596
   31CHL1    O3 2223   4.941   3.575   6.587  0.1408  0.4739  0.5438
   31CHL1   H3' 2224   4.940   3.479   6.589  0.5020  0.4771  1.0450
   31CHL1    C4 2225   5.078   3.638   6.773 -0.3805 -0.3853  0.9325
   31CHL1   H4A 2226   5.130   3.543   6.749  0.0096  0.0161  0.1711
   31CHL1   H4B 2227   5.137   3.712   6.716  2.1737 -0.9478  2.6882
   31CHL1    C5 2228   5.096   3.680   6.914  0.2400  1.3236 -1.0125
   31CHL1    C6 2229   5.155   3.790   6.962 -0.7365  0.1084  0.1955
   31CHL1    H6 2230   5.196   3.859   6.888  0.9173 -2.2816 -1.2592
   31CHL1    C7 2231   5.168   3.829   7.107 -0.3598  0.3434  0.4924
   31CHL1   H7A 2232   5.276   3.852   7.121  0.3284 -2.3871  0.0931
   31CHL1   H7B 2233   5.115   3.923   7.135 -0.3338  0.6428 -0.4418
   31CHL1    C8 2234   5.139   3.718   7.206  0.1264  0.3352 -0.6531
   31CHL1    H8 2235   5.230   3.656   7.218  0.7436  1.4330  0.5930
   31CHL1   C14 2236   5.106   3.773   7.352  0.3978  0.7647  0.6913
   31CHL1   H14 2237   5.032   3.853   7.329  0.1149  0.0539 -0.9684
   31CHL1   C15 2238   5.217   3.834   7.434 -0.1348  1.0411 -0.1280
   31CHL1  H15A 2239   5.311   3.775   7.435 -0.6918  0.1373 -0.1295
   31CHL1  H15B 2240   5.244   3.932   7.389 -1.1301  2.5741  2.3547
   31CHL1   C16 2241   5.158   3.865   7.566 -0.0349  0.1247 -0.9049
   31CHL1  H16A 2242   5.232   3.861   7.649 -2.9994 -2.0147  1.8985
   31CHL1  H16B 2243   5.121   3.969   7.575 -0.1626  0.0448 -0.4465
   31CHL1   C17 2244   5.039   3.763   7.574 -0.5497 -0.0409 -0.8396
   31CHL1   H17 2245   4.951   3.830   7.563  1.0446  2.6376  1.5084
   31CHL1   C13 2246   5.059   3.670   7.447 -0.2758  0.0721 -0.0710
   31CHL1   C18 2247   5.166   3.565   7.478 -0.2695  0.2356  0.1851
   31CHL1  H18A 2248   5.224   3.533   7.388 -0.1632 -0.0098  0.3406
   31CHL1  H18B 2249   5.241   3.608   7.548  1.0227  2.3044 -2.2898
   31CHL1  H18C 2250   5.131   3.478   7.536  1.9129 -1.4081 -0.7883
   31CHL1   C12 2251   4.934   3.598   7.388 -0.8941 -0.4357 -0.2323
   31CHL1  H12A 2252   4.914   3.513   7.457 -1.2240 -0.4870 -0.3923
   31CHL1  H12B 2253   4.843   3.662   7.380 -1.9161 -1.8307 -0.0361
   31CHL1   C11 2254   4.971   3.535   7.259  0.0079 -0.4419  0.2918
   31CHL1  H11A 2255   5.048   3.456   7.275 -2.1195 -2.7325 -0.1763
   31CHL1  H11B 2256   4.886   3.482   7.211 -1.2033  0.8889  0.9021
   31CHL1    C9 2257   5.024   3.633   7.153  0.1318  0.3309 -0.4196
   31CHL1    H9 2258   4.940   3.706   7.154 -0.2916 -0.1046  1.9989
   31CHL1   C10 2259   5.046   3.571   7.013  0.3126 -0.1867 -0.1104
   31CHL1   C19 2260   5.160   3.461   7.020 -0.7614 -0.4693 -0.3125
   31CHL1  H19A 2261   5.133   3.391   7.102  1.1469  0.3491  1.0929
   31CHL1  H19B 2262   5.190   3.408   6.928  1.8242  0.7222 -0.2448
   31CHL1  H19C 2263   5.256   3.502   7.057  0.1711 -1.2016 -1.8409
   31CHL1    C1 2264   4.909   3.519   6.957  0.2802  0.0936  0.6577
   31CHL1   H1A 2265   4.883   3.437   7.027  0.6556  0.3151  1.0625
   31CHL1   H1B 2266   4.829   3.593   6.977 -2.2421 -1.6672 -2.0574
   31CHL1    C2 2267   4.898   3.484   6.807  0.3898 -0.1370 -0.0083
   31CHL1   H2A 2268   4.793   3.451   6.791  1.4954 -3.3486 -1.6437
   31CHL1   H2B 2269   4.969   3.402   6.784 -0.1553 -0.6105 -0.0451
   31CHL1   C20 2270   5.025   3.712   7.721 -0.0234 -0.9122 -0.0066
   31CHL1   H20 2271   5.109   3.642   7.741  0.7941 -0.0282 -0.2729
   31CHL1   C21 2272   4.896   3.631   7.717  0.3041  0.3676 -0.1291
   31CHL1  H21A 2273   4.845   3.627   7.816  0.7115 -0.7844  0.0492
   31CHL1  H21B 2274   4.932   3.528   7.696  1.9554  0.7851  0.5318
   31CHL1  H21C 2275   4.829   3.662   7.634  0.4254  0.5708 -0.1507
   31CHL1   C22 2276   5.022   3.825   7.828  0.0108 -0.4193  0.0522
   31CHL1  H22A 2277   5.126   3.863   7.823 -0.8605  1.9348 -2.4212
   31CHL1  H22B 2278   4.947   3.904   7.809 -1.1064 -1.3688  0.4163
   31CHL1   C23 2279   5.015   3.775   7.973  0.3292 -0.1824 -0.0177
   31CHL1  H23A 2280   4.910   3.743   7.990 -0.6307  1.9557 -1.4692
   31CHL1  H23B 2281   5.082   3.687   7.981 -1.2729 -1.4732 -0.3544
   31CHL1   C24 2282   5.047   3.892   8.067 -0.8138  0.1139  0.0605
   31CHL1  H24A 2283   5.151   3.917   8.039 -0.8183  1.8728  1.4341
   31CHL1  H24B 2284   4.989   3.978   8.028  1.6078  2.5141  1.4313
   31CHL1   C25 2285   5.039   3.864   8.219 -0.7265  1.1421  0.5554
   31CHL1   H25 2286   4.937   3.850   8.261 -0.4231  0.5575  1.1220
   31CHL1   C26 2287   5.107   3.729   8.247  0.5283 -0.0816  0.1899
   31CHL1  H26A 2288   5.208   3.742   8.202 -0.1566  2.7013 -0.7437
   31CHL1  H26B 2289   5.118   3.718   8.357  0.7353  2.0773  0.4111
   31CHL1  H26C 2290   5.051   3.643   8.203 -1.4871  0.5673  1.3741
   31CHL1   C27 2291   5.114   3.973   8.283  0.1393 -0.0193 -0.5897
   31CHL1  H27A 2292   5.216   3.993   8.245 -0.3592  1.0804 -1.3943
   31CHL1  H27B 2293   5.124   3.958   8.393  0.6585  1.2456 -0.4519
   31CHL1  H27C 2294   5.066   4.073   8.277 -0.1224 -0.1670 -1.0066
   32CHL1    C3 2295   5.934   1.581   6.972 -0.2743  0.3562  0.0624
   32CHL1    H3 2296   5.838   1.634   6.991 -0.5824  0.2397 -1.0794
   32CHL1    O3 2297   5.945   1.565   6.829 -0.4796 -0.0496  0.4363
   32CHL1   H3' 2298   6.037   1.545   6.808 -0.4545  1.6603 -1.4335
   32CHL1    C4 2299   6.043   1.674   7.025  0.1020  0.1553 -0.4266
   32CHL1   H4A 2300   6.138   1.632   6.985 -0.2193  0.1648 -1.2108
   32CHL1   H4B 2301   6.030   1.770   6.972 -2.1742 -0.1177 -0.4293
   32CHL1    C5 2302   6.049   1.690   7.178  1.1143  0.4200 -0.9599
   32CHL1    C6 2303   6.041   1.811   7.238 -0.0565  0.6895  0.4762
   32CHL1    H6 2304   6.034   1.895   7.167 -0.7797 -1.8163 -2.6845
   32CHL1    C7 2305   6.043   1.833   7.388 -0.2125 -0.2978  0.3610
   32CHL1   H7A 2306   6.126   1.906   7.403 -0.5661  0.1742  0.0602
   32CHL1   H7B 2307   5.943   1.865   7.424 -0.6933 -0.6294 -0.6431
   32CHL1    C8 2308   6.091   1.703   7.459  0.4890  0.7448 -0.0014
   32CHL1    H8 2309   6.199   1.697   7.434  0.5396  0.8819  0.1761
   32CHL1   C14 2310   6.076   1.706   7.607  0.4290 -0.2221  0.4472
   32CHL1   H14 2311   5.970   1.695   7.638  0.4459 -2.2164 -0.0372
   32CHL1   C15 2312   6.131   1.835   7.676 -0.4526 -0.4998 -0.5656
   32CHL1  H15A 2313   6.224   1.873   7.628  1.6921 -1.9825  2.0707
   32CHL1  H15B 2314   6.047   1.906   7.669 -1.3755 -1.4952  0.0432
   32CHL1   C16 2315   6.163   1.797   7.821 -0.5517  0.1011 -0.1677
   32CHL1  H16A 2316   6.254   1.844   7.863  0.2435 -0.8260 -0.8329
   32CHL1  H16B 2317   6.101   1.849   7.897  2.1533  1.4096  1.2641
   32CHL1   C17 2318   6.137   1.643   7.837  0.3349 -0.1927  0.4936
   32CHL1   H17 2319   6.036   1.622   7.877  0.5343 -1.7450  0.2361
   32CHL1   C13 2320   6.138   1.596   7.688 -1.3803 -0.3841  0.3129
   32CHL1   C18 2321   6.288   1.581   7.655 -0.3437  0.2609 -0.6859
   32CHL1  H18A 2322   6.312   1.569   7.547 -0.1563  1.5419 -0.7995
   32CHL1  H18B 2323   6.346   1.670   7.687 -1.8238  1.8837 -2.2900
   32CHL1  H18C 2324   6.330   1.490   7.705  0.9563  0.9281 -0.5223
   32CHL1   C12 2325   6.058   1.471   7.653  0.6808  0.1067 -0.0708
   32CHL1  H12A 2326   6.087   1.379   7.708 -1.8470 -0.7534 -0.0639
   32CHL1  H12B 2327   5.954   1.498   7.681  0.5584  1.8299 -1.9853
   32CHL1   C11 2328   6.067   1.449   7.502 -0.2694  0.4928 -0.2013
   32CHL1  H11A 2329   6.172   1.419   7.484 -0.3255  0.0837  0.1310
   32CHL1  H11B 2330   6.003   1.364   7.471  0.1701  0.6122 -1.4776
   32CHL1    C9 2331   6.026   1.570   7.406 -0.7539 -0.1701 -0.3102
   32CHL1    H9 2332   5.920   1.597   7.426 -1.6171 -2.8526 -0.8076
   32CHL1   C10 2333   6.045   1.549   7.252  0.0081 -0.5802  1.2675
   32CHL1   C19 2334   6.190   1.500   7.233  0.4971  0.2688 -0.1892
   32CHL1  H19A 2335   6.203   1.392   7.255 -1.6570 -0.2737 -1.3207
   32CHL1  H19B 2336   6.216   1.504   7.126  2.5821  1.2013  0.3043
   32CHL1  H19C 2337   6.264   1.561   7.290  2.5685 -1.1364 -1.2694
   32CHL1    C1 2338   5.942   1.458   7.188 -0.0502  0.1071 -0.3584
   32CHL1   H1A 2339   5.962   1.351   7.209  0.2477  0.1344 -0.4874
   32CHL1   H1B 2340   5.840   1.481   7.226 -0.9651 -1.1383 -1.9195
   32CHL1    C2 2341   5.938   1.450   7.034  0.2310  0.2259 -0.3066
   32CHL1   H2A 2342   5.847   1.398   6.997  0.1136  0.6804 -0.6578
   32CHL1   H2B 2343   6.028   1.397   6.997 -0.9495 -1.6296 -0.6806
   32CHL1   C20 2344   6.229   1.578   7.937 -0.2830  0.3267 -0.3526
   32CHL1   H20 2345   6.335   1.579   7.905  0.5829 -0.9375  2.2416
   32CHL1   C21 2346   6.182   1.434   7.960  0.1091  0.2294  0.2618
   32CHL1  H21A 2347   6.074   1.407   7.964  0.6429 -2.0753  1.0018
   32CHL1  H21B 2348   6.212   1.403   8.063  0.1371  0.3412  0.2882
   32CHL1  H21C 2349   6.235   1.369   7.887  1.0764  1.6382 -0.3269
   32CHL1   C22 2350   6.240   1.657   8.068  0.1791 -0.7197 -0.2380
   32CHL1  H22A 2351   6.281   1.760   8.060 -0.2523 -0.6612 -2.1758
   32CHL1  H22B 2352   6.144   1.674   8.122  0.0753  0.7215 -0.8300
   32CHL1   C23 2353   6.331   1.602   8.174  0.3806  0.0913  0.0694
   32CHL1  H23A 2354   6.309   1.502   8.218  0.5148  0.3477  0.7356
   32CHL1  H23B 2355   6.430   1.596   8.126  0.4401  0.4967  0.1383
   32CHL1   C24 2356   6.355   1.692   8.297  0.4066 -0.0148  0.6687
   32CHL1  H24A 2357   6.428   1.637   8.360 -0.2357  0.5222  1.9186
   32CHL1  H24B 2358   6.399   1.791   8.276 -0.6871  0.2172 -0.7551
   32CHL1   C25 2359   6.235   1.711   8.390 -0.2316 -0.0701  0.2586
   32CHL1   H25 2360   6.147   1.736   8.327 -1.1093 -1.1813  0.9961
   32CHL1   C26 2361   6.187   1.576   8.455 -0.1317  0.1931  0.0902
   32CHL1  H26A 2362   6.276   1.515   8.480 -0.6448 -2.9601 -4.4493
   32CHL1  H26B 2363   6.107   1.605   8.527  0.4574 -0.6177  1.0970
   32CHL1  H26C 2364   6.131   1.505   8.390  2.2679 -2.7104  0.9766
   32CHL1   C27 2365   6.256   1.820   8.488 -0.5526  0.2971 -0.0706
   32CHL1  H27A 2366   6.168   1.815   8.556  0.3330  2.3533  1.3551
   32CHL1  H27B 2367   6.345   1.794   8.549  1.4588  0.9573 -2.5797
   32CHL1  H27C 2368   6.274   1.917   8.436  2.2365 -0.4235 -0.5787
   33CHL1    C3 2369   6.250   0.891   6.948  0.5653 -0.5069 -0.1590
   33CHL1    H3 2370   6.166   0.825   6.975 -0.8594  0.7415 -1.3600
   33CHL1    O3 2371   6.275   0.909   6.807  0.3809 -0.5169  0.5751
   33CHL1   H3' 2372   6.350   0.968   6.802 -0.4285  0.5173  0.4233
   33CHL1    C4 2373   6.239   1.030   7.020 -0.5116  0.9785 -0.6221
   33CHL1   H4A 2374   6.331   1.088   6.994  0.8531 -0.7377  0.1574
   33CHL1   H4B 2375   6.158   1.095   6.980 -0.0889  1.3716 -0.8520
   33CHL1    C5 2376   6.232   1.015   7.170  0.1394  0.4818  0.4674
   33CHL1    C6 2377   6.122   1.062   7.226  0.1227  0.1219  0.2366
   33CHL1    H6 2378   6.054   1.124   7.166 -0.1991  0.3222  0.8010
   33CHL1    C7 2379   6.101   1.055   7.376 -0.2924  0.1759 -0.5021
   33CHL1   H7A 2380   6.043   1.144   7.405  0.5498  1.1350 -1.6552
   33CHL1   H7B 2381   6.036   0.967   7.396 -0.9433  0.8808  0.5559
   33CHL1    C8 2382   6.232   1.028   7.458 -0.5346  0.0454 -1.0674
   33CHL1    H8 2383   6.295   1.119   7.462 -1.0179  0.3370  1.4126
   33CHL1   C14 2384   6.193   0.981   7.597  0.1215  0.0623  0.0464
   33CHL1   H14 2385   6.142   0.882   7.586 -1.8063  0.6566  2.5309
   33CHL1   C15 2386   6.081   1.061   7.662 -0.6179  0.2332 -0.8881
   33CHL1  H15A 2387   6.081   1.171   7.646 -0.0729  0.1332 -1.6689
   33CHL1  H15B 2388   5.976   1.028   7.645 -1.1945  2.0638 -1.1769
   33CHL1   C16 2389   6.111   1.043   7.807 -0.3989 -0.1328 -0.2713
   33CHL1  H16A 2390   6.130   1.142   7.853 -0.3461 -0.2558 -0.0245
   33CHL1  H16B 2391   6.033   0.990   7.866  1.3268 -0.2214  2.0909
   33CHL1   C17 2392   6.225   0.939   7.821 -0.4330  0.7475  0.0070
   33CHL1   H17 2393   6.185   0.836   7.813  1.3449  0.1180 -1.6048
   33CHL1   C13 2394   6.305   0.964   7.701 -0.4261  0.2603  0.7236
   33CHL1   C18 2395   6.386   1.094   7.710 -0.2938  0.0739 -0.0720
   33CHL1  H18A 2396   6.438   1.105   7.613 -1.9746  1.6635 -0.8389
   33CHL1  H18B 2397   6.328   1.188   7.720 -0.2439  1.0316 -5.6606
   33CHL1  H18C 2398   6.460   1.087   7.793 -0.6935 -1.4957  0.1998
   33CHL1   C12 2399   6.387   0.844   7.640  0.0173  0.7605 -0.1079
   33CHL1  H12A 2400   6.484   0.835   7.694  0.0870  0.7470 -0.2357
   33CHL1  H12B 2401   6.331   0.750   7.651  0.6707  0.4297  0.4582
   33CHL1   C11 2402   6.424   0.859   7.489 -0.1414 -0.0518 -0.0874
   33CHL1  H11A 2403   6.502   0.937   7.484 -0.5922  0.5815  1.9037
   33CHL1  H11B 2404   6.480   0.767   7.465 -0.3292 -0.5831  1.3896
   33CHL1    C9 2405   6.306   0.909   7.394  0.2520 -0.3804 -0.2163
   33CHL1    H9 2406   6.235   0.823   7.395  0.1830 -0.4556 -2.8331
   33CHL1   C10 2407   6.347   0.936   7.240 -0.3459  0.6715 -0.1069
   33CHL1   C19 2408   6.474   1.033   7.237  0.3413  0.2773 -0.9669
   33CHL1  H19A 2409   6.451   1.133   7.278 -0.6238 -1.2161  2.5138
   33CHL1  H19B 2410   6.565   0.988   7.284 -1.0372 -1.7718 -0.1085
   33CHL1  H19C 2411   6.514   1.045   7.134  3.2936 -0.5323 -0.0301
   33CHL1    C1 2412   6.374   0.803   7.168 -0.6456  0.1411  0.6159
   33CHL1   H1A 2413   6.476   0.767   7.193 -0.3637 -0.7850 -1.6816
   33CHL1   H1B 2414   6.300   0.727   7.201 -2.4009  0.0466 -3.0952
   33CHL1    C2 2415   6.371   0.820   7.012 -0.1597 -0.1067 -0.1294
   33CHL1   H2A 2416   6.388   0.723   6.959 -3.5876 -1.2049  0.5159
   33CHL1   H2B 2417   6.457   0.887   6.995  0.2095 -0.8213 -1.2165
   33CHL1   C20 2418   6.301   0.943   7.958  0.3118  0.4150  0.3495
   33CHL1   H20 2419   6.341   1.046   7.966  0.5309  0.8460 -4.0229
   33CHL1   C21 2420   6.428   0.863   7.963  0.3135  0.4227 -0.5165
   33CHL1  H21A 2421   6.483   0.877   8.059  0.0941  2.4637 -0.6415
   33CHL1  H21B 2422   6.507   0.890   7.891 -0.3230  0.3328 -1.2612
   33CHL1  H21C 2423   6.411   0.754   7.947 -0.7539  0.5009 -0.0457
   33CHL1   C22 2424   6.197   0.907   8.064  0.4799  0.6682 -0.3364
   33CHL1  H22A 2425   6.095   0.951   8.052  0.2701  0.9243  2.0033
   33CHL1  H22B 2426   6.190   0.797   8.078  0.5324  0.7698  0.5195
   33CHL1   C23 2427   6.241   0.963   8.198 -0.3739 -0.2691 -0.6534
   33CHL1  H23A 2428   6.348   0.937   8.213  0.4464  1.6647 -2.6335
   33CHL1  H23B 2429   6.228   1.073   8.206 -1.7516 -0.4147 -0.6202
   33CHL1   C24 2430   6.153   0.900   8.306  0.3611  0.2997 -0.0368
   33CHL1  H24A 2431   6.051   0.941   8.295 -0.6868 -1.3189  2.5640
   33CHL1  H24B 2432   6.163   0.791   8.285  2.3838  0.3240  0.5094
   33CHL1   C25 2433   6.203   0.915   8.456  0.1969 -0.3730  0.2391
   33CHL1   H25 2434   6.133   0.854   8.517 -2.2259  1.6944 -0.2683
   33CHL1   C26 2435   6.343   0.852   8.474  0.5674 -0.3534 -0.3121
   33CHL1  H26A 2436   6.417   0.903   8.408 -2.0287 -0.8126 -3.8738
   33CHL1  H26B 2437   6.376   0.862   8.580 -1.3275 -4.2206  0.8482
   33CHL1  H26C 2438   6.343   0.744   8.449  2.4572 -0.2117 -1.0985
   33CHL1   C27 2439   6.207   1.056   8.506  0.1513  0.1361 -0.4959
   33CHL1  H27A 2440   6.265   1.063   8.600  0.1402 -0.0786 -0.4730
   33CHL1  H27B 2441   6.249   1.130   8.434  1.6141  0.5784  0.7675
   33CHL1  H27C 2442   6.103   1.090   8.525 -0.5367 -1.0541 -1.9488
   34CHL1    C3 2443   0.235   1.061   7.244  0.0893 -0.2228  0.9899
   34CHL1    H3 2444   0.344   1.077   7.229 -0.1828  1.1692  0.2905
   34CHL1    O3 2445   0.177   1.049   7.113  0.1150  0.8876  0.2183
   34CHL1   H3' 2446   0.244   1.078   7.051 -0.3109  2.3883  0.4227
   34CHL1    C4 2447   0.212   0.932   7.321  0.3345 -0.6985 -0.1172
   34CHL1   H4A 2448   0.103   0.911   7.320  0.4310 -1.2781  0.4855
   34CHL1   H4B 2449   0.259   0.840   7.282 -0.1162 -1.2724  0.6572
   34CHL1    C5 2450   0.244   0.944   7.471 -0.2861 -0.1418 -0.8978
   34CHL1    C6 2451   0.326   0.860   7.526  0.1029  0.1413 -0.2571
   34CHL1    H6 2452   0.378   0.786   7.464  3.4674 -0.5791  3.0402
   34CHL1    C7 2453   0.375   0.864   7.671 -0.2388  0.0670  0.6236
   34CHL1   H7A 2454   0.383   0.759   7.705 -0.0615  0.5122  2.0105
   34CHL1   H7B 2455   0.479   0.904   7.672 -0.6162  1.0749  1.1607
   34CHL1    C8 2456   0.292   0.958   7.759  0.2818 -0.5832  0.4840
   34CHL1    H8 2457   0.190   0.922   7.784  0.5254 -2.0109 -0.4414
   34CHL1   C14 2458   0.362   0.986   7.887 -0.0707 -0.0648 -0.1840
   34CHL1   H14 2459   0.459   1.030   7.857  0.4086 -0.2028  1.0977
   34CHL1   C15 2460   0.391   0.864   7.981 -0.4295  0.3165 -0.3625
   34CHL1  H15A 2461   0.318   0.781   7.970  2.9491 -3.1015  0.7882
   34CHL1  H15B 2462   0.484   0.807   7.956 -1.1960 -0.9538 -0.4072
   34CHL1   C16 2463   0.409   0.921   8.125 -0.3302 -0.1584  0.2305
   34CHL1  H16A 2464   0.319   0.878   8.172 -1.1226 -1.0820 -2.0365
   34CHL1  H16B 2465   0.500   0.883   8.176  0.2608 -0.5904 -1.0948
   34CHL1   C17 2466   0.401   1.072   8.105  0.1558 -0.1529  0.5847
   34CHL1   H17 2467   0.503   1.106   8.076  0.9926 -0.2978  3.0760
   34CHL1   C13 2468   0.303   1.095   7.982 -0.5635  0.1312 -0.2066
   34CHL1   C18 2469   0.157   1.050   8.031  0.1809 -0.0778  0.1121
   34CHL1  H18A 2470   0.118   1.130   8.098 -0.2342 -0.5429  0.4304
   34CHL1  H18B 2471   0.093   1.046   7.941 -1.5270  0.4846  1.2575
   34CHL1  H18C 2472   0.148   0.949   8.078  1.6621  0.2559  1.2098
   34CHL1   C12 2473   0.308   1.222   7.898  0.1118 -0.0002  0.8798
   34CHL1  H12A 2474   0.271   1.305   7.962 -1.2520 -0.1131  0.2696
   34CHL1  H12B 2475   0.414   1.242   7.871 -0.2695  0.7398 -0.1092
   34CHL1   C11 2476   0.224   1.209   7.768 -0.4352 -0.3998  0.3430
   34CHL1  H11A 2477   0.116   1.199   7.792 -0.6822  1.6307  0.1936
   34CHL1  H11B 2478   0.224   1.310   7.721  0.6313 -0.4966  0.1046
   34CHL1    C9 2479   0.277   1.092   7.681  0.2227  0.2673 -0.0759
   34CHL1    H9 2480   0.381   1.120   7.654  0.4514 -0.1429  0.3747
   34CHL1   C10 2481   0.202   1.075   7.546  0.7096  0.6093 -0.8210
   34CHL1   C19 2482   0.048   1.051   7.578 -0.0742 -0.5154  1.0962
   34CHL1  H19A 2483   0.002   1.147   7.610 -0.9087 -0.4379 -0.2275
   34CHL1  H19B 2484  -0.002   1.021   7.483  1.2927 -1.2296  0.5780
   34CHL1  H19C 2485   0.028   0.982   7.662 -0.5227 -0.6950  0.8482
   34CHL1    C1 2486   0.223   1.192   7.451  0.1602  0.0131  0.7709
   34CHL1   H1A 2487   0.180   1.281   7.500  1.8489  0.4319  1.5710
   34CHL1   H1B 2488   0.333   1.203   7.439  0.0740 -0.7724 -1.1097
   34CHL1    C2 2489   0.167   1.174   7.309  0.4433  0.4215  0.4752
   34CHL1   H2A 2490   0.196   1.263   7.249 -1.6277  1.2428  0.6006
   34CHL1   H2B 2491   0.056   1.164   7.309  0.4728 -0.0117 -0.2628
   34CHL1   C20 2492   0.377   1.164   8.227  0.0484 -0.0666  0.0463
   34CHL1   H20 2493   0.268   1.170   8.245 -0.1490 -0.8016 -0.8369
   34CHL1   C21 2494   0.439   1.305   8.197 -0.6860 -0.9314 -0.6196
   34CHL1  H21A 2495   0.425   1.374   8.282  1.1256  1.3262 -2.0288
   34CHL1  H21B 2496   0.394   1.351   8.106  0.7161 -1.5221 -1.6648
   34CHL1  H21C 2497   0.550   1.304   8.194 -0.6422 -1.8691  0.7191
   34CHL1   C22 2498   0.449   1.111   8.352 -0.0443 -0.1895 -0.2789
   34CHL1  H22A 2499   0.426   1.004   8.366 -0.0832 -0.1517 -0.0365
   34CHL1  H22B 2500   0.559   1.115   8.338 -0.0146  0.0429 -0.0064
   34CHL1   C23 2501   0.412   1.178   8.482 -0.0137 -0.0206  0.3960
   34CHL1  H23A 2502   0.489   1.143   8.554 -1.2603 -0.9026  1.3418
   34CHL1  H23B 2503   0.410   1.289   8.473  0.0118 -0.1947 -3.7047
   34CHL1   C24 2504   0.274   1.123   8.529 -0.6103  0.2544 -0.4585
   34CHL1  H24A 2505   0.193   1.150   8.459 -2.7701  3.1662  2.7883
   34CHL1  H24B 2506   0.280   1.012   8.538 -2.2881  0.1962  0.5318
   34CHL1   C25 2507   0.236   1.176   8.673  0.5405 -0.1291 -0.2341
   34CHL1   H25 2508   0.321   1.155   8.741 -0.4629 -2.2201  0.4488
   34CHL1   C26 2509   0.207   1.327   8.672 -0.4789 -0.5773  0.7879
   34CHL1  H26A 2510   0.299   1.388   8.657 -1.4220  0.8928  0.7534
   34CHL1  H26B 2511   0.137   1.366   8.595  1.3099  1.9448  0.2986
   34CHL1  H26C 2512   0.153   1.346   8.767 -0.3763  0.9970  0.5640
   34CHL1   C27 2513   0.108   1.105   8.729  0.5655 -0.0323 -0.1898
   34CHL1  H27A 2514   0.025   1.127   8.658 -0.0522 -1.4578  0.0569
   34CHL1  H27B 2515   0.126   0.996   8.739  0.3287 -0.1483 -0.9662
   34CHL1  H27C 2516   0.057   1.144   8.820 -0.3310 -1.6482  0.0392
   35CHL1    C3 2517   4.452   1.859   7.310  0.3055 -0.0443 -0.5288
   35CHL1    H3 2518   4.435   1.968   7.325  0.7192 -0.0449 -0.0200
   35CHL1    O3 2519   4.423   1.827   7.175  0.3301  0.5369 -0.7571
   35CHL1   H3' 2520   4.451   1.907   7.130  2.9023 -0.4015 -1.0123
   35CHL1    C4 2521   4.592   1.810   7.340  0.3117  0.0213  0.3795
   35CHL1   H4A 2522   4.596   1.702   7.314 -1.7735 -0.1632  0.6323
   35CHL1   H4B 2523   4.657   1.866   7.269 -1.2764  0.0348 -1.1438
   35CHL1    C5 2524   4.628   1.839   7.483 -0.2366  1.3108  0.7248
   35CHL1    C6 2525   4.737   1.909   7.520  0.1016 -0.4244 -0.0484
   35CHL1    H6 2526   4.797   1.950   7.438 -1.6714  2.2107 -0.1546
   35CHL1    C7 2527   4.780   1.920   7.666 -0.2225  0.1856  0.7715
   35CHL1   H7A 2528   4.887   1.892   7.674 -0.3281  0.1627  2.7138
   35CHL1   H7B 2529   4.779   2.022   7.710  0.4027 -0.2103  1.7248
   35CHL1    C8 2530   4.704   1.832   7.767 -0.9789 -0.2174  0.1491
   35CHL1    H8 2531   4.746   1.730   7.754  1.6298  0.8809 -0.5865
   35CHL1   C14 2532   4.734   1.862   7.910  0.0131  0.5406  0.5049
   35CHL1   H14 2533   4.683   1.960   7.917  0.4143  0.7641  0.3615
   35CHL1   C15 2534   4.883   1.886   7.951  0.9743 -1.2146  0.1832
   35CHL1  H15A 2535   4.950   1.817   7.896  0.5131 -3.0407  1.8323
   35CHL1  H15B 2536   4.901   1.993   7.926 -0.6822 -1.0685 -0.5883
   35CHL1   C16 2537   4.881   1.864   8.104  0.0302  0.4936  0.4145
   35CHL1  H16A 2538   4.944   1.775   8.124  0.1102  0.8621  1.9382
   35CHL1  H16B 2539   4.924   1.958   8.144  1.8048  0.9224 -2.2452
   35CHL1   C17 2540   4.731   1.832   8.141 -0.3340 -0.2627  0.5530
   35CHL1   H17 2541   4.678   1.928   8.157 -1.0290 -0.3704 -0.8976
   35CHL1   C13 2542   4.674   1.770   8.016 -0.9185  0.9686 -0.7163
   35CHL1   C18 2543   4.735   1.627   8.005  0.2468 -0.7717  0.1331
   35CHL1  H18A 2544   4.669   1.573   7.934 -1.0143  0.5563  0.2576
   35CHL1  H18B 2545   4.841   1.620   7.971 -0.0501 -1.4735 -0.6801
   35CHL1  H18C 2546   4.732   1.568   8.099  3.6144 -0.0433  0.8260
   35CHL1   C12 2547   4.522   1.788   7.988 -0.5855  0.1820 -0.3710
   35CHL1  H12A 2548   4.458   1.724   8.052 -1.0303  2.9619  2.1482
   35CHL1  H12B 2549   4.494   1.893   8.008 -0.0102  0.4943 -1.1829
   35CHL1   C11 2550   4.483   1.744   7.841  0.2635 -0.1514 -0.2926
   35CHL1  H11A 2551   4.498   1.634   7.836  1.4307 -0.0476  0.5158
   35CHL1  H11B 2552   4.373   1.757   7.837  0.3289  0.3223 -0.5834
   35CHL1    C9 2553   4.555   1.828   7.732 -0.0992 -0.4471 -0.0972
   35CHL1    H9 2554   4.520   1.932   7.748  1.3285  0.0059  0.2537
   35CHL1   C10 2555   4.532   1.781   7.589  0.2882  0.1949  0.2085
   35CHL1   C19 2556   4.539   1.625   7.577 -0.3034 -0.9002 -0.1011
   35CHL1  H19A 2557   4.457   1.576   7.633  1.1815 -1.9684  1.2408
   35CHL1  H19B 2558   4.533   1.587   7.473  1.2242  1.3308 -1.0862
   35CHL1  H19C 2559   4.636   1.591   7.621 -0.5855 -1.5237  0.0517
   35CHL1    C1 2560   4.381   1.818   7.547  0.0685 -0.2227 -0.0056
   35CHL1   H1A 2561   4.313   1.756   7.610 -1.1506 -0.0178 -1.1029
   35CHL1   H1B 2562   4.370   1.926   7.572 -0.9287 -0.5684  1.1724
   35CHL1    C2 2563   4.344   1.804   7.401  0.1919 -0.1072 -0.0325
   35CHL1   H2A 2564   4.248   1.856   7.378  0.2649 -0.0797 -0.2760
   35CHL1   H2B 2565   4.341   1.696   7.374 -1.8404 -0.0456 -0.2676
   35CHL1   C20 2566   4.724   1.758   8.278  0.0737 -0.5053 -0.1077
   35CHL1   H20 2567   4.790   1.669   8.284 -0.4946 -0.9459 -0.2324
   35CHL1   C21 2568   4.579   1.720   8.303  0.4691  0.4376  0.2649
   35CHL1  H21A 2569   4.551   1.624   8.256  0.5394  0.4372  0.2239
   35CHL1  H21B 2570   4.519   1.809   8.277  1.8132  1.1268 -0.5863
   35CHL1  H21C 2571   4.563   1.707   8.413 -3.1413  2.1699  0.0775
   35CHL1   C22 2572   4.769   1.862   8.388 -0.2465 -0.1059  0.2936
   35CHL1  H22A 2573   4.736   1.963   8.356  1.1695  0.5998  0.9786
   35CHL1  H22B 2574   4.716   1.840   8.483  0.2840  1.1825  0.9108
   35CHL1   C23 2575   4.917   1.855   8.424  0.7123  0.4897  0.5994
   35CHL1  H23A 2576   4.946   1.750   8.445 -1.7956 -0.7257 -1.4993
   35CHL1  H23B 2577   4.974   1.870   8.330  1.2994 -0.4021  0.7945
   35CHL1   C24 2578   4.969   1.941   8.539  0.3324  0.3462  0.8402
   35CHL1  H24A 2579   4.954   2.049   8.518 -1.0542  0.2051  0.9966
   35CHL1  H24B 2580   4.917   1.913   8.633 -0.7603 -2.5267 -0.5014
   35CHL1   C25 2581   5.125   1.914   8.565 -0.0308 -0.3221 -0.1322
   35CHL1   H25 2582   5.138   1.810   8.602 -1.7129 -1.2277 -1.9044
   35CHL1   C26 2583   5.213   1.942   8.445  0.6783 -0.0312  0.1461
   35CHL1  H26A 2584   5.203   1.853   8.380  2.0379 -1.7937  2.2097
   35CHL1  H26B 2585   5.182   2.037   8.396  0.8944 -0.1062 -0.1396
   35CHL1  H26C 2586   5.317   1.942   8.485  0.1450  0.1040  1.5773
   35CHL1   C27 2587   5.165   2.001   8.688  0.4768  0.0670 -0.5398
   35CHL1  H27A 2588   5.138   2.107   8.668  0.2846  0.2305  0.5187
   35CHL1  H27B 2589   5.275   2.003   8.706  0.3045 -1.4436  0.9323
   35CHL1  H27C 2590   5.111   1.960   8.775 -3.6173  3.6660 -1.0579
   36CHL1    C3 2591   5.891   0.759   7.065 -0.3394  0.2668  0.4110
   36CHL1    H3 2592   5.964   0.842   7.068  1.7415 -1.4886  0.4258
   36CHL1    O3 2593   5.864   0.738   6.926  0.2775  0.1519 -0.1936
   36CHL1   H3' 2594   5.845   0.644   6.918 -1.3792  0.1974  2.1712
   36CHL1    C4 2595   5.951   0.621   7.120  0.1676 -0.6891 -0.7532
   36CHL1   H4A 2596   5.895   0.534   7.077  1.5951 -2.3191  0.5369
   36CHL1   H4B 2597   6.052   0.601   7.079  0.0470 -1.4400 -0.7144
   36CHL1    C5 2598   5.952   0.624   7.275 -0.0728  0.3906  0.1321
   36CHL1    C6 2599   6.061   0.584   7.339  0.2359 -0.1626  0.0327
   36CHL1    H6 2600   6.141   0.530   7.285  1.1918  0.1310  1.1160
   36CHL1    C7 2601   6.068   0.556   7.490 -0.2620  0.0775 -0.7190
   36CHL1   H7A 2602   6.089   0.452   7.521 -1.5836  0.2791  0.9936
   36CHL1   H7B 2603   6.153   0.619   7.524 -0.2842 -0.0664 -0.3984
   36CHL1    C8 2604   5.942   0.585   7.567  0.5076 -0.3578 -1.0904
   36CHL1    H8 2605   5.886   0.489   7.559 -0.8052  0.0969  1.4884
   36CHL1   C14 2606   5.974   0.620   7.710 -0.0283 -0.1590 -0.2407
   36CHL1   H14 2607   6.037   0.712   7.714 -0.0222 -0.2072  1.7578
   36CHL1   C15 2608   6.062   0.513   7.781  0.5924 -0.7856  0.3322
   36CHL1  H15A 2609   6.021   0.414   7.750  0.1397 -0.1700 -1.1538
   36CHL1  H15B 2610   6.166   0.536   7.750  0.9812 -2.5342  0.1950
   36CHL1   C16 2611   6.033   0.533   7.929  0.4547  0.0414  0.3041
   36CHL1  H16A 2612   6.014   0.438   7.983 -1.0815  0.7061  1.0008
   36CHL1  H16B 2613   6.119   0.583   7.977  0.9575  0.2584 -0.7921
   36CHL1   C17 2614   5.914   0.644   7.938 -0.0215 -0.6513  0.5202
   36CHL1   H17 2615   5.963   0.744   7.937  0.4564 -0.8619  1.6065
   36CHL1   C13 2616   5.852   0.636   7.794  0.5750  0.1831  0.1755
   36CHL1   C18 2617   5.750   0.516   7.792 -0.4170  0.5427  0.3873
   36CHL1  H18A 2618   5.811   0.423   7.794 -0.9143  0.2331  1.1117
   36CHL1  H18B 2619   5.669   0.517   7.867 -1.3004 -2.5433 -0.4061
   36CHL1  H18C 2620   5.706   0.521   7.690  1.0217  2.2164 -0.2289
   36CHL1   C12 2621   5.778   0.762   7.729  0.9459 -0.0637  0.0573
   36CHL1  H12A 2622   5.688   0.778   7.792  0.3994 -0.1828 -0.6827
   36CHL1  H12B 2623   5.835   0.857   7.739 -1.8325  1.6613  0.3549
   36CHL1   C11 2624   5.734   0.740   7.588  0.0316 -0.0684 -0.4946
   36CHL1  H11A 2625   5.647   0.671   7.585 -0.1568  0.1740 -0.6531
   36CHL1  H11B 2626   5.684   0.831   7.550 -1.9402 -0.7109  0.4011
   36CHL1    C9 2627   5.869   0.694   7.504  0.2525  0.0221  0.1703
   36CHL1    H9 2628   5.944   0.776   7.508  0.9544 -0.6538  1.0331
   36CHL1   C10 2629   5.830   0.671   7.351  0.3283 -0.9824 -0.0049
   36CHL1   C19 2630   5.724   0.556   7.331  0.2421  0.3408  0.0656
   36CHL1  H19A 2631   5.623   0.593   7.358 -0.1492 -0.6133 -0.0366
   36CHL1  H19B 2632   5.720   0.536   7.221  0.7420 -0.3276  0.1637
   36CHL1  H19C 2633   5.751   0.464   7.387  0.4006  1.0745  1.2179
   36CHL1    C1 2634   5.781   0.802   7.290 -0.5327  0.1450  0.1798
   36CHL1   H1A 2635   5.680   0.830   7.329  0.4277  3.0124  0.8637
   36CHL1   H1B 2636   5.848   0.881   7.328  2.4026 -1.7087 -0.7947
   36CHL1    C2 2637   5.765   0.794   7.138 -0.6604 -1.0938 -0.8530
   36CHL1   H2A 2638   5.721   0.889   7.102  0.9623  0.3465  0.7955
   36CHL1   H2B 2639   5.688   0.715   7.129  1.1330 -3.5178  2.5723
   36CHL1   C20 2640   5.823   0.618   8.064 -0.5660 -0.5786 -0.5530
   36CHL1   H20 2641   5.774   0.518   8.058 -0.3532 -0.6731 -0.7512
   36CHL1   C21 2642   5.716   0.717   8.080 -0.1089  0.0730 -0.0482
   36CHL1  H21A 2643   5.752   0.822   8.083 -2.3290  0.9737 -2.0887
   36CHL1  H21B 2644   5.651   0.701   8.169 -1.1210  1.0211 -0.5990
   36CHL1  H21C 2645   5.657   0.717   7.987  1.5033  1.4951 -1.1306
   36CHL1   C22 2646   5.901   0.600   8.203  0.7271 -0.1516 -0.3239
   36CHL1  H22A 2647   6.005   0.566   8.184  1.0804  1.3120 -1.2040
   36CHL1  H22B 2648   5.916   0.696   8.258 -1.1875  0.1690 -0.3085
   36CHL1   C23 2649   5.821   0.510   8.303 -0.4050  0.8247  0.2741
   36CHL1  H23A 2650   5.711   0.523   8.290 -0.1788  0.1215 -3.4948
   36CHL1  H23B 2651   5.847   0.406   8.275 -1.0285  1.1135 -1.5259
   36CHL1   C24 2652   5.875   0.523   8.448  0.1203 -0.5708 -0.3845
   36CHL1  H24A 2653   5.831   0.439   8.505 -1.9724 -0.5728 -1.8476
   36CHL1  H24B 2654   5.985   0.514   8.440  0.9991  6.1723 -1.5659
   36CHL1   C25 2655   5.837   0.658   8.518  0.3245  0.0797 -0.1909
   36CHL1   H25 2656   5.864   0.743   8.452 -1.0618  0.0660 -0.8076
   36CHL1   C26 2657   5.686   0.679   8.528 -0.3908 -0.2213 -0.0799
   36CHL1  H26A 2658   5.650   0.619   8.615  2.2032  0.5563  1.6827
   36CHL1  H26B 2659   5.665   0.781   8.566 -1.9733  0.2228 -2.0326
   36CHL1  H26C 2660   5.626   0.670   8.435 -2.2218  1.2210  0.9145
   36CHL1   C27 2661   5.906   0.684   8.649 -0.0555 -0.4000  0.2315
   36CHL1  H27A 2662   6.003   0.631   8.654  1.6915  2.2982 -1.9933
   36CHL1  H27B 2663   5.926   0.793   8.664 -0.6206 -0.4726  1.6904
   36CHL1  H27C 2664   5.844   0.637   8.728 -1.2642  1.2747  0.3492
   37CHL1    C3 2665   1.783   1.679   7.025  0.3520  0.4742  0.4248
   37CHL1    H3 2666   1.868   1.612   7.001 -1.7319 -2.1854 -0.0084
   37CHL1    O3 2667   1.753   1.760   6.912 -0.4368  0.1333 -0.1667
   37CHL1   H3' 2668   1.791   1.716   6.835 -0.3338 -1.5222  0.7977
   37CHL1    C4 2669   1.656   1.589   7.051  0.6128 -0.3261  0.8799
   37CHL1   H4A 2670   1.572   1.661   7.049 -0.4653 -1.5027 -2.1281
   37CHL1   H4B 2671   1.642   1.521   6.964  0.9153 -0.2132  0.7414
   37CHL1    C5 2672   1.664   1.520   7.185  0.6962 -0.0747 -0.1158
   37CHL1    C6 2673   1.671   1.387   7.190  0.5068 -0.0709  0.0913
   37CHL1    H6 2674   1.671   1.334   7.093  1.2579 -0.4531  0.2898
   37CHL1    C7 2675   1.678   1.301   7.315  0.0439 -0.8843  0.3976
   37CHL1   H7A 2676   1.609   1.217   7.289  0.2892 -0.1910 -2.9715
   37CHL1   H7B 2677   1.777   1.253   7.324 -0.1287 -1.3132  0.0671
   37CHL1    C8 2678   1.645   1.378   7.436  0.6594 -0.2675 -0.1027
   37CHL1    H8 2679   1.536   1.397   7.436  0.3052 -1.9949 -1.5589
   37CHL1   C14 2680   1.666   1.294   7.568 -0.2131 -0.0811 -0.2623
   37CHL1   H14 2681   1.775   1.271   7.575 -0.3448 -0.4762  0.5194
   37CHL1   C15 2682   1.589   1.164   7.580  0.2185  0.1865 -0.2962
   37CHL1  H15A 2683   1.485   1.196   7.557 -0.0626  0.4289  1.2223
   37CHL1  H15B 2684   1.612   1.073   7.521  0.3585 -1.2671  1.8812
   37CHL1   C16 2685   1.601   1.136   7.733 -0.2953  0.8767 -0.4359
   37CHL1  H16A 2686   1.495   1.118   7.762 -0.2823  0.9846 -0.3219
   37CHL1  H16B 2687   1.661   1.045   7.754  2.1676  2.2055 -1.2481
   37CHL1   C17 2688   1.670   1.256   7.798 -0.1884  0.3570  0.4019
   37CHL1   H17 2689   1.777   1.230   7.784 -0.3089  0.7519 -1.5725
   37CHL1   C13 2690   1.642   1.377   7.699 -0.0078  0.1357 -0.1769
   37CHL1   C18 2691   1.496   1.423   7.715  0.1502 -0.2182  0.0041
   37CHL1  H18A 2692   1.457   1.465   7.620  0.5540  0.0382 -0.0503
   37CHL1  H18B 2693   1.444   1.329   7.743 -1.0440  0.3477 -0.2348
   37CHL1  H18C 2694   1.487   1.500   7.795  0.6190  1.5052 -1.5362
   37CHL1   C12 2695   1.744   1.483   7.697  0.4536 -0.2483 -0.5064
   37CHL1  H12A 2696   1.740   1.541   7.792  0.7216 -2.2870  0.8269
   37CHL1  H12B 2697   1.849   1.448   7.694  1.0993  1.6152 -1.5849
   37CHL1   C11 2698   1.720   1.579   7.580  0.5982 -0.1765 -0.2087
   37CHL1  H11A 2699   1.622   1.630   7.592  0.3848 -0.5416 -0.3603
   37CHL1  H11B 2700   1.802   1.653   7.592  1.9035 -1.6858  0.5361
   37CHL1    C9 2701   1.721   1.510   7.440 -0.3753 -0.0622 -0.7954
   37CHL1    H9 2702   1.823   1.471   7.421 -1.2265 -1.3494 -3.2037
   37CHL1   C10 2703   1.684   1.601   7.316 -0.1095 -0.5431 -0.1361
   37CHL1   C19 2704   1.550   1.676   7.348 -0.3470  0.1879  0.7246
   37CHL1  H19A 2705   1.550   1.735   7.442 -0.8853  1.4119 -0.0208
   37CHL1  H19B 2706   1.532   1.759   7.276 -1.0891 -0.1220  0.5424
   37CHL1  H19C 2707   1.463   1.608   7.346  0.7134 -1.2993  2.2610
   37CHL1    C1 2708   1.802   1.699   7.285 -0.2816 -0.0504  0.3603
   37CHL1   H1A 2709   1.817   1.774   7.366 -1.4015 -0.6183  1.1204
   37CHL1   H1B 2710   1.894   1.637   7.280 -0.7060 -0.5979 -2.5275
   37CHL1    C2 2711   1.812   1.776   7.147 -0.5364  0.1527  0.7001
   37CHL1   H2A 2712   1.904   1.838   7.131 -0.8790  1.2006  2.4781
   37CHL1   H2B 2713   1.732   1.852   7.157  0.8341  1.5458  1.6720
   37CHL1   C20 2714   1.647   1.280   7.945  0.2864 -0.0329  0.5438
   37CHL1   H20 2715   1.573   1.358   7.969  1.9542  1.1713  2.0268
   37CHL1   C21 2716   1.773   1.343   8.008 -0.5901  0.1767 -0.0007
   37CHL1  H21A 2717   1.753   1.376   8.112 -2.0225  1.0893 -0.5388
   37CHL1  H21B 2718   1.823   1.431   7.961  0.3618  0.6253  1.7553
   37CHL1  H21C 2719   1.852   1.266   8.002 -1.3525 -0.9864  2.9794
   37CHL1   C22 2720   1.614   1.153   8.021  0.6746 -0.5408 -0.7910
   37CHL1  H22A 2721   1.518   1.111   7.983 -0.0322 -1.2720  1.6270
   37CHL1  H22B 2722   1.694   1.077   8.012  1.5098  0.2403 -0.0762
   37CHL1   C23 2723   1.579   1.170   8.177  0.1821 -0.3238 -0.0647
   37CHL1  H23A 2724   1.675   1.201   8.223  1.3642 -2.6725 -0.8009
   37CHL1  H23B 2725   1.509   1.257   8.173 -1.0578 -1.0741  2.8183
   37CHL1   C24 2726   1.512   1.055   8.248 -0.3197 -0.3330  0.4354
   37CHL1  H24A 2727   1.412   1.026   8.211  0.2529 -2.1189  0.2059
   37CHL1  H24B 2728   1.568   0.964   8.217 -2.0376 -0.6256 -2.0581
   37CHL1   C25 2729   1.509   1.070   8.406 -0.1890  0.1079 -0.1215
   37CHL1   H25 2730   1.452   1.162   8.432  1.0759  0.4081  1.7772
   37CHL1   C26 2731   1.441   0.938   8.460  0.0177 -0.3881 -0.4497
   37CHL1  H26A 2732   1.340   0.934   8.414 -0.8238 -1.8684  1.4319
   37CHL1  H26B 2733   1.505   0.852   8.431 -1.9111 -2.2101  0.4387
   37CHL1  H26C 2734   1.429   0.934   8.570 -1.9918  0.0537 -0.6221
   37CHL1   C27 2735   1.656   1.073   8.456  0.3519  0.3812  0.6445
   37CHL1  H27A 2736   1.653   1.050   8.564  0.8297 -2.5613  0.1282
   37CHL1  H27B 2737   1.707   0.984   8.412 -0.9424 -0.3150  0.5103
   37CHL1  H27C 2738   1.711   1.165   8.427 -1.1847  0.9408 -0.6328
   38CHL1    C3 2739   4.497   3.831   6.603 -0.2494 -0.2265  0.1078
   38CHL1    H3 2740   4.484   3.940   6.585 -2.3083 -0.3510  0.5830
   38CHL1    O3 2741   4.502   3.777   6.473  0.2076  0.1374  0.8145
   38CHL1   H3' 2742   4.552   3.695   6.481  0.2993  0.2022  0.9044
   38CHL1    C4 2743   4.620   3.789   6.668  0.5474 -0.5437 -0.9501
   38CHL1   H4A 2744   4.624   3.678   6.664  2.1694 -0.5878  0.7997
   38CHL1   H4B 2745   4.700   3.823   6.599  1.0590  0.3577  0.0697
   38CHL1    C5 2746   4.640   3.838   6.809  0.4129 -0.5610 -0.2192
   38CHL1    C6 2747   4.747   3.917   6.845 -0.0513 -0.2476 -1.0932
   38CHL1    H6 2748   4.834   3.934   6.781 -0.5718 -0.5179 -1.8881
   38CHL1    C7 2749   4.760   3.964   6.987 -0.1808  0.3324  0.1464
   38CHL1   H7A 2750   4.865   3.942   7.017 -0.3157  0.7733  0.9466
   38CHL1   H7B 2751   4.753   4.074   6.992 -0.8183  0.2387  2.7069
   38CHL1    C8 2752   4.660   3.898   7.090 -0.0965 -0.0027  0.5261
   38CHL1    H8 2753   4.704   3.799   7.117  1.2720  0.6156  0.6238
   38CHL1   C14 2754   4.650   3.987   7.210 -0.1761  0.6545  0.1582
   38CHL1   H14 2755   4.605   4.085   7.182 -1.1395  0.5634  1.3087
   38CHL1   C15 2756   4.783   4.012   7.283  0.4548 -0.0575  0.6750
   38CHL1  H15A 2757   4.846   3.921   7.288  0.8158  0.0648 -1.0375
   38CHL1  H15B 2758   4.838   4.096   7.234  0.2483  0.4332  1.2705
   38CHL1   C16 2759   4.731   4.069   7.419 -0.2393 -0.5299  0.3629
   38CHL1  H16A 2760   4.787   4.020   7.501 -1.6502 -1.6880  0.6745
   38CHL1  H16B 2761   4.761   4.174   7.440 -0.1763 -0.8735  2.1167
   38CHL1   C17 2762   4.576   4.052   7.421  0.4511  0.7735  0.1183
   38CHL1   H17 2763   4.533   4.143   7.375 -1.0735  1.1198  2.1039
   38CHL1   C13 2764   4.553   3.938   7.317 -0.1144  0.2411 -0.5323
   38CHL1   C18 2765   4.597   3.803   7.381  0.0073  0.1525  0.0754
   38CHL1  H18A 2766   4.688   3.817   7.443  0.1544  2.4554 -0.5899
   38CHL1  H18B 2767   4.521   3.779   7.458  0.5033  2.2365  1.2805
   38CHL1  H18C 2768   4.599   3.723   7.305  0.0054  2.2774 -2.2760
   38CHL1   C12 2769   4.415   3.933   7.253 -0.2238  0.2926 -0.1972
   38CHL1  H12A 2770   4.338   3.891   7.321 -0.1518  0.6164  0.0856
   38CHL1  H12B 2771   4.367   4.031   7.231 -2.5459 -0.3769  1.4998
   38CHL1   C11 2772   4.417   3.839   7.127  0.5799  0.2503 -0.2095
   38CHL1  H11A 2773   4.433   3.739   7.174  1.9772  1.5665  2.3878
   38CHL1  H11B 2774   4.316   3.827   7.085  0.1055  0.5443  0.8056
   38CHL1    C9 2775   4.517   3.885   7.023  0.3091 -0.1373  0.3551
   38CHL1    H9 2776   4.484   3.987   6.993  1.2305 -0.7933 -3.3288
   38CHL1   C10 2777   4.520   3.798   6.894 -0.2319  0.9112  0.1158
   38CHL1   C19 2778   4.528   3.647   6.929 -0.1150 -0.0640 -0.1442
   38CHL1  H19A 2779   4.528   3.580   6.840 -0.7642 -0.8415  0.4278
   38CHL1  H19B 2780   4.624   3.626   6.980 -0.4146 -1.0044  0.0630
   38CHL1  H19C 2781   4.444   3.625   6.998  0.4266 -0.6199  0.3510
   38CHL1    C1 2782   4.383   3.828   6.824  0.2580 -0.4070 -0.2098
   38CHL1   H1A 2783   4.302   3.780   6.882  1.0815  0.6682  1.9379
   38CHL1   H1B 2784   4.367   3.938   6.824  0.8816 -0.3081  0.4218
   38CHL1    C2 2785   4.379   3.774   6.673  0.3720 -0.0498 -0.1664
   38CHL1   H2A 2786   4.282   3.815   6.637  0.2025  1.7627  2.1235
   38CHL1   H2B 2787   4.375   3.663   6.670  1.4282 -0.2435  2.7199
   38CHL1   C20 2788   4.508   4.048   7.560  0.2225 -0.0793 -1.3192
   38CHL1   H20 2789   4.551   3.959   7.611  0.4203  0.7702  0.0626
   38CHL1   C21 2790   4.359   4.036   7.557  0.9207 -0.2425  0.0448
   38CHL1  H21A 2791   4.325   3.938   7.517 -1.6410 -1.3325  4.1773
   38CHL1  H21B 2792   4.310   4.117   7.499 -0.3329 -2.1173 -1.6760
   38CHL1  H21C 2793   4.321   4.043   7.661  0.0385  1.0676 -0.3339
   38CHL1   C22 2794   4.544   4.176   7.640  0.0325  0.1545 -0.8091
   38CHL1  H22A 2795   4.652   4.202   7.635  0.4514 -1.0322  1.1177
   38CHL1  H22B 2796   4.480   4.259   7.602 -1.2170 -1.5822 -2.6987
   38CHL1   C23 2797   4.509   4.158   7.796  1.1857 -0.3121  1.1704
   38CHL1  H23A 2798   4.535   4.256   7.841  0.5523 -0.0984  1.0707
   38CHL1  H23B 2799   4.408   4.125   7.825  0.8666  1.5317  2.3293
   38CHL1   C24 2800   4.605   4.062   7.871 -0.5287  0.1527  0.6704
   38CHL1  H24A 2801   4.655   3.989   7.804 -0.4970 -1.1413  2.0556
   38CHL1  H24B 2802   4.689   4.127   7.904  2.3145 -1.4272 -2.6978
   38CHL1   C25 2803   4.539   3.998   7.996 -1.1424  0.2148  0.7377
   38CHL1   H25 2804   4.485   4.079   8.050  0.4329  0.8721  1.3647
   38CHL1   C26 2805   4.447   3.880   7.948 -0.0334 -0.7987  0.2427
   38CHL1  H26A 2806   4.369   3.920   7.880 -1.2661 -0.4276  1.8260
   38CHL1  H26B 2807   4.504   3.801   7.893 -1.2440  0.3397 -2.9002
   38CHL1  H26C 2808   4.396   3.835   8.035 -0.9948 -3.0075 -1.3608
   38CHL1   C27 2809   4.639   3.930   8.095  0.5371  0.4872 -0.6720
   38CHL1  H27A 2810   4.696   3.849   8.045  0.4379 -0.4747  0.7191
   38CHL1  H27B 2811   4.704   4.008   8.142 -3.2191  4.2990 -1.1633
   38CHL1  H27C 2812   4.590   3.869   8.174  1.3752 -0.5284 -0.9187
   39CHL1    C3 2813   4.321   3.191   6.887  0.1401 -0.2710  0.7509
   39CHL1    H3 2814   4.279   3.294   6.889  1.6343  0.3544  0.8393
   39CHL1    O3 2815   4.315   3.150   6.753 -0.2756 -0.3350  0.1209
   39CHL1   H3' 2816   4.225   3.127   6.727  0.1929 -2.0707 -0.0186
   39CHL1    C4 2817   4.464   3.189   6.942 -0.0270 -0.2252 -0.2436
   39CHL1   H4A 2818   4.496   3.082   6.942 -0.1250 -0.2801 -1.8904
   39CHL1   H4B 2819   4.529   3.246   6.873  0.1786 -0.4475 -0.2363
   39CHL1    C5 2820   4.474   3.240   7.082 -0.8577  0.0129  0.4869
   39CHL1    C6 2821   4.546   3.350   7.115 -0.4917 -0.4738  0.9776
   39CHL1    H6 2822   4.612   3.391   7.037 -0.1273 -4.3592 -0.9881
   39CHL1    C7 2823   4.557   3.398   7.253 -0.4230 -0.6045 -0.6057
   39CHL1   H7A 2824   4.665   3.414   7.275 -0.6893  1.6356 -0.7532
   39CHL1   H7B 2825   4.506   3.496   7.263 -0.9260 -1.0972  2.6479
   39CHL1    C8 2826   4.509   3.307   7.367  0.1914  0.1572 -0.6655
   39CHL1    H8 2827   4.586   3.230   7.384  0.4274  0.1179 -1.8111
   39CHL1   C14 2828   4.496   3.378   7.496  0.4642 -0.9377 -0.6564
   39CHL1   H14 2829   4.422   3.461   7.499 -0.4442 -1.5904  4.1096
   39CHL1   C15 2830   4.618   3.453   7.559 -0.0788  0.0525  0.1630
   39CHL1  H15A 2831   4.694   3.373   7.571 -0.1108 -0.0981 -0.6138
   39CHL1  H15B 2832   4.662   3.546   7.519 -0.3858  0.9646  1.8528
   39CHL1   C16 2833   4.568   3.495   7.698  0.0545  0.5932  0.2054
   39CHL1  H16A 2834   4.645   3.459   7.770 -1.8483  0.1315  2.0908
   39CHL1  H16B 2835   4.539   3.601   7.711  2.7106  1.5274 -0.8363
   39CHL1   C17 2836   4.441   3.394   7.725  0.0990  0.2856 -0.4417
   39CHL1   H17 2837   4.349   3.454   7.706  0.2742 -0.3404 -3.9450
   39CHL1   C13 2838   4.439   3.289   7.611 -0.0246 -0.2655 -0.3226
   39CHL1   C18 2839   4.540   3.173   7.650  0.7905 -0.0745 -0.2215
   39CHL1  H18A 2840   4.590   3.117   7.568  1.0192  0.1456 -0.2321
   39CHL1  H18B 2841   4.630   3.209   7.705  1.6090 -0.8326 -1.0176
   39CHL1  H18C 2842   4.492   3.093   7.711 -0.6056  1.4198  0.6912
   39CHL1   C12 2843   4.306   3.235   7.566  0.1163  0.1915 -0.1956
   39CHL1  H12A 2844   4.249   3.167   7.633 -0.6016 -0.0557 -1.0373
   39CHL1  H12B 2845   4.236   3.322   7.566 -0.2489 -0.0907  1.0192
   39CHL1   C11 2846   4.313   3.146   7.436  0.2737 -0.0541 -0.4289
   39CHL1  H11A 2847   4.367   3.051   7.459  1.9530  0.9798  0.0810
   39CHL1  H11B 2848   4.214   3.103   7.410  0.9593 -3.3452  1.8011
   39CHL1    C9 2849   4.376   3.230   7.325 -0.2525  0.1500  0.2159
   39CHL1    H9 2850   4.309   3.315   7.299  1.0830  1.2760  0.3751
   39CHL1   C10 2851   4.385   3.159   7.190 -0.7492 -0.2463  0.1647
   39CHL1   C19 2852   4.459   3.021   7.201 -0.6506 -0.2252  0.5852
   39CHL1  H19A 2853   4.402   2.949   7.263  2.0152 -1.4804  1.7731
   39CHL1  H19B 2854   4.476   2.967   7.106 -0.3870  0.1157  0.4341
   39CHL1  H19C 2855   4.558   3.038   7.249 -0.2549  1.3838 -0.6899
   39CHL1    C1 2856   4.235   3.137   7.140 -0.3410  0.1435  0.4448
   39CHL1   H1A 2857   4.185   3.054   7.195  0.3446 -2.1241 -2.1633
   39CHL1   H1B 2858   4.169   3.224   7.160 -0.8299 -0.5074  1.8682
   39CHL1    C2 2859   4.223   3.107   6.987 -0.1200 -0.6920  0.6542
   39CHL1   H2A 2860   4.117   3.127   6.960 -0.2210 -1.1770  0.6699
   39CHL1   H2B 2861   4.249   3.002   6.963  1.2305  0.0809 -1.5357
   39CHL1   C20 2862   4.426   3.352   7.879 -0.3954  0.2664  0.2840
   39CHL1   H20 2863   4.517   3.298   7.911 -0.6273 -0.2120  0.1478
   39CHL1   C21 2864   4.309   3.259   7.905  0.2152 -0.6592  0.0998
   39CHL1  H21A 2865   4.216   3.316   7.881  0.4800 -1.1853 -2.4477
   39CHL1  H21B 2866   4.311   3.222   8.009 -0.0254  0.7611  0.6333
   39CHL1  H21C 2867   4.311   3.177   7.829  2.2124 -0.7456  0.2099
   39CHL1   C22 2868   4.418   3.487   7.960 -0.1002 -0.1933  0.8048
   39CHL1  H22A 2869   4.496   3.561   7.935 -2.8981  4.1896  3.7242
   39CHL1  H22B 2870   4.324   3.534   7.925  0.7925  1.0170 -0.0152
   39CHL1   C23 2871   4.407   3.476   8.113  0.6865 -0.1165  0.3977
   39CHL1  H23A 2872   4.311   3.430   8.146  1.0977 -0.0589  1.7576
   39CHL1  H23B 2873   4.487   3.407   8.148 -0.5590 -0.7484  2.2051
   39CHL1   C24 2874   4.420   3.611   8.173 -0.4848  0.0842  0.7081
   39CHL1  H24A 2875   4.514   3.650   8.130 -0.8540 -0.6880 -0.8877
   39CHL1  H24B 2876   4.339   3.673   8.128 -0.5984 -0.4956  0.0950
   39CHL1   C25 2877   4.423   3.590   8.325  0.3333 -0.2634  0.0868
   39CHL1   H25 2878   4.344   3.524   8.365  0.1903 -0.7858 -1.0335
   39CHL1   C26 2879   4.553   3.530   8.381  0.3513  0.3813  0.3069
   39CHL1  H26A 2880   4.550   3.537   8.492 -0.0965 -0.4741  0.3573
   39CHL1  H26B 2881   4.559   3.425   8.346 -1.4069  0.4903 -0.4645
   39CHL1  H26C 2882   4.638   3.589   8.341  1.1466 -1.0017 -0.0907
   39CHL1   C27 2883   4.404   3.729   8.385  0.3471 -0.2240 -0.3868
   39CHL1  H27A 2884   4.381   3.707   8.492  1.0577  0.3470 -0.1088
   39CHL1  H27B 2885   4.488   3.802   8.381 -1.8412  2.4345 -0.5795
   39CHL1  H27C 2886   4.313   3.774   8.340  0.8210 -0.2443 -1.3896
   40CHL1    C3 2887   6.459   2.013   7.039 -0.1510 -0.7141  1.3904
   40CHL1    H3 2888   6.353   2.039   7.059 -0.3687 -0.9177  0.5406
   40CHL1    O3 2889   6.484   2.017   6.895  0.2436  0.1429 -0.5485
   40CHL1   H3' 2890   6.574   2.044   6.877  0.7424 -0.4217  0.9546
   40CHL1    C4 2891   6.541   2.126   7.097  0.0134 -1.0289 -0.4205
   40CHL1   H4A 2892   6.646   2.115   7.062  1.4331  4.0849  1.3022
   40CHL1   H4B 2893   6.510   2.225   7.057  0.5258 -0.7282 -0.0879
   40CHL1    C5 2894   6.541   2.132   7.246  0.2219  0.9688  0.1549
   40CHL1    C6 2895   6.512   2.242   7.316  0.6492 -0.0006  0.2711
   40CHL1    H6 2896   6.489   2.335   7.262 -2.1334  0.8153  2.5836
   40CHL1    C7 2897   6.492   2.246   7.470 -0.7107  0.0702 -0.8484
   40CHL1   H7A 2898   6.530   2.342   7.512 -2.1861  0.2308  0.2001
   40CHL1   H7B 2899   6.388   2.229   7.505 -0.5908  0.5725 -0.2311
   40CHL1    C8 2900   6.578   2.135   7.540  0.3824  0.5651  0.1577
   40CHL1    H8 2901   6.684   2.161   7.519 -0.1164  2.0920 -0.6651
   40CHL1   C14 2902   6.542   2.130   7.693 -0.3061  0.1161  0.8760
   40CHL1   H14 2903   6.433   2.116   7.707 -0.8113  2.9655  0.3301
   40CHL1   C15 2904   6.558   2.257   7.782  0.2908 -0.0566 -0.1595
   40CHL1  H15A 2905   6.652   2.310   7.753 -0.3157  0.9164 -0.4088
   40CHL1  H15B 2906   6.469   2.324   7.781 -0.2682 -0.7912 -1.8712
   40CHL1   C16 2907   6.571   2.207   7.925  0.3335  0.1371  0.3284
   40CHL1  H16A 2908   6.651   2.259   7.982 -2.5968  3.3064  1.9097
   40CHL1  H16B 2909   6.482   2.237   7.985 -0.8727 -1.2061 -0.7043
   40CHL1   C17 2910   6.581   2.050   7.908  0.0782 -0.4590 -0.0338
   40CHL1   H17 2911   6.479   2.005   7.916  0.8303 -2.5174 -1.3618
   40CHL1   C13 2912   6.619   2.023   7.762  0.1440  0.2793 -0.3986
   40CHL1   C18 2913   6.769   2.035   7.753 -0.2363 -0.5021  0.3561
   40CHL1  H18A 2914   6.827   1.949   7.792  2.8374  1.1392 -0.3161
   40CHL1  H18B 2915   6.805   2.047   7.648  0.2830 -0.9208  0.4833
   40CHL1  H18C 2916   6.806   2.124   7.807  0.1795 -0.3012 -0.2461
   40CHL1   C12 2917   6.571   1.891   7.694  0.0191  0.2281  0.0090
   40CHL1  H12A 2918   6.609   1.803   7.748 -0.1537  0.4496  0.4966
   40CHL1  H12B 2919   6.460   1.883   7.701  0.1259 -2.5133 -0.4964
   40CHL1   C11 2920   6.608   1.879   7.551  0.1591 -0.4553  0.4198
   40CHL1  H11A 2921   6.718   1.875   7.541  0.0145  0.0390 -1.7150
   40CHL1  H11B 2922   6.567   1.785   7.509 -1.5938  0.6228 -0.4123
   40CHL1    C9 2923   6.547   1.999   7.471  0.4464 -0.1363 -0.3465
   40CHL1    H9 2924   6.438   1.999   7.495  0.5657  3.1299  0.6640
   40CHL1   C10 2925   6.571   1.998   7.315  0.2097 -0.4195  0.1391
   40CHL1   C19 2926   6.718   1.960   7.294  0.0824  0.4191 -0.2331
   40CHL1  H19A 2927   6.737   1.857   7.332 -1.3295 -0.8248 -2.6768
   40CHL1  H19B 2928   6.749   1.952   7.188 -1.6723 -1.1887 -0.6860
   40CHL1  H19C 2929   6.779   2.036   7.347 -3.0494  1.7219  1.8094
   40CHL1    C1 2930   6.478   1.894   7.254 -0.4043  0.0291 -0.5703
   40CHL1   H1A 2931   6.500   1.794   7.298  1.9304  1.8571  2.8243
   40CHL1   H1B 2932   6.371   1.916   7.277 -0.5244 -1.8470  0.9590
   40CHL1    C2 2933   6.491   1.874   7.100  0.2301  0.1166  0.6677
   40CHL1   H2A 2934   6.415   1.803   7.061 -1.9450  1.1182  2.8183
   40CHL1   H2B 2935   6.592   1.844   7.065 -0.1197  1.8125 -2.1375
   40CHL1   C20 2936   6.654   1.992   8.026  0.1637 -0.0448 -0.0445
   40CHL1   H20 2937   6.755   2.039   8.033 -0.7602  2.2398 -0.9712
   40CHL1   C21 2938   6.674   1.843   8.022  0.2091  0.7901  0.0919
   40CHL1  H21A 2939   6.745   1.801   8.096 -2.4390  1.0550  2.9523
   40CHL1  H21B 2940   6.718   1.812   7.924 -1.8762 -0.3373 -0.5509
   40CHL1  H21C 2941   6.580   1.785   8.030  0.5513 -0.1852 -2.0860
   40CHL1   C22 2942   6.589   2.036   8.154  0.2940 -0.4203  0.2845
   40CHL1  H22A 2943   6.575   2.146   8.159 -0.8579 -0.6106  2.1894
   40CHL1  H22B 2944   6.485   1.997   8.155  0.5304 -1.0724  1.5318
   40CHL1   C23 2945   6.658   1.992   8.284 -0.1166 -0.1255  0.2527
   40CHL1  H23A 2946   6.658   1.880   8.288  0.4861 -0.1667 -0.7242
   40CHL1  H23B 2947   6.766   2.016   8.275 -0.1708  0.4324  1.0368
   40CHL1   C24 2948   6.590   2.068   8.400 -0.5542 -0.0618 -0.4332
   40CHL1  H24A 2949   6.598   2.176   8.374 -3.3912  0.1297 -0.8262
   40CHL1  H24B 2950   6.479   2.060   8.395 -0.8787  2.9338 -0.0166
   40CHL1   C25 2951   6.639   2.028   8.542  0.0793 -0.1610 -0.7797
   40CHL1   H25 2952   6.635   1.918   8.551  0.0347 -0.1039  0.0503
   40CHL1   C26 2953   6.786   2.053   8.577  0.0541 -0.1849 -0.4015
   40CHL1  H26A 2954   6.813   2.037   8.684 -0.0335 -1.4318 -0.5524
   40CHL1  H26B 2955   6.847   1.981   8.518  0.1887 -0.4449  0.0451
   40CHL1  H26C 2956   6.806   2.155   8.538  0.0572 -0.1324 -0.2621
   40CHL1   C27 2957   6.551   2.097   8.650  0.8283  0.3414 -0.8167
   40CHL1  H27A 2958   6.575   2.049   8.747  2.1192 -2.0581 -2.2358
   40CHL1  H27B 2959   6.558   2.208   8.648 -0.1994  0.4339 -0.0730
   40CHL1  H27C 2960   6.447   2.062   8.634  0.1680  1.6981  0.2625
   41CHL1    C3 2961   2.008   0.242   7.036  0.0480  0.0042  0.3698
   41CHL1    H3 2962   2.003   0.131   7.026 -0.6994 -0.0857  1.5489
   41CHL1    O3 2963   1.980   0.293   6.902  1.0300  0.3545  0.6316
   41CHL1   H3' 2964   1.978   0.389   6.909 -1.0795  0.6064 -1.9413
   41CHL1    C4 2965   1.893   0.274   7.131 -0.1749  0.0121 -0.1257
   41CHL1   H4A 2966   1.881   0.384   7.143  2.2218  0.4244 -0.8882
   41CHL1   H4B 2967   1.797   0.232   7.094  0.3038 -1.7535  0.5371
   41CHL1    C5 2968   1.935   0.232   7.273  0.4410 -0.2614  0.0615
   41CHL1    C6 2969   1.854   0.155   7.344  0.0467 -0.1612 -0.6183
   41CHL1    H6 2970   1.771   0.108   7.289 -0.2892 -0.7983  0.4034
   41CHL1    C7 2971   1.876   0.119   7.490  0.7259 -0.0485 -0.0481
   41CHL1   H7A 2972   1.781   0.140   7.544  0.3248 -0.0524 -0.7413
   41CHL1   H7B 2973   1.898   0.011   7.505  1.9042  0.4182  2.0206
   41CHL1    C8 2974   1.989   0.193   7.562 -0.4573  1.0279 -0.6009
   41CHL1    H8 2975   1.952   0.294   7.591 -2.7378 -0.3023  1.5127
   41CHL1   C14 2976   2.047   0.116   7.688 -0.6253  0.1116  0.6458
   41CHL1   H14 2977   2.086   0.018   7.655  1.0203  1.5276 -1.8920
   41CHL1   C15 2978   1.945   0.083   7.798  0.0007  0.1592  0.4581
   41CHL1  H15A 2979   1.872   0.167   7.794 -0.6942 -0.4616 -0.9291
   41CHL1  H15B 2980   1.901  -0.015   7.767 -1.6712  0.7460  0.8562
   41CHL1   C16 2981   2.021   0.067   7.932 -0.5352 -0.1429  0.2351
   41CHL1  H16A 2982   1.991   0.142   8.008 -0.5653 -0.0108  0.0920
   41CHL1  H16B 2983   2.023  -0.041   7.958  0.8994 -0.0378  0.6731
   41CHL1   C17 2984   2.170   0.089   7.881 -0.2142 -0.0507 -0.0727
   41CHL1   H17 2985   2.202  -0.007   7.836  0.7837  1.2525 -2.2954
   41CHL1   C13 2986   2.157   0.183   7.763  0.2100 -0.1768  0.1577
   41CHL1   C18 2987   2.120   0.324   7.822  0.0632  0.3841 -0.7241
   41CHL1  H18A 2988   2.094   0.396   7.741 -1.7412  0.3151 -0.2548
   41CHL1  H18B 2989   2.028   0.322   7.883 -0.0972  0.8229 -0.9428
   41CHL1  H18C 2990   2.198   0.372   7.885 -0.6292  2.0631 -1.0961
   41CHL1   C12 2991   2.274   0.188   7.669 -0.1170 -0.5163  0.6299
   41CHL1  H12A 2992   2.359   0.242   7.716 -1.0031  2.7419 -1.2017
   41CHL1  H12B 2993   2.303   0.085   7.641 -2.9568 -2.0228  2.7037
   41CHL1   C11 2994   2.233   0.264   7.541 -0.8004 -0.3395 -0.0228
   41CHL1  H11A 2995   2.211   0.367   7.577  1.1468 -0.4499  1.6303
   41CHL1  H11B 2996   2.315   0.247   7.468 -1.1133 -1.9362 -0.0488
   41CHL1    C9 2997   2.110   0.208   7.461  0.2857 -1.0602 -0.0497
   41CHL1    H9 2998   2.134   0.103   7.435 -0.0039 -0.4008 -3.4645
   41CHL1   C10 2999   2.067   0.283   7.333 -0.0220  0.3067  0.1128
   41CHL1   C19 3000   2.065   0.438   7.357 -0.0461 -0.7650 -0.2116
   41CHL1  H19A 3001   2.164   0.478   7.388 -0.7018  0.4725  0.3906
   41CHL1  H19B 3002   2.062   0.488   7.258 -0.4216  1.5297  0.8748
   41CHL1  H19C 3003   1.988   0.474   7.429  1.6087 -2.2135  2.4609
   41CHL1    C1 3004   2.181   0.257   7.222  0.3279 -0.0030 -0.1990
   41CHL1   H1A 3005   2.269   0.316   7.256 -0.1605  1.1232 -0.8308
   41CHL1   H1B 3006   2.198   0.147   7.228 -1.3180 -0.2396  0.9451
   41CHL1    C2 3007   2.143   0.300   7.081  0.0048 -0.4520  0.5956
   41CHL1   H2A 3008   2.221   0.263   7.012 -0.1012 -2.1696  1.3590
   41CHL1   H2B 3009   2.148   0.411   7.080 -1.0626 -0.3880  0.3301
   41CHL1   C20 3010   2.284   0.121   7.988 -0.3622 -0.3319  0.3064
   41CHL1   H20 3011   2.347   0.203   7.947  1.3495 -1.9407 -0.4076
   41CHL1   C21 3012   2.366  -0.005   8.021  0.0285  0.5824  0.1330
   41CHL1  H21A 3013   2.435   0.009   8.107  0.3134 -0.1912  0.0460
   41CHL1  H21B 3014   2.423  -0.037   7.931 -0.0337 -1.8021  0.8633
   41CHL1  H21C 3015   2.312  -0.098   8.049  0.4024  0.0005 -0.9972
   41CHL1   C22 3016   2.228   0.186   8.117  0.2509  0.3566 -0.9252
   41CHL1  H22A 3017   2.139   0.247   8.090  1.6652  2.4132 -1.2450
   41CHL1  H22B 3018   2.195   0.106   8.185 -0.5735  0.4961 -1.1516
   41CHL1   C23 3019   2.332   0.279   8.188 -0.3433  0.4060  0.3254
   41CHL1  H23A 3020   2.413   0.204   8.201  0.0055  0.2404 -2.3684
   41CHL1  H23B 3021   2.366   0.362   8.123  0.3502 -0.0543  0.0912
   41CHL1   C24 3022   2.287   0.342   8.321  0.4890  0.0547  0.2415
   41CHL1  H24A 3023   2.206   0.413   8.293 -0.1204  0.5124  2.9681
   41CHL1  H24B 3024   2.246   0.259   8.382 -1.1060 -1.8259 -3.1233
   41CHL1   C25 3025   2.405   0.418   8.394  0.7145  0.0186 -0.4957
   41CHL1   H25 3026   2.442   0.483   8.311 -0.5935  2.0367  0.4188
   41CHL1   C26 3027   2.351   0.499   8.514 -0.2800 -0.2325 -0.1357
   41CHL1  H26A 3028   2.306   0.431   8.589 -1.4666 -1.1004 -1.5747
   41CHL1  H26B 3029   2.424   0.574   8.551 -1.3772  1.1330 -0.6600
   41CHL1  H26C 3030   2.260   0.552   8.480  0.2700  0.8618  0.0667
   41CHL1   C27 3031   2.524   0.328   8.447 -0.2144 -0.1131 -0.5832
   41CHL1  H27A 3032   2.585   0.298   8.359  0.3537  1.7861 -0.8675
   41CHL1  H27B 3033   2.582   0.404   8.504 -2.6374  2.6153 -1.5277
   41CHL1  H27C 3034   2.489   0.236   8.500  0.4137  0.4543  0.8788
   42CHL1    C3 3035   3.524   5.594   7.130  0.1191 -0.1943 -0.1619
   42CHL1    H3 3036   3.512   5.700   7.163  1.9174  0.2191 -0.7362
   42CHL1    O3 3037   3.542   5.586   6.989  0.1446 -0.2576 -0.5299
   42CHL1   H3' 3038   3.542   5.491   6.974  0.1152 -0.0151 -2.2721
   42CHL1    C4 3039   3.648   5.549   7.211  0.6556  0.5508 -0.1372
   42CHL1   H4A 3040   3.680   5.447   7.181 -0.4927 -0.5680  2.1602
   42CHL1   H4B 3041   3.724   5.621   7.174  1.7974 -0.0045  1.0376
   42CHL1    C5 3042   3.629   5.561   7.356  0.1628  0.1438 -0.3934
   42CHL1    C6 3043   3.722   5.630   7.429 -0.2014 -0.8722  0.3993
   42CHL1    H6 3044   3.808   5.679   7.381 -0.8167  0.2620  0.4071
   42CHL1    C7 3045   3.713   5.650   7.576  0.0990  0.3276 -0.0903
   42CHL1   H7A 3046   3.810   5.615   7.618  0.5381  1.4306 -0.1517
   42CHL1   H7B 3047   3.700   5.756   7.608  2.8186  0.7615 -0.1653
   42CHL1    C8 3048   3.596   5.575   7.647 -0.0657  0.2685  0.5067
   42CHL1    H8 3049   3.628   5.469   7.654  2.1941  0.9929  1.8758
   42CHL1   C14 3050   3.564   5.636   7.783  0.2435 -0.3721  0.6441
   42CHL1   H14 3051   3.533   5.741   7.768  0.3750 -0.2511  1.1848
   42CHL1   C15 3052   3.691   5.651   7.877  0.4818  0.3874 -0.0166
   42CHL1  H15A 3053   3.748   5.556   7.863  0.6461  0.3168  1.0339
   42CHL1  H15B 3054   3.754   5.739   7.853 -0.0367  0.7899  0.1038
   42CHL1   C16 3055   3.622   5.660   8.017  0.4149  0.1533  0.6011
   42CHL1  H16A 3056   3.669   5.590   8.089  0.6590  1.3315  1.6265
   42CHL1  H16B 3057   3.614   5.769   8.038 -1.3759  1.0758 -3.7207
   42CHL1   C17 3058   3.466   5.629   7.999  0.0893 -0.7534 -0.2076
   42CHL1   H17 3059   3.409   5.724   7.988 -0.2876 -0.9502  0.0078
   42CHL1   C13 3060   3.456   5.562   7.862  0.3073  0.8020 -0.8490
   42CHL1   C18 3061   3.501   5.421   7.876 -0.3069  0.2650  0.6137
   42CHL1  H18A 3062   3.498   5.369   7.778 -2.7213 -2.2274  1.8652
   42CHL1  H18B 3063   3.601   5.410   7.924  1.3713 -0.7590 -2.8362
   42CHL1  H18C 3064   3.431   5.352   7.928 -1.0890 -1.7138 -2.7741
   42CHL1   C12 3065   3.321   5.576   7.781  0.0051 -0.4151 -0.2978
   42CHL1  H12A 3066   3.248   5.511   7.834 -1.4490  0.7465 -0.8014
   42CHL1  H12B 3067   3.289   5.682   7.787 -0.6737 -0.5963 -0.5946
   42CHL1   C11 3068   3.343   5.529   7.634  0.5474 -0.2386  0.1160
   42CHL1  H11A 3069   3.350   5.418   7.634  0.7089 -0.3101 -2.8124
   42CHL1  H11B 3070   3.256   5.559   7.571  0.9418  0.2947 -0.1827
   42CHL1    C9 3071   3.473   5.578   7.553  0.1225 -0.0045  0.3388
   42CHL1    H9 3072   3.457   5.683   7.523  0.2423 -0.3901 -1.1642
   42CHL1   C10 3073   3.492   5.512   7.416  0.5596  0.1725 -0.0499
   42CHL1   C19 3074   3.497   5.351   7.422  0.2873 -0.4140  0.2796
   42CHL1  H19A 3075   3.531   5.312   7.324  0.1243  1.2516 -0.4817
   42CHL1  H19B 3076   3.576   5.318   7.493  0.9760  0.1283 -0.2157
   42CHL1  H19C 3077   3.397   5.306   7.443  0.8147 -1.9692 -0.4048
   42CHL1    C1 3078   3.374   5.566   7.326 -0.2518 -0.8207 -0.0878
   42CHL1   H1A 3079   3.281   5.514   7.358 -0.5778 -1.2770 -1.6908
   42CHL1   H1B 3080   3.367   5.676   7.340 -1.6117 -0.5875 -2.1519
   42CHL1    C2 3081   3.392   5.522   7.178  0.2782 -0.7062 -0.2631
   42CHL1   H2A 3082   3.310   5.571   7.120 -0.0627  0.6516  1.2740
   42CHL1   H2B 3083   3.404   5.413   7.164  3.7573 -0.3919 -0.5192
   42CHL1   C20 3084   3.404   5.557   8.118 -0.2926  0.2540 -0.4284
   42CHL1   H20 3085   3.439   5.452   8.121  1.7211  0.8981  0.3679
   42CHL1   C21 3086   3.249   5.561   8.114  0.5029 -0.9626 -0.4323
   42CHL1  H21A 3087   3.220   5.516   8.017 -3.2295  1.0077 -0.4091
   42CHL1  H21B 3088   3.201   5.661   8.107  1.3458 -0.5118 -0.0585
   42CHL1  H21C 3089   3.204   5.509   8.201  1.6647  1.1944  1.5890
   42CHL1   C22 3090   3.453   5.607   8.256  0.9848  0.1064 -0.7707
   42CHL1  H22A 3091   3.558   5.642   8.249  0.8784  0.3290 -1.2793
   42CHL1  H22B 3092   3.393   5.695   8.285  0.5693  0.9067 -3.7143
   42CHL1   C23 3093   3.454   5.491   8.359  0.1081 -0.3291 -0.1416
   42CHL1  H23A 3094   3.352   5.446   8.350  0.0721 -0.2000 -0.3754
   42CHL1  H23B 3095   3.529   5.417   8.325  1.6179  0.5358  1.1755
   42CHL1   C24 3096   3.481   5.532   8.506 -0.1535  0.2392  0.0802
   42CHL1  H24A 3097   3.555   5.457   8.541 -1.5019 -0.4037  1.6769
   42CHL1  H24B 3098   3.540   5.626   8.509 -1.4408  1.0730  0.2852
   42CHL1   C25 3099   3.358   5.554   8.588 -0.4292  0.1148 -0.1606
   42CHL1   H25 3100   3.301   5.459   8.588 -1.5732  0.7699  0.9294
   42CHL1   C26 3101   3.408   5.592   8.726 -0.4451 -0.2677 -0.8710
   42CHL1  H26A 3102   3.328   5.625   8.796  0.1496 -0.5079 -0.0640
   42CHL1  H26B 3103   3.467   5.515   8.780 -1.4727 -0.0227  0.6775
   42CHL1  H26C 3104   3.481   5.676   8.723  2.3752 -2.4463  1.0873
   42CHL1   C27 3105   3.269   5.667   8.533  0.2983  0.1665  0.3355
   42CHL1  H27A 3106   3.223   5.618   8.445  1.8312  1.2057 -1.1140
   42CHL1  H27B 3107   3.334   5.749   8.495 -1.9247  1.3574 -1.0962
   42CHL1  H27C 3108   3.186   5.706   8.596 -2.7989 -1.9191 -2.1389
   43CHL1    C3 3109   2.238   1.171   6.867  1.2630 -0.9329 -0.1982
   43CHL1    H3 3110   2.154   1.099   6.857 -0.7253  1.0849  1.0156
   43CHL1    O3 3111   2.255   1.228   6.740  0.1991 -0.4516 -0.6135
   43CHL1   H3' 3112   2.334   1.283   6.745 -1.4523  2.5912 -3.3890
   43CHL1    C4 3113   2.202   1.298   6.945  0.2803 -0.0857 -0.3286
   43CHL1   H4A 3114   2.278   1.378   6.940  0.5226 -0.2544  0.4392
   43CHL1   H4B 3115   2.106   1.344   6.913 -0.5001  0.6441  2.6828
   43CHL1    C5 3116   2.200   1.276   7.095 -0.6699  0.2515 -0.1853
   43CHL1    C6 3117   2.097   1.318   7.164 -0.0233 -0.1510 -0.2589
   43CHL1    H6 3118   2.021   1.378   7.111  0.0219  0.2464  0.1211
   43CHL1    C7 3119   2.080   1.316   7.311  0.5925 -0.1748  0.4043
   43CHL1   H7A 3120   2.068   1.416   7.358 -2.1064 -0.4597  0.5027
   43CHL1   H7B 3121   1.996   1.247   7.333 -0.9596  1.6396  0.4520
   43CHL1    C8 3122   2.213   1.269   7.381  0.0526 -0.2044 -0.5973
   43CHL1    H8 3123   2.279   1.358   7.383  1.5973 -1.3261  0.6231
   43CHL1   C14 3124   2.186   1.220   7.517 -0.4924  0.0251  0.2639
   43CHL1   H14 3125   2.120   1.132   7.509 -1.0759  0.4772  0.0489
   43CHL1   C15 3126   2.109   1.313   7.616  0.1721  0.0626 -0.4239
   43CHL1  H15A 3127   2.149   1.416   7.603 -0.3067  0.0498 -2.2652
   43CHL1  H15B 3128   2.002   1.315   7.587  0.6175 -1.8909 -2.5802
   43CHL1   C16 3129   2.142   1.268   7.761  0.0888  0.0275 -0.0716
   43CHL1  H16A 3130   2.183   1.348   7.826  1.9162  0.1697 -1.3213
   43CHL1  H16B 3131   2.050   1.226   7.808  0.6308 -2.5993 -1.1516
   43CHL1   C17 3132   2.240   1.154   7.738  0.1585 -0.1137  0.4701
   43CHL1   H17 3133   2.179   1.061   7.732  2.1082 -1.5362  1.5247
   43CHL1   C13 3134   2.306   1.178   7.601 -0.1042  0.4910  0.0596
   43CHL1   C18 3135   2.414   1.287   7.615  0.7210 -0.0770  0.3249
   43CHL1  H18A 3136   2.430   1.338   7.518  2.2361  2.3942  1.7460
   43CHL1  H18B 3137   2.378   1.362   7.689 -0.6395  0.5648 -0.9352
   43CHL1  H18C 3138   2.509   1.237   7.642  0.1557 -0.1158  2.4491
   43CHL1   C12 3139   2.352   1.048   7.532 -0.3804  0.2739  0.4495
   43CHL1  H12A 3140   2.446   1.012   7.580  0.0248  0.9714  0.1956
   43CHL1  H12B 3141   2.276   0.967   7.531  0.1434 -0.2230 -0.1917
   43CHL1   C11 3142   2.387   1.079   7.378  0.2141  0.1963 -0.0812
   43CHL1  H11A 3143   2.484   1.132   7.369  0.3126 -0.0899 -0.7899
   43CHL1  H11B 3144   2.399   0.984   7.322 -0.0154  0.8768 -1.3497
   43CHL1    C9 3145   2.277   1.157   7.300  0.5273  0.2274 -0.7945
   43CHL1    H9 3146   2.201   1.079   7.282 -1.5231  1.5481  1.4618
   43CHL1   C10 3147   2.313   1.197   7.157  0.1003  0.3291 -0.3225
   43CHL1   C19 3148   2.438   1.298   7.164  0.0666  0.0864  0.3373
   43CHL1  H19A 3149   2.420   1.381   7.237  1.0511 -1.1254  2.0253
   43CHL1  H19B 3150   2.530   1.249   7.201 -0.7804 -0.0413  2.3897
   43CHL1  H19C 3151   2.473   1.332   7.064  0.9307 -2.5399 -0.3248
   43CHL1    C1 3152   2.363   1.079   7.071 -0.2882  0.5043  0.6553
   43CHL1   H1A 3153   2.459   1.048   7.118 -0.2452  0.5715  0.6138
   43CHL1   H1B 3154   2.295   0.992   7.080  2.2219 -1.6049  0.5745
   43CHL1    C2 3155   2.364   1.107   6.918 -0.3994 -0.4236  0.4351
   43CHL1   H2A 3156   2.364   1.006   6.872  1.1589 -1.6461  2.9400
   43CHL1   H2B 3157   2.455   1.159   6.881 -0.7133 -0.0806  0.1341
   43CHL1   C20 3158   2.327   1.143   7.871 -0.2041 -0.4653 -0.1545
   43CHL1   H20 3159   2.388   1.235   7.884 -2.2225  0.6398  2.2693
   43CHL1   C21 3160   2.427   1.022   7.849  0.6467 -0.3367  0.1518
   43CHL1  H21A 3161   2.370   0.935   7.811 -1.4041  1.4979 -1.1937
   43CHL1  H21B 3162   2.477   1.001   7.947 -1.9697 -0.3657  1.5792
   43CHL1  H21C 3163   2.505   1.047   7.775  1.4697 -0.6512  0.8917
   43CHL1   C22 3164   2.245   1.106   7.993 -0.0347 -0.5027 -0.4600
   43CHL1  H22A 3165   2.177   1.019   7.980 -0.3995 -1.0691  3.8216
   43CHL1  H22B 3166   2.313   1.057   8.066 -2.1535 -2.1629  0.5076
   43CHL1   C23 3167   2.199   1.226   8.078 -0.3722 -1.0065  0.7145
   43CHL1  H23A 3168   2.288   1.289   8.097 -0.7939  0.0972 -0.7766
   43CHL1  H23B 3169   2.124   1.293   8.031 -1.8854 -2.3423  1.1348
   43CHL1   C24 3170   2.138   1.188   8.208 -0.4083 -0.5499  0.5480
   43CHL1  H24A 3171   2.041   1.139   8.188 -0.8387  0.5521 -0.1448
   43CHL1  H24B 3172   2.206   1.113   8.255 -0.2784  0.3734  1.8698
   43CHL1   C25 3173   2.118   1.300   8.308  0.2917  0.4595 -0.6054
   43CHL1   H25 3174   2.200   1.375   8.296  0.1730  0.6507 -0.2427
   43CHL1   C26 3175   1.982   1.375   8.289 -0.1089 -0.0019 -0.1722
   43CHL1  H26A 3176   1.891   1.315   8.311  1.0012 -1.0529  1.8444
   43CHL1  H26B 3177   1.991   1.466   8.352 -0.6968 -0.3754  0.4582
   43CHL1  H26C 3178   1.987   1.413   8.185  3.1172 -0.3575 -0.2567
   43CHL1   C27 3179   2.125   1.244   8.452 -0.5874  0.5057  0.4900
   43CHL1  H27A 3180   2.041   1.172   8.467 -0.6678 -0.2306 -2.7364
   43CHL1  H27B 3181   2.219   1.186   8.460 -1.0080 -0.4874 -1.3762
   43CHL1  H27C 3182   2.135   1.326   8.527  0.8391  0.0959  0.7766
   44CHL1    C3 3183   2.738   0.231   6.892 -0.1356 -0.4451 -0.1627
   44CHL1    H3 3184   2.828   0.282   6.934 -0.7860 -0.2604  1.0454
   44CHL1    O3 3185   2.731   0.249   6.757 -0.8498 -0.8843  0.7398
   44CHL1   H3' 3186   2.656   0.195   6.730 -1.5635  0.5889 -0.4429
   44CHL1    C4 3187   2.758   0.083   6.931  0.6377  0.4017 -0.0314
   44CHL1   H4A 3188   2.675   0.026   6.884  1.5788  1.6714 -3.5327
   44CHL1   H4B 3189   2.853   0.051   6.884  0.8645 -0.4874  0.9874
   44CHL1    C5 3190   2.787   0.083   7.080 -0.4205 -0.0639 -0.6258
   44CHL1    C6 3191   2.911   0.053   7.133 -0.4441 -0.1104  0.4439
   44CHL1    H6 3192   2.982   0.012   7.060 -0.1897  3.8779 -1.8831
   44CHL1    C7 3193   2.945   0.051   7.280 -0.1923 -0.0370 -0.3859
   44CHL1   H7A 3194   2.985  -0.049   7.306  1.5383  0.6155 -0.4094
   44CHL1   H7B 3195   3.028   0.120   7.307  1.8141 -1.4920 -2.4081
   44CHL1    C8 3196   2.822   0.068   7.371  0.4175 -0.5410 -0.7962
   44CHL1    H8 3197   2.760  -0.024   7.375  0.3029 -0.4477 -0.2034
   44CHL1   C14 3198   2.861   0.092   7.514  0.3443  0.4947  0.3574
   44CHL1   H14 3199   2.916   0.188   7.508  3.1297 -1.0811 -1.4324
   44CHL1   C15 3200   2.969   0.008   7.579 -0.9510 -0.0017  0.6177
   44CHL1  H15A 3201   2.936  -0.098   7.568  0.8364 -0.8082  2.3690
   44CHL1  H15B 3202   3.074   0.028   7.549 -1.2183  0.0413 -0.3163
   44CHL1   C16 3203   2.959   0.043   7.726  0.4861 -0.0820 -0.1787
   44CHL1  H16A 3204   2.944  -0.051   7.784  0.9457  0.0081  0.0835
   44CHL1  H16B 3205   3.054   0.088   7.761  0.4589 -0.4997  0.4422
   44CHL1   C17 3206   2.833   0.131   7.749 -0.1378  0.0230  0.4715
   44CHL1   H17 3207   2.875   0.233   7.737 -0.4535  0.0130 -0.9445
   44CHL1   C13 3208   2.750   0.107   7.616 -0.2688  0.0716 -0.5136
   44CHL1   C18 3209   2.666  -0.023   7.632  0.2933 -0.0458 -0.0251
   44CHL1  H18A 3210   2.583   0.005   7.700  0.3477 -0.5250  0.2383
   44CHL1  H18B 3211   2.616  -0.046   7.536  1.0491 -0.1690 -0.3933
   44CHL1  H18C 3212   2.718  -0.110   7.677  1.0800  1.3551  1.9184
   44CHL1   C12 3213   2.665   0.229   7.569 -0.3709  0.0687 -0.0195
   44CHL1  H12A 3214   2.568   0.220   7.624 -0.9705  0.7115 -0.9345
   44CHL1  H12B 3215   2.723   0.320   7.596  0.5855 -0.0451 -1.5513
   44CHL1   C11 3216   2.616   0.220   7.425 -0.5068  0.5285  1.0583
   44CHL1  H11A 3217   2.530   0.151   7.416 -0.5558  0.5606  1.2591
   44CHL1  H11B 3218   2.578   0.321   7.398  1.7255  0.5843 -2.5326
   44CHL1    C9 3219   2.730   0.173   7.318  0.2315  0.5560 -0.3675
   44CHL1    H9 3220   2.804   0.254   7.300  0.4220  0.6996  0.9560
   44CHL1   C10 3221   2.678   0.145   7.171 -0.3166 -0.2352  0.7812
   44CHL1   C19 3222   2.562   0.050   7.170  0.0500  1.5344 -0.2915
   44CHL1  H19A 3223   2.580  -0.054   7.204 -2.7097  1.8049  2.3639
   44CHL1  H19B 3224   2.481   0.085   7.237 -1.3762 -1.3095 -0.3942
   44CHL1  H19C 3225   2.520   0.049   7.067  2.4061 -0.7789 -1.3293
   44CHL1    C1 3226   2.630   0.278   7.115 -0.0625 -0.6204 -0.7591
   44CHL1   H1A 3227   2.529   0.302   7.155 -0.2297 -0.0818 -1.4763
   44CHL1   H1B 3228   2.703   0.360   7.131 -0.4477 -0.2673 -0.8029
   44CHL1    C2 3229   2.616   0.278   6.961 -0.2617 -0.5861  0.5868
   44CHL1   H2A 3230   2.590   0.380   6.927  2.8448  0.0211 -0.3094
   44CHL1   H2B 3231   2.537   0.205   6.932 -0.1105  0.1388 -1.8728
   44CHL1   C20 3232   2.757   0.125   7.883  0.4297  1.0155 -1.0956
   44CHL1   H20 3233   2.707   0.028   7.901  2.6605  0.3706  3.1402
   44CHL1   C21 3234   2.655   0.238   7.890  0.3416 -0.0233 -0.6378
   44CHL1  H21A 3235   2.645   0.262   7.998  0.1095  0.6994 -0.8153
   44CHL1  H21B 3236   2.555   0.210   7.852  0.3407  2.2374 -2.5913
   44CHL1  H21C 3237   2.686   0.330   7.834  1.7184  0.2891  0.5727
   44CHL1   C22 3238   2.840   0.132   8.015 -1.0688 -0.0057  0.5011
   44CHL1  H22A 3239   2.942   0.091   8.000  0.0045  1.8760  2.2653
   44CHL1  H22B 3240   2.854   0.240   8.034  1.1931 -0.1379 -0.1644
   44CHL1   C23 3241   2.779   0.048   8.131 -0.1678  0.0996 -0.7190
   44CHL1  H23A 3242   2.680   0.090   8.159  0.4914  1.5909 -0.4978
   44CHL1  H23B 3243   2.758  -0.055   8.096 -1.0427  0.2492 -0.6613
   44CHL1   C24 3244   2.857   0.038   8.260  0.5371  0.5126  0.4782
   44CHL1  H24A 3245   2.955  -0.013   8.247 -0.4188 -0.9200 -1.4861
   44CHL1  H24B 3246   2.871   0.142   8.299  2.7679  0.2169  0.5880
   44CHL1   C25 3247   2.793  -0.051   8.366 -0.2775 -0.1609  0.3152
   44CHL1   H25 3248   2.684  -0.031   8.361 -0.3576 -0.6073  0.1616
   44CHL1   C26 3249   2.814  -0.197   8.330  0.1473 -0.2560 -0.4482
   44CHL1  H26A 3250   2.758  -0.259   8.403  0.7717  0.6508  0.8299
   44CHL1  H26B 3251   2.788  -0.218   8.224  0.0901  0.1650 -0.5188
   44CHL1  H26C 3252   2.922  -0.223   8.337 -0.1458 -1.5801 -0.4786
   44CHL1   C27 3253   2.847  -0.023   8.511 -0.3889  0.5893  0.1280
   44CHL1  H27A 3254   2.958  -0.032   8.513 -0.2796  1.8382  1.7156
   44CHL1  H27B 3255   2.825   0.085   8.523 -0.3037  1.1114 -3.2577
   44CHL1  H27C 3256   2.792  -0.072   8.594  1.6607 -1.8318  0.1762
   45CHL1    C3 3257   3.983   6.654   6.838 -0.4384 -0.4151 -0.3282
   45CHL1    H3 3258   4.002   6.761   6.864  0.8387 -0.9484  1.1666
   45CHL1    O3 3259   4.010   6.639   6.697  0.1319 -0.3248  0.1699
   45CHL1   H3' 3260   4.106   6.642   6.703  0.0790  0.0208  1.1709
   45CHL1    C4 3261   4.088   6.569   6.916  0.2874  0.2104 -0.0627
   45CHL1   H4A 3262   4.078   6.463   6.884  1.3102 -0.2876  1.2113
   45CHL1   H4B 3263   4.181   6.622   6.884 -0.0099  1.7092  1.4108
   45CHL1    C5 3264   4.080   6.564   7.069  0.5173 -0.7073  0.5999
   45CHL1    C6 3265   4.180   6.594   7.158  0.4239 -0.4806  0.1578
   45CHL1    H6 3266   4.269   6.634   7.107 -0.3107  0.3634 -0.4968
   45CHL1    C7 3267   4.179   6.591   7.300 -0.4427 -0.0129 -0.4987
   45CHL1   H7A 3268   4.268   6.563   7.360 -1.1295  1.0981  1.1184
   45CHL1   H7B 3269   4.148   6.689   7.341 -0.0724 -0.5566  1.1284
   45CHL1    C8 3270   4.051   6.513   7.350  0.7257 -0.3033  0.0080
   45CHL1    H8 3271   4.073   6.404   7.343 -1.0000 -0.6301 -0.7290
   45CHL1   C14 3272   4.021   6.546   7.491  0.1086  1.2306 -0.4962
   45CHL1   H14 3273   3.983   6.650   7.484 -0.2155  1.2549  1.0992
   45CHL1   C15 3274   4.145   6.529   7.580  0.6994  0.5544  0.1784
   45CHL1  H15A 3275   4.212   6.448   7.545 -0.6524 -0.1123 -0.9999
   45CHL1  H15B 3276   4.208   6.620   7.587  0.5744  0.7426 -0.9576
   45CHL1   C16 3277   4.085   6.499   7.721 -0.3745 -0.1100 -0.4637
   45CHL1  H16A 3278   4.114   6.401   7.765 -2.8119 -0.7133 -0.0569
   45CHL1  H16B 3279   4.117   6.586   7.781  1.7349 -1.0060 -0.1932
   45CHL1   C17 3280   3.928   6.502   7.701 -0.1564 -0.0356  0.0016
   45CHL1   H17 3281   3.911   6.611   7.717  0.3668 -0.0077  0.3660
   45CHL1   C13 3282   3.906   6.459   7.556  0.4033  0.7427  0.0616
   45CHL1   C18 3283   3.928   6.301   7.541 -0.1772 -0.0510  0.8935
   45CHL1  H18A 3284   4.036   6.292   7.564  0.3655  0.2379 -1.3453
   45CHL1  H18B 3285   3.865   6.244   7.612 -0.1164  1.4070  2.1663
   45CHL1  H18C 3286   3.905   6.259   7.441 -0.2931  1.3460  0.3123
   45CHL1   C12 3287   3.770   6.500   7.483  0.8708  0.1915 -0.9114
   45CHL1  H12A 3288   3.682   6.438   7.508  0.5421  0.7811 -0.5813
   45CHL1  H12B 3289   3.752   6.604   7.518  2.3385  0.4728 -0.9168
   45CHL1   C11 3290   3.785   6.483   7.328 -0.1063 -0.1693 -0.6401
   45CHL1  H11A 3291   3.785   6.372   7.315  0.9551 -0.5148  1.7315
   45CHL1  H11B 3292   3.695   6.528   7.282  0.0194  1.5567  0.6855
   45CHL1    C9 3293   3.920   6.540   7.264  0.4986  0.2491  0.7847
   45CHL1    H9 3294   3.909   6.650   7.272  2.5545  0.6221 -0.6388
   45CHL1   C10 3295   3.945   6.512   7.115  1.2409 -0.6896 -0.2614
   45CHL1   C19 3296   3.925   6.361   7.094  0.8410 -0.7489  0.3059
   45CHL1  H19A 3297   3.974   6.316   7.183  1.0493  0.9780  1.0995
   45CHL1  H19B 3298   3.818   6.337   7.113  0.1774  1.5464 -0.3135
   45CHL1  H19C 3299   3.954   6.335   6.990 -3.2717 -0.5585 -1.0619
   45CHL1    C1 3300   3.829   6.587   7.029  0.1990  0.4354  0.0879
   45CHL1   H1A 3301   3.736   6.528   7.044  1.7252 -2.1840  0.0299
   45CHL1   H1B 3302   3.820   6.688   7.073 -1.6798 -0.0140  0.8323
   45CHL1    C2 3303   3.848   6.602   6.881 -0.0084 -0.0837  0.1979
   45CHL1   H2A 3304   3.782   6.685   6.848  1.0361  1.8218  2.5303
   45CHL1   H2B 3305   3.842   6.501   6.835  0.9640  0.0364 -0.2170
   45CHL1   C20 3306   3.843   6.437   7.812 -0.1706  0.2968 -0.9688
   45CHL1   H20 3307   3.846   6.326   7.800  0.6285  0.2720 -0.5728
   45CHL1   C21 3308   3.701   6.494   7.816 -0.5288 -0.1848  0.6441
   45CHL1  H21A 3309   3.646   6.442   7.897 -2.7282  0.3638 -0.4133
   45CHL1  H21B 3310   3.647   6.469   7.722 -1.6614  2.1166  0.6170
   45CHL1  H21C 3311   3.692   6.604   7.830  0.2409 -0.3443  2.7237
   45CHL1   C22 3312   3.904   6.461   7.956 -0.1303 -0.1685  0.0172
   45CHL1  H22A 3313   4.014   6.451   7.955 -0.0758  0.2334 -1.5774
   45CHL1  H22B 3314   3.879   6.567   7.975 -2.0358 -0.5322 -0.2095
   45CHL1   C23 3315   3.861   6.378   8.078 -0.0396 -0.1604 -0.6017
   45CHL1  H23A 3316   3.752   6.386   8.096  0.3982  0.5407  2.1652
   45CHL1  H23B 3317   3.870   6.270   8.049 -2.2876 -0.4121 -0.5014
   45CHL1   C24 3318   3.925   6.427   8.212  0.0107  0.1939 -0.0947
   45CHL1  H24A 3319   4.025   6.471   8.193  0.4068  0.6405  2.6757
   45CHL1  H24B 3320   3.860   6.512   8.244 -0.3838 -0.1770  0.0985
   45CHL1   C25 3321   3.936   6.320   8.317 -0.4092 -0.2208 -0.3269
   45CHL1   H25 3322   3.969   6.230   8.260 -0.7669  0.1995 -1.2192
   45CHL1   C26 3323   4.054   6.371   8.405 -0.4727 -0.1159 -0.0325
   45CHL1  H26A 3324   4.148   6.395   8.352  0.9152 -0.1152  2.2763
   45CHL1  H26B 3325   4.021   6.460   8.463 -3.3813 -2.2379  1.8846
   45CHL1  H26C 3326   4.058   6.287   8.478 -0.4731 -0.2028 -0.1336
   45CHL1   C27 3327   3.816   6.288   8.407  0.1317 -0.0947 -0.0141
   45CHL1  H27A 3328   3.786   6.381   8.461 -1.7516 -0.7619  0.1751
   45CHL1  H27B 3329   3.725   6.246   8.358 -0.9152  0.5477  1.3080
   45CHL1  H27C 3330   3.849   6.210   8.478 -0.7859  0.8224  1.4715
   46CHL1    C3 3331   4.367   0.780   7.093  0.7456 -0.2248  0.1272
   46CHL1    H3 3332   4.306   0.688   7.104 -1.3514  1.2959  2.1053
   46CHL1    O3 3333   4.402   0.799   6.952  0.2315 -0.7325 -0.2672
   46CHL1   H3' 3334   4.428   0.714   6.916  0.5534 -0.3982 -0.8391
   46CHL1    C4 3335   4.277   0.898   7.139 -0.0755  0.8643 -0.3025
   46CHL1   H4A 3336   4.317   0.996   7.106 -0.6713  1.3087  0.2858
   46CHL1   H4B 3337   4.184   0.875   7.083  0.0555  1.0592 -0.6019
   46CHL1    C5 3338   4.247   0.891   7.284  0.5998 -0.6908  0.0417
   46CHL1    C6 3339   4.120   0.889   7.324 -0.1196  0.4183 -0.2557
   46CHL1    H6 3340   4.040   0.902   7.250 -2.6596 -1.6959  1.9262
   46CHL1    C7 3341   4.085   0.900   7.469  0.3409 -0.4178  0.2151
   46CHL1   H7A 3342   4.007   0.977   7.488  1.8927  1.0760  0.6836
   46CHL1   H7B 3343   4.042   0.800   7.496  0.0498 -0.0832  1.0328
   46CHL1    C8 3344   4.207   0.937   7.561 -0.6827  0.1535 -0.4655
   46CHL1    H8 3345   4.222   1.046   7.546  1.6402  0.1860  1.3789
   46CHL1   C14 3346   4.163   0.904   7.706 -0.5173  0.8128 -0.4690
   46CHL1   H14 3347   4.149   0.794   7.700  0.7913  0.5292  0.9700
   46CHL1   C15 3348   4.026   0.943   7.768  0.2729  0.3171 -0.4497
   46CHL1  H15A 3349   4.022   1.054   7.772 -1.1155  0.3424 -1.7068
   46CHL1  H15B 3350   3.929   0.906   7.729 -0.0661 -0.2450  0.8893
   46CHL1   C16 3351   4.048   0.897   7.915  0.3611  0.8286  0.6066
   46CHL1  H16A 3352   4.034   0.982   7.986  0.3551  1.5833 -0.2890
   46CHL1  H16B 3353   3.978   0.820   7.954  1.1540 -0.3408 -0.2378
   46CHL1   C17 3354   4.198   0.853   7.938 -0.3914  0.2879  0.2706
   46CHL1   H17 3355   4.204   0.745   7.911  1.5537  0.0078  1.6247
   46CHL1   C13 3356   4.266   0.919   7.810 -0.1960  0.4243  0.8273
   46CHL1   C18 3357   4.290   1.072   7.831 -0.2968 -0.3891  0.4638
   46CHL1  H18A 3358   4.389   1.091   7.878  0.0513 -1.8904  0.3952
   46CHL1  H18B 3359   4.276   1.124   7.734 -1.5302 -1.1988  0.1831
   46CHL1  H18C 3360   4.212   1.113   7.899 -1.0359  1.5475 -1.4499
   46CHL1   C12 3361   4.401   0.853   7.768  0.0009 -0.0193  0.1637
   46CHL1  H12A 3362   4.482   0.862   7.844 -2.2336 -1.7266  2.9363
   46CHL1  H12B 3363   4.366   0.748   7.766 -0.0436  0.0017 -0.2133
   46CHL1   C11 3364   4.445   0.883   7.621 -0.3489  0.2904  0.1345
   46CHL1  H11A 3365   4.473   0.991   7.617  0.3959  0.0812 -0.6065
   46CHL1  H11B 3366   4.543   0.831   7.606 -0.3412 -0.7472  3.0862
   46CHL1    C9 3367   4.334   0.859   7.522  0.2321  0.0656 -0.1328
   46CHL1    H9 3368   4.316   0.749   7.523  2.4886 -0.3424  0.2287
   46CHL1   C10 3369   4.373   0.877   7.373  0.3004 -0.3329 -0.1516
   46CHL1   C19 3370   4.448   1.011   7.361  0.5219  0.6991  0.3230
   46CHL1  H19A 3371   4.405   1.094   7.421 -0.0682  0.1573  0.6601
   46CHL1  H19B 3372   4.551   1.001   7.401  0.4860  2.0027  0.7787
   46CHL1  H19C 3373   4.462   1.041   7.255 -1.7467 -1.8437 -0.8302
   46CHL1    C1 3374   4.474   0.769   7.320  0.1038  0.2192 -0.7198
   46CHL1   H1A 3375   4.573   0.770   7.371 -0.8862  1.2137  1.3203
   46CHL1   H1B 3376   4.430   0.667   7.331 -0.4590  0.5345  0.0486
   46CHL1    C2 3377   4.500   0.777   7.172 -0.1183 -0.5842  0.4203
   46CHL1   H2A 3378   4.563   0.689   7.146 -1.0746 -1.0284 -0.4503
   46CHL1   H2B 3379   4.552   0.874   7.162 -1.2112  0.2118  1.9301
   46CHL1   C20 3380   4.251   0.901   8.076  0.4742  0.5728  0.1999
   46CHL1   H20 3381   4.264   1.011   8.086 -0.3885  0.7085 -0.0816
   46CHL1   C21 3382   4.387   0.834   8.100 -0.3275 -0.5591 -0.0159
   46CHL1  H21A 3383   4.457   0.897   8.042 -0.6839 -0.3074 -0.1786
   46CHL1  H21B 3384   4.390   0.733   8.053  0.8533  0.4949 -2.3919
   46CHL1  H21C 3385   4.419   0.834   8.206 -0.4948  1.6786  0.0718
   46CHL1   C22 3386   4.160   0.872   8.203  0.6008 -0.4293  0.1547
   46CHL1  H22A 3387   4.211   0.912   8.294 -2.0782  1.1126  1.0938
   46CHL1  H22B 3388   4.062   0.923   8.192  1.4191  1.1345 -0.2039
   46CHL1   C23 3389   4.128   0.725   8.225  0.1380  0.1072 -0.2541
   46CHL1  H23A 3390   4.076   0.688   8.134 -0.3795 -1.1040  0.5047
   46CHL1  H23B 3391   4.220   0.668   8.248 -1.1123 -2.0896 -0.3889
   46CHL1   C24 3392   4.034   0.713   8.345 -0.4749 -0.2382 -0.0515
   46CHL1  H24A 3393   4.072   0.778   8.427 -0.6184 -0.7532  0.4302
   46CHL1  H24B 3394   3.943   0.763   8.304 -0.0150  0.7118  0.0548
   46CHL1   C25 3395   4.014   0.563   8.390 -0.3301 -0.5894  1.1623
   46CHL1   H25 3396   3.986   0.499   8.304 -1.3747 -0.1028  1.1152
   46CHL1   C26 3397   4.148   0.516   8.452  0.5639 -0.2340  0.7708
   46CHL1  H26A 3398   4.155   0.567   8.551  0.7079 -1.1770  1.2575
   46CHL1  H26B 3399   4.138   0.407   8.469 -2.8223 -0.1073  0.2663
   46CHL1  H26C 3400   4.235   0.540   8.388  0.8208 -1.4481  0.6339
   46CHL1   C27 3401   3.909   0.541   8.494 -0.0047 -0.6507 -0.9067
   46CHL1  H27A 3402   3.919   0.621   8.571 -0.2372 -1.2133 -0.2837
   46CHL1  H27B 3403   3.809   0.554   8.446 -0.3199  0.6255  0.0488
   46CHL1  H27C 3404   3.920   0.438   8.534 -0.5523  0.3973  2.2251
   47CHL1    C3 3405   3.596   0.509   6.757 -0.3492  0.3124 -0.6207
   47CHL1    H3 3406   3.689   0.556   6.796 -0.0279 -0.3543 -0.5519
   47CHL1    O3 3407   3.600   0.519   6.616 -0.5490 -0.3177 -0.8933
   47CHL1   H3' 3408   3.517   0.480   6.588 -2.0226  1.3510  0.8708
   47CHL1    C4 3409   3.603   0.360   6.785 -0.2798  0.2192 -1.2342
   47CHL1   H4A 3410   3.510   0.316   6.742 -0.2957  0.7479 -1.7380
   47CHL1   H4B 3411   3.679   0.306   6.724  1.6713  1.1121  0.2883
   47CHL1    C5 3412   3.596   0.318   6.929 -0.4870  0.8056 -0.1304
   47CHL1    C6 3413   3.690   0.247   6.991  0.2137  0.0085  0.0803
   47CHL1    H6 3414   3.777   0.219   6.929 -1.2206  0.4777 -2.2667
   47CHL1    C7 3415   3.688   0.209   7.137 -0.1148  0.3229  0.1760
   47CHL1   H7A 3416   3.697   0.099   7.150  1.6346  0.6151  1.8493
   47CHL1   H7B 3417   3.769   0.255   7.198  0.2150 -0.0496  0.0280
   47CHL1    C8 3418   3.550   0.236   7.206 -0.5132 -0.0035  0.3642
   47CHL1    H8 3419   3.483   0.159   7.163 -2.1370  1.3507  0.3619
   47CHL1   C14 3420   3.553   0.213   7.357  0.0094  0.8338 -0.0255
   47CHL1   H14 3421   3.620   0.296   7.388  1.1969  0.1339 -0.5998
   47CHL1   C15 3422   3.601   0.072   7.413 -0.1673  0.8897  0.2096
   47CHL1  H15A 3423   3.571  -0.002   7.336  0.7710  2.1249 -1.4333
   47CHL1  H15B 3424   3.710   0.053   7.420 -0.6524 -1.6157  1.9701
   47CHL1   C16 3425   3.524   0.057   7.546  0.4453  0.2269  0.3768
   47CHL1  H16A 3426   3.452  -0.025   7.526 -0.0040  0.7626 -0.2126
   47CHL1  H16B 3427   3.581   0.034   7.639 -0.2720 -2.4722  0.2344
   47CHL1   C17 3428   3.452   0.191   7.564  0.1168  0.0321  0.1230
   47CHL1   H17 3429   3.519   0.268   7.607 -0.9207  1.4628 -0.7128
   47CHL1   C13 3430   3.423   0.234   7.419 -0.5069  0.5374 -0.4618
   47CHL1   C18 3431   3.313   0.140   7.375 -0.0174 -0.0349 -0.6206
   47CHL1  H18A 3432   3.329   0.031   7.374  1.3223  0.1085 -3.7704
   47CHL1  H18B 3433   3.215   0.171   7.419 -0.2914  0.0031 -1.2577
   47CHL1  H18C 3434   3.302   0.150   7.265  0.7375  1.1876 -0.6065
   47CHL1   C12 3435   3.385   0.383   7.394 -0.2840  0.0667  0.4723
   47CHL1  H12A 3436   3.286   0.411   7.435 -0.8311  0.6513 -1.1679
   47CHL1  H12B 3437   3.468   0.446   7.434  1.5855 -0.8064 -1.7424
   47CHL1   C11 3438   3.376   0.421   7.241  0.6308  0.4216 -0.4744
   47CHL1  H11A 3439   3.284   0.367   7.211  0.2625 -0.1520  1.5523
   47CHL1  H11B 3440   3.369   0.532   7.230 -1.2540  0.1898 -2.1985
   47CHL1    C9 3441   3.501   0.376   7.161 -0.1613  0.5999 -0.0609
   47CHL1    H9 3442   3.585   0.441   7.193  0.1775 -0.3442  1.0460
   47CHL1   C10 3443   3.480   0.385   7.007  0.2123 -0.4297 -0.4336
   47CHL1   C19 3444   3.352   0.307   6.969  0.2161 -0.1967  0.8511
   47CHL1  H19A 3445   3.257   0.339   7.017  1.2042 -0.0820  2.7854
   47CHL1  H19B 3446   3.328   0.288   6.862  0.4331 -0.4945  0.8546
   47CHL1  H19C 3447   3.365   0.203   7.005  1.1159  0.9246  4.0434
   47CHL1    C1 3448   3.464   0.534   6.967  0.4268 -0.7169  0.8363
   47CHL1   H1A 3449   3.365   0.573   7.001  0.5921  1.8027 -1.2386
   47CHL1   H1B 3450   3.538   0.605   7.010 -0.4857  0.5400  0.3892
   47CHL1    C2 3451   3.463   0.561   6.815 -0.1868  0.6265  0.4174
   47CHL1   H2A 3452   3.456   0.672   6.815 -2.2804  0.5366  1.0677
   47CHL1   H2B 3453   3.380   0.524   6.750 -0.4454 -0.7950  1.5136
   47CHL1   C20 3454   3.345   0.172   7.673 -0.1094 -0.3588  0.6421
   47CHL1   H20 3455   3.271   0.102   7.629 -0.0860  0.1261 -0.1880
   47CHL1   C21 3456   3.279   0.309   7.706 -0.1785 -0.0125  0.5921
   47CHL1  H21A 3457   3.227   0.292   7.802 -1.3326 -1.0094 -0.1851
   47CHL1  H21B 3458   3.216   0.338   7.619  0.5815 -1.1197 -0.3603
   47CHL1  H21C 3459   3.355   0.389   7.724  1.2170 -1.7551  3.0137
   47CHL1   C22 3460   3.386   0.105   7.804  0.9590 -0.6940  0.6253
   47CHL1  H22A 3461   3.295   0.098   7.868  0.7695 -1.6184  0.2682
   47CHL1  H22B 3462   3.406  -0.004   7.791  0.7704 -0.7493  0.7920
   47CHL1   C23 3463   3.503   0.162   7.887  0.4482  0.2930 -0.2074
   47CHL1  H23A 3464   3.593   0.174   7.822  0.4886  1.4032  0.0330
   47CHL1  H23B 3465   3.466   0.263   7.912 -1.7515 -0.0689 -1.7692
   47CHL1   C24 3466   3.544   0.081   8.015  0.2255  0.9320  0.4486
   47CHL1  H24A 3467   3.456   0.084   8.083  0.8175  0.5511  1.2527
   47CHL1  H24B 3468   3.565  -0.025   7.991 -1.9538 -0.4960  4.1251
   47CHL1   C25 3469   3.664   0.141   8.085  0.3457  0.1299  0.1950
   47CHL1   H25 3470   3.652   0.251   8.096 -0.0436  0.2437 -1.2032
   47CHL1   C26 3471   3.687   0.085   8.226  0.7306 -0.4908  0.3528
   47CHL1  H26A 3472   3.595   0.094   8.287  0.9109  2.2788  0.3827
   47CHL1  H26B 3473   3.725  -0.019   8.218  0.2858 -0.9080  2.8464
   47CHL1  H26C 3474   3.768   0.143   8.276  0.5326 -0.8942  1.1406
   47CHL1   C27 3475   3.794   0.115   8.009 -0.1888 -0.4330  0.2671
   47CHL1  H27A 3476   3.798   0.182   7.920 -0.6895 -1.2531 -0.3852
   47CHL1  H27B 3477   3.884   0.132   8.072  1.1426 -1.8090 -1.2020
   47CHL1  H27C 3478   3.798   0.009   7.979  3.7398  0.2330 -2.3232
   48CHL1    C3 3479   5.676   3.618   6.379  0.1242  0.4076  0.8136
   48CHL1    H3 3480   5.782   3.639   6.405  0.3854  1.8096 -1.1613
   48CHL1    O3 3481   5.657   3.593   6.236 -0.0597  0.1448 -0.8714
   48CHL1   H3' 3482   5.708   3.519   6.203 -0.0565 -0.2386 -0.0198
   48CHL1    C4 3483   5.636   3.502   6.458  0.2029  0.1855  0.0410
   48CHL1   H4A 3484   5.526   3.504   6.445 -0.1742  2.7252  2.5941
   48CHL1   H4B 3485   5.666   3.404   6.414  1.8265 -0.1849  1.8234
   48CHL1    C5 3486   5.663   3.515   6.607  0.2901 -0.4295  0.7762
   48CHL1    C6 3487   5.739   3.425   6.678 -0.7268 -1.0521  0.6389
   48CHL1    H6 3488   5.797   3.354   6.618  0.9010  1.5603 -1.1214
   48CHL1    C7 3489   5.764   3.446   6.823 -0.2210  0.6723  0.9728
   48CHL1   H7A 3490   5.738   3.353   6.878 -1.7620  1.2933  1.3437
   48CHL1   H7B 3491   5.868   3.482   6.835 -0.2234  0.4724  1.6408
   48CHL1    C8 3492   5.676   3.548   6.897  0.2594 -0.1523 -0.0322
   48CHL1    H8 3493   5.573   3.509   6.907  1.4256 -3.2965  0.8178
   48CHL1   C14 3494   5.731   3.585   7.037  0.1425 -0.2046 -0.3817
   48CHL1   H14 3495   5.830   3.629   7.017 -0.2416  1.0523  0.3673
   48CHL1   C15 3496   5.749   3.465   7.133  0.4413 -0.0322  0.3164
   48CHL1  H15A 3497   5.663   3.394   7.128  1.4800 -1.3185  0.0455
   48CHL1  H15B 3498   5.843   3.417   7.100 -0.2410 -0.8378 -0.5349
   48CHL1   C16 3499   5.766   3.535   7.264 -0.0465 -0.9194  0.1239
   48CHL1  H16A 3500   5.701   3.479   7.335 -0.7436  0.6585  0.7872
   48CHL1  H16B 3501   5.869   3.524   7.304 -0.8540 -1.0426  2.3145
   48CHL1   C17 3502   5.722   3.677   7.253 -1.2357 -0.2073  1.0088
   48CHL1   H17 3503   5.816   3.731   7.227  0.2133 -2.7762  0.6293
   48CHL1   C13 3504   5.646   3.687   7.118  0.4309 -0.0702  0.2613
   48CHL1   C18 3505   5.500   3.643   7.150 -0.5553 -0.0180 -0.3527
   48CHL1  H18A 3506   5.445   3.712   7.216  1.6573  1.2779  0.2199
   48CHL1  H18B 3507   5.439   3.645   7.057  0.9426 -1.7115 -1.4617
   48CHL1  H18C 3508   5.503   3.545   7.203  2.4701  0.6716  0.9658
   48CHL1   C12 3509   5.647   3.810   7.030  0.6515 -0.2304 -0.4511
   48CHL1  H12A 3510   5.574   3.887   7.065 -0.3837 -0.9891 -0.8807
   48CHL1  H12B 3511   5.749   3.853   7.026 -0.3616  2.3621 -2.5804
   48CHL1   C11 3512   5.592   3.786   6.886  0.0396 -0.5141 -0.2198
   48CHL1  H11A 3513   5.487   3.751   6.893 -0.6140  1.3613  0.0004
   48CHL1  H11B 3514   5.582   3.881   6.829  0.3749 -2.0245 -2.9619
   48CHL1    C9 3515   5.661   3.674   6.810  0.1915 -0.3747 -0.3545
   48CHL1    H9 3516   5.766   3.708   6.795  0.4662 -0.7404  0.6372
   48CHL1   C10 3517   5.599   3.639   6.674  0.0332  0.1932 -0.1290
   48CHL1   C19 3518   5.446   3.618   6.683 -0.4407  0.2493 -0.3629
   48CHL1  H19A 3519   5.396   3.578   6.593 -0.1194 -2.6991  0.6432
   48CHL1  H19B 3520   5.419   3.544   6.762 -0.6495 -0.3815 -1.0166
   48CHL1  H19C 3521   5.392   3.712   6.707 -0.1406  0.0099  1.4010
   48CHL1    C1 3522   5.628   3.758   6.573 -0.0063 -0.7829  0.1305
   48CHL1   H1A 3523   5.562   3.840   6.607  0.5711  0.4279 -1.5296
   48CHL1   H1B 3524   5.735   3.787   6.581 -0.3468  0.1487  1.5714
   48CHL1    C2 3525   5.595   3.744   6.420  0.1172 -0.4349 -0.7064
   48CHL1   H2A 3526   5.628   3.829   6.356  1.4447 -0.7958 -0.5402
   48CHL1   H2B 3527   5.488   3.727   6.399  0.5104 -2.1569 -1.4377
   48CHL1   C20 3528   5.679   3.734   7.388 -0.0196  0.8453 -0.2745
   48CHL1   H20 3529   5.587   3.685   7.428  0.0278  0.8806 -0.1209
   48CHL1   C21 3530   5.645   3.879   7.362  0.3532  0.0907 -0.3543
   48CHL1  H21A 3531   5.739   3.928   7.327 -0.0417 -0.0169 -1.6075
   48CHL1  H21B 3532   5.614   3.932   7.454  0.8568  2.0423 -1.2428
   48CHL1  H21C 3533   5.567   3.895   7.284  1.6836  1.4130 -1.4885
   48CHL1   C22 3534   5.782   3.708   7.500 -0.3583 -0.2922 -0.6361
   48CHL1  H22A 3535   5.817   3.603   7.501 -0.6137 -0.3771 -0.1795
   48CHL1  H22B 3536   5.870   3.771   7.474 -0.6580  0.5314  0.2610
   48CHL1   C23 3537   5.742   3.773   7.640 -0.5304 -0.3563 -0.2099
   48CHL1  H23A 3538   5.821   3.758   7.718  0.4317  0.6021 -0.9727
   48CHL1  H23B 3539   5.754   3.883   7.626  0.5588 -0.3769  0.4162
   48CHL1   C24 3540   5.612   3.726   7.704 -0.1765 -0.5777  0.3627
   48CHL1  H24A 3541   5.529   3.716   7.631 -0.4955 -4.0100  1.0543
   48CHL1  H24B 3542   5.621   3.621   7.737 -1.7880 -0.3521  1.6109
   48CHL1   C25 3543   5.562   3.817   7.824 -0.4636  0.2479  0.3048
   48CHL1   H25 3544   5.646   3.820   7.898 -0.7816 -3.1014  0.9494
   48CHL1   C26 3545   5.526   3.959   7.785  0.7100 -0.1038 -0.5288
   48CHL1  H26A 3546   5.619   4.002   7.745  0.7717 -0.7493 -1.0895
   48CHL1  H26B 3547   5.456   3.965   7.699  1.0945 -1.8356 -1.0029
   48CHL1  H26C 3548   5.499   4.029   7.868  0.0338  2.1738 -2.5395
   48CHL1   C27 3549   5.435   3.745   7.891 -0.4421 -0.0035 -0.5071
   48CHL1  H27A 3550   5.349   3.744   7.820 -1.0512 -1.3704  0.2188
   48CHL1  H27B 3551   5.457   3.639   7.915  0.6738 -0.0381 -1.5922
   48CHL1  H27C 3552   5.403   3.801   7.981  1.0931 -0.7674  0.5618
   49CHL1    C3 3553   5.024   4.802   6.999 -0.0434 -0.0241  0.5277
   49CHL1    H3 3554   5.085   4.709   6.988 -1.4107 -0.7361 -1.9980
   49CHL1    O3 3555   5.028   4.859   6.870  0.1011  0.1493 -0.0474
   49CHL1   H3' 3556   4.965   4.803   6.823 -0.1502 -0.2253  0.7292
   49CHL1    C4 3557   4.875   4.780   7.045  0.3985  0.4478  0.7323
   49CHL1   H4A 3558   4.806   4.867   7.038 -1.0397 -0.6121  1.2059
   49CHL1   H4B 3559   4.839   4.708   6.969  1.4856  1.0281 -0.3691
   49CHL1    C5 3560   4.871   4.718   7.181 -0.2622  0.0435 -0.1503
   49CHL1    C6 3561   4.830   4.590   7.201  0.1088 -0.3201  0.6870
   49CHL1    H6 3562   4.798   4.526   7.118 -1.3558 -0.5879  1.4340
   49CHL1    C7 3563   4.814   4.530   7.336 -0.4290  0.3109 -0.2005
   49CHL1   H7A 3564   4.716   4.484   7.362 -0.9862  0.5731 -1.7231
   49CHL1   H7B 3565   4.880   4.443   7.357 -1.1062 -0.8263 -2.4727
   49CHL1    C8 3566   4.843   4.635   7.457 -0.2493 -0.0061 -0.6923
   49CHL1    H8 3567   4.754   4.703   7.458  1.3890  2.2919  1.1779
   49CHL1   C14 3568   4.868   4.564   7.591 -0.3331  0.5938 -0.0240
   49CHL1   H14 3569   4.965   4.512   7.586 -0.9800 -0.6995  0.5385
   49CHL1   C15 3570   4.779   4.444   7.626  0.0858 -0.2745  0.0327
   49CHL1  H15A 3571   4.675   4.479   7.614 -0.0453  0.2877  2.3146
   49CHL1  H15B 3572   4.792   4.356   7.560  1.3419  0.4305 -0.6988
   49CHL1   C16 3573   4.818   4.415   7.769  0.4211 -0.0881 -1.0466
   49CHL1  H16A 3574   4.725   4.384   7.821 -0.0242 -0.3370 -1.9730
   49CHL1  H16B 3575   4.888   4.330   7.779  1.3751  0.5457 -2.1658
   49CHL1   C17 3576   4.895   4.542   7.823 -0.0991 -0.4775  0.3344
   49CHL1   H17 3577   5.003   4.518   7.823  0.0621  0.1519  2.0458
   49CHL1   C13 3578   4.872   4.653   7.714  0.5043 -0.4354  0.2863
   49CHL1   C18 3579   4.732   4.714   7.746  0.2978  0.6716  0.1607
   49CHL1  H18A 3580   4.747   4.796   7.820  1.1518  1.0147 -0.3742
   49CHL1  H18B 3581   4.686   4.745   7.650  0.8787  1.0795  0.0092
   49CHL1  H18C 3582   4.669   4.631   7.784  3.0799 -0.5612  2.4369
   49CHL1   C12 3583   4.983   4.759   7.692 -0.1637 -0.1932 -0.0463
   49CHL1  H12A 3584   4.961   4.832   7.773 -1.7227 -1.4939  0.7746
   49CHL1  H12B 3585   5.086   4.721   7.709  0.8408  2.7892  1.2093
   49CHL1   C11 3586   4.970   4.836   7.553  0.3096  0.6437  0.7767
   49CHL1  H11A 3587   4.866   4.875   7.564 -0.2470 -1.1290  2.4375
   49CHL1  H11B 3588   5.050   4.911   7.537 -0.2339  0.8604 -1.0913
   49CHL1    C9 3589   4.958   4.732   7.433  0.7474 -0.9026 -0.1216
   49CHL1    H9 3590   5.049   4.669   7.424  1.0062 -1.0769  2.8739
   49CHL1   C10 3591   4.931   4.807   7.292 -0.4039 -0.1055 -0.0185
   49CHL1   C19 3592   4.858   4.943   7.313  0.1900  0.0005  0.3760
   49CHL1  H19A 3593   4.938   4.996   7.369 -1.0196  0.7653  1.4191
   49CHL1  H19B 3594   4.846   5.004   7.221  0.0495 -1.8847 -0.9048
   49CHL1  H19C 3595   4.768   4.926   7.375  1.1881  1.2876  2.2840
   49CHL1    C1 3596   5.072   4.841   7.241  0.2096  0.1857  0.6999
   49CHL1   H1A 3597   5.133   4.903   7.310  0.9120 -0.3579  0.5809
   49CHL1   H1B 3598   5.119   4.741   7.228  0.0680  0.1732  0.2755
   49CHL1    C2 3599   5.081   4.901   7.101 -0.0881 -0.4178 -0.1769
   49CHL1   H2A 3600   5.187   4.925   7.077 -0.1007 -0.6129 -0.4324
   49CHL1   H2B 3601   5.035   5.002   7.113  2.6794  0.7021  2.0588
   49CHL1   C20 3602   4.859   4.571   7.965 -0.3995 -0.2579  0.4892
   49CHL1   H20 3603   4.751   4.592   7.971 -0.2194  0.2645  3.6468
   49CHL1   C21 3604   4.939   4.692   8.024  0.4669  0.6860  0.2263
   49CHL1  H21A 3605   4.940   4.712   8.133  0.7450  0.3752  0.2832
   49CHL1  H21B 3606   4.895   4.781   7.973 -2.7461 -0.9218 -0.0187
   49CHL1  H21C 3607   5.047   4.673   8.004  0.2418 -2.4570  1.4886
   49CHL1   C22 3608   4.891   4.446   8.058 -0.3564  0.4948  0.9898
   49CHL1  H22A 3609   4.850   4.355   8.009 -1.7179  1.2495  0.6768
   49CHL1  H22B 3610   5.000   4.431   8.070 -0.9236 -3.3798  2.8143
   49CHL1   C23 3611   4.808   4.452   8.186  0.4341 -0.3697  0.0030
   49CHL1  H23A 3612   4.861   4.522   8.255  3.8107 -2.0931 -0.6095
   49CHL1  H23B 3613   4.710   4.499   8.166 -0.8988 -2.0438  2.0856
   49CHL1   C24 3614   4.804   4.317   8.255  0.8454 -0.3384 -0.7157
   49CHL1  H24A 3615   4.762   4.236   8.191 -0.5253 -0.0936 -0.1602
   49CHL1  H24B 3616   4.906   4.294   8.293  0.9144  0.6936 -0.2516
   49CHL1   C25 3617   4.723   4.335   8.389 -0.2787 -0.3061 -0.1171
   49CHL1   H25 3618   4.770   4.419   8.444 -2.6018 -0.6116  2.5516
   49CHL1   C26 3619   4.583   4.379   8.355  0.4672 -0.4330 -0.5286
   49CHL1  H26A 3620   4.514   4.378   8.442  0.5580 -1.2137 -0.4608
   49CHL1  H26B 3621   4.589   4.486   8.324  0.5447 -0.1584  0.4128
   49CHL1  H26C 3622   4.529   4.317   8.280 -1.4422 -0.3182  0.6823
   49CHL1   C27 3623   4.719   4.204   8.472 -0.1208  0.2412  0.2398
   49CHL1  H27A 3624   4.672   4.131   8.403 -0.4999  0.4620  0.2617
   49CHL1  H27B 3625   4.817   4.170   8.512  0.5265  1.8000  0.0295
   49CHL1  H27C 3626   4.638   4.215   8.548 -0.5146  0.0259 -0.1425
   50CHL1    C3 3627   5.636   5.124   6.866  0.3873 -0.1692 -0.2313
   50CHL1    H3 3628   5.530   5.145   6.889  0.9379  2.0430  0.5278
   50CHL1    O3 3629   5.654   5.121   6.727  0.0993 -0.7251  0.5051
   50CHL1   H3' 3630   5.656   5.213   6.699 -0.6974 -0.6011  0.8401
   50CHL1    C4 3631   5.727   5.239   6.927  0.6659  1.0007  0.3063
   50CHL1   H4A 3632   5.828   5.203   6.898 -0.8671 -1.0596 -3.0686
   50CHL1   H4B 3633   5.705   5.334   6.874 -0.0378  0.8236  0.2763
   50CHL1    C5 3634   5.722   5.255   7.076  0.3620  0.3693  0.3449
   50CHL1    C6 3635   5.689   5.374   7.129  0.0663 -0.1023 -0.6608
   50CHL1    H6 3636   5.660   5.455   7.060  0.7737 -0.3309 -1.2334
   50CHL1    C7 3637   5.671   5.397   7.279  0.3814 -0.4245  0.3716
   50CHL1   H7A 3638   5.721   5.494   7.300 -0.2738 -0.1765  0.8124
   50CHL1   H7B 3639   5.567   5.429   7.302  0.1734 -1.2680  0.6488
   50CHL1    C8 3640   5.726   5.284   7.367  0.0238  0.2089  0.3981
   50CHL1    H8 3641   5.834   5.309   7.372 -0.2606  1.2605  2.7732
   50CHL1   C14 3642   5.671   5.287   7.507  0.2450  0.6000  0.2696
   50CHL1   H14 3643   5.561   5.270   7.505  0.4217 -0.6429  0.0096
   50CHL1   C15 3644   5.686   5.423   7.585 -0.2722 -0.0112  0.2361
   50CHL1  H15A 3645   5.779   5.477   7.556  0.0302 -1.2669 -1.2707
   50CHL1  H15B 3646   5.596   5.476   7.546 -2.8700 -3.7645  0.5881
   50CHL1   C16 3647   5.672   5.385   7.733 -1.0405  0.3653 -0.6513
   50CHL1  H16A 3648   5.765   5.415   7.786 -0.4073  2.1112 -2.5936
   50CHL1  H16B 3649   5.593   5.446   7.781  0.1989  0.9802  0.6623
   50CHL1   C17 3650   5.656   5.225   7.734  0.4233  0.1121 -0.4838
   50CHL1   H17 3651   5.546   5.208   7.728  0.8224 -4.1581  0.8642
   50CHL1   C13 3652   5.718   5.176   7.605 -1.1936 -0.1739 -0.0126
   50CHL1   C18 3653   5.867   5.181   7.638 -1.0081  0.0110 -0.6937
   50CHL1  H18A 3654   5.904   5.098   7.701  1.0627  1.3683 -0.0403
   50CHL1  H18B 3655   5.929   5.193   7.547  1.6942 -0.9089  0.9208
   50CHL1  H18C 3656   5.898   5.266   7.701 -0.9498  0.1672 -0.9324
   50CHL1   C12 3657   5.686   5.038   7.542  0.6738  0.6198 -0.1422
   50CHL1  H12A 3658   5.719   4.948   7.598 -1.1929  1.2816  2.2105
   50CHL1  H12B 3659   5.575   5.036   7.534  0.7127  2.5522 -1.7521
   50CHL1   C11 3660   5.741   5.027   7.393 -0.5145  0.3970 -0.2218
   50CHL1  H11A 3661   5.851   5.017   7.411 -0.3317 -0.4148 -1.7087
   50CHL1  H11B 3662   5.696   4.936   7.350 -0.5757 -0.0563  0.7720
   50CHL1    C9 3663   5.701   5.145   7.310  0.2123 -0.4808  0.1141
   50CHL1    H9 3664   5.590   5.138   7.320  0.2892 -1.7897  0.2716
   50CHL1   C10 3665   5.741   5.126   7.156  0.2699  0.1367 -0.2762
   50CHL1   C19 3666   5.896   5.096   7.150 -0.3485  0.9312  0.3468
   50CHL1  H19A 3667   5.953   5.181   7.192  0.5175 -0.6221  2.4523
   50CHL1  H19B 3668   5.924   5.001   7.201 -0.8572  0.6386  0.0959
   50CHL1  H19C 3669   5.917   5.077   7.042 -2.1419  0.3210  0.0629
   50CHL1    C1 3670   5.648   5.011   7.090 -0.2834  0.4004 -0.0625
   50CHL1   H1A 3671   5.660   4.915   7.146 -0.0818  0.3704 -0.1565
   50CHL1   H1B 3672   5.541   5.039   7.105 -1.2796 -2.5776 -0.8980
   50CHL1    C2 3673   5.669   4.991   6.936 -0.8383  0.1146  0.5184
   50CHL1   H2A 3674   5.597   4.920   6.890 -3.3603  3.1391 -0.5011
   50CHL1   H2B 3675   5.769   4.955   6.904 -1.0419  0.7304 -0.8817
   50CHL1   C20 3676   5.698   5.173   7.875 -0.3784 -0.0550 -0.3019
   50CHL1   H20 3677   5.804   5.203   7.891  0.2417 -3.1281  2.4454
   50CHL1   C21 3678   5.689   5.021   7.876  0.3490 -1.0956  0.0176
   50CHL1  H21A 3679   5.771   4.978   7.814  1.6370  0.0056  0.9138
   50CHL1  H21B 3680   5.593   4.983   7.834  1.2537  0.2288 -3.6629
   50CHL1  H21C 3681   5.697   4.979   7.978 -0.8571 -1.8501 -0.1677
   50CHL1   C22 3682   5.608   5.241   7.986  0.5866 -0.0281 -0.3637
   50CHL1  H22A 3683   5.640   5.347   7.990 -0.3584  0.2264  0.6965
   50CHL1  H22B 3684   5.499   5.240   7.966  0.2751 -1.4988  1.2129
   50CHL1   C23 3685   5.622   5.169   8.121  0.4370  0.5986  0.6082
   50CHL1  H23A 3686   5.561   5.077   8.115 -0.3189  0.8806  2.7786
   50CHL1  H23B 3687   5.731   5.157   8.142  0.0994 -1.3656  1.4157
   50CHL1   C24 3688   5.555   5.248   8.231 -0.7813 -0.3984 -0.4241
   50CHL1  H24A 3689   5.622   5.336   8.240 -1.4129 -0.0636  1.2947
   50CHL1  H24B 3690   5.449   5.272   8.209 -0.3290  0.3786 -1.9151
   50CHL1   C25 3691   5.554   5.178   8.369 -0.8006 -0.7995 -0.6425
   50CHL1   H25 3692   5.497   5.083   8.359 -2.0336 -0.2080  0.4555
   50CHL1   C26 3693   5.686   5.141   8.424  0.8915 -1.5143  0.4706
   50CHL1  H26A 3694   5.731   5.237   8.458  0.4471 -0.7827 -0.9459
   50CHL1  H26B 3695   5.676   5.068   8.507 -0.9643 -2.9753 -0.9476
   50CHL1  H26C 3696   5.765   5.111   8.352 -0.2344 -3.1534 -0.1261
   50CHL1   C27 3697   5.477   5.274   8.462  0.6769  0.4851 -0.5005
   50CHL1  H27A 3698   5.447   5.215   8.551  1.3821 -0.6879 -1.0312
   50CHL1  H27B 3699   5.530   5.364   8.501 -0.1380  1.0347 -0.6406
   50CHL1  H27C 3700   5.378   5.296   8.417  0.3968  0.2405 -0.0122
   51CHL1    C3 3701   6.592   4.620   7.011 -0.1678 -0.5805  2.0676
   51CHL1    H3 3702   6.626   4.724   7.032  0.4709  0.0163 -1.2845
   51CHL1    O3 3703   6.587   4.617   6.868 -0.0630  0.3460  0.4296
   51CHL1   H3' 3704   6.518   4.561   6.831  2.3750 -1.0613 -2.4577
   51CHL1    C4 3705   6.690   4.512   7.066 -0.0019  0.4246 -0.3565
   51CHL1   H4A 3706   6.665   4.410   7.029 -0.6279  0.4623 -0.0464
   51CHL1   H4B 3707   6.794   4.541   7.041  0.1359  0.8699  0.6785
   51CHL1    C5 3708   6.683   4.501   7.222 -0.9487  0.5291  0.3296
   51CHL1    C6 3709   6.800   4.508   7.289  0.1988  0.2739  0.2992
   51CHL1    H6 3710   6.885   4.529   7.222 -0.9710  3.0391 -0.5044
   51CHL1    C7 3711   6.813   4.499   7.442  0.6171  0.8218 -0.1501
   51CHL1   H7A 3712   6.884   4.416   7.464 -1.6558 -1.3672 -0.5671
   51CHL1   H7B 3713   6.850   4.601   7.464 -0.7966  0.9134  2.0919
   51CHL1    C8 3714   6.673   4.471   7.511 -0.0579  1.3420 -0.4021
   51CHL1    H8 3715   6.666   4.360   7.509  1.9871  1.0773  1.7790
   51CHL1   C14 3716   6.664   4.519   7.651  0.0378  0.1888 -0.2819
   51CHL1   H14 3717   6.659   4.630   7.648 -0.3588  0.2172  0.9867
   51CHL1   C15 3718   6.780   4.485   7.747 -0.4374  0.5791  0.9430
   51CHL1  H15A 3719   6.800   4.375   7.747  0.0219  0.5988 -1.3894
   51CHL1  H15B 3720   6.875   4.535   7.717 -0.5637  1.6217  2.2362
   51CHL1   C16 3721   6.722   4.536   7.876 -0.7622 -0.4216 -0.4157
   51CHL1  H16A 3722   6.755   4.465   7.955  0.4851  0.0425 -0.4878
   51CHL1  H16B 3723   6.760   4.636   7.903 -0.5596 -0.4240 -0.6835
   51CHL1   C17 3724   6.567   4.550   7.862 -0.1059  0.1793  0.5525
   51CHL1   H17 3725   6.550   4.659   7.847  0.7157  0.0584 -1.5840
   51CHL1   C13 3726   6.538   4.484   7.726  0.0297 -0.1613 -0.4989
   51CHL1   C18 3727   6.525   4.330   7.737 -0.4789 -0.4557  0.1938
   51CHL1  H18A 3728   6.617   4.288   7.785 -0.5749 -0.7135  0.1514
   51CHL1  H18B 3729   6.434   4.315   7.799  1.2508  0.2907  3.1377
   51CHL1  H18C 3730   6.509   4.287   7.636  2.1548  0.1192 -0.5474
   51CHL1   C12 3731   6.420   4.541   7.649  0.5899  0.1798  0.3700
   51CHL1  H12A 3732   6.322   4.519   7.696  1.0619 -1.4357  0.6503
   51CHL1  H12B 3733   6.426   4.652   7.654 -1.2790  0.2920  1.0001
   51CHL1   C11 3734   6.414   4.504   7.509  0.1801 -0.0868  0.7641
   51CHL1  H11A 3735   6.381   4.399   7.501  1.5424 -0.6666  2.2541
   51CHL1  H11B 3736   6.335   4.570   7.466 -0.1778 -0.2851  1.1087
   51CHL1    C9 3737   6.553   4.525   7.438  0.3349  0.2660 -0.5918
   51CHL1    H9 3738   6.563   4.636   7.447  0.2957  0.2020  0.3760
   51CHL1   C10 3739   6.546   4.496   7.288  0.0580  0.2488 -0.1988
   51CHL1   C19 3740   6.497   4.351   7.264 -0.1471  0.4520 -0.6617
   51CHL1  H19A 3741   6.465   4.344   7.158 -1.9040  0.1636 -0.1468
   51CHL1  H19B 3742   6.571   4.272   7.289  1.3890  2.8152  3.1414
   51CHL1  H19C 3743   6.399   4.330   7.313  1.4305 -2.8019  1.5067
   51CHL1    C1 3744   6.444   4.604   7.220 -0.4508  0.2767  0.6973
   51CHL1   H1A 3745   6.341   4.595   7.259 -0.2780  3.2486  2.1038
   51CHL1   H1B 3746   6.479   4.700   7.262 -0.4352 -0.1525  1.7010
   51CHL1    C2 3747   6.445   4.604   7.067  0.1484  0.5295  0.0523
   51CHL1   H2A 3748   6.386   4.692   7.032  2.3055  1.8161 -0.5252
   51CHL1   H2B 3749   6.391   4.513   7.034  0.0182  0.6903 -0.1793
   51CHL1   C20 3750   6.493   4.510   7.988 -0.0574 -0.1354  0.4900
   51CHL1   H20 3751   6.501   4.400   8.004 -2.6875 -0.6929 -1.3166
   51CHL1   C21 3752   6.346   4.547   7.972  0.5236 -0.0977  0.1039
   51CHL1  H21A 3753   6.347   4.653   7.936  0.3515 -0.6629 -1.6411
   51CHL1  H21B 3754   6.287   4.540   8.066  0.1253  1.6669  0.0286
   51CHL1  H21C 3755   6.295   4.478   7.902  1.0741 -0.9645  0.5492
   51CHL1   C22 3756   6.545   4.596   8.108  0.1656  1.0898 -0.6453
   51CHL1  H22A 3757   6.653   4.576   8.127  0.5193  1.3249 -2.2794
   51CHL1  H22B 3758   6.530   4.701   8.077 -2.5311  1.0640  0.3436
   51CHL1   C23 3759   6.482   4.561   8.245  0.4961 -0.1793 -0.1201
   51CHL1  H23A 3760   6.537   4.609   8.329 -0.7477 -0.4873  0.8921
   51CHL1  H23B 3761   6.379   4.601   8.248  1.1944  2.0439  5.3575
   51CHL1   C24 3762   6.491   4.409   8.272 -0.1041 -0.1159  0.6661
   51CHL1  H24A 3763   6.433   4.352   8.195  0.4719  1.0277 -0.6633
   51CHL1  H24B 3764   6.597   4.385   8.247  0.5254  1.9760  1.1125
   51CHL1   C25 3765   6.463   4.363   8.420 -0.8575 -0.0989  0.5011
   51CHL1   H25 3766   6.369   4.409   8.459  0.0559 -0.0659  2.8158
   51CHL1   C26 3767   6.457   4.212   8.432  0.3903 -0.5229  0.2140
   51CHL1  H26A 3768   6.468   4.191   8.541  0.4142  1.5008  0.6561
   51CHL1  H26B 3769   6.355   4.183   8.399 -0.2343  1.0470  0.6545
   51CHL1  H26C 3770   6.537   4.160   8.377  1.5855 -0.5473  1.9016
   51CHL1   C27 3771   6.582   4.410   8.503 -0.1435  0.4174 -0.4332
   51CHL1  H27A 3772   6.602   4.519   8.517 -1.7887  0.7624 -0.4541
   51CHL1  H27B 3773   6.565   4.370   8.605  1.9773  1.4569  0.3999
   51CHL1  H27C 3774   6.674   4.366   8.460  0.0445  0.1531  0.2175
   52CHL1    C3 3775   0.077   6.197   7.150  0.0930 -0.3282  0.2605
   52CHL1    H3 3776  -0.033   6.181   7.153 -0.0109 -0.9130 -3.1304
   52CHL1    O3 3777   0.113   6.248   7.022 -0.9551  0.8767  0.1366
   52CHL1   H3' 3778   0.209   6.251   7.018 -0.8272 -2.0176 -0.9512
   52CHL1    C4 3779   0.122   6.300   7.258  0.6192 -0.2575  0.5237
   52CHL1   H4A 3780   0.233   6.310   7.262  0.5972 -0.3141  2.8875
   52CHL1   H4B 3781   0.069   6.396   7.239 -0.6444 -0.6457  1.8967
   52CHL1    C5 3782   0.078   6.253   7.396 -0.5774 -0.2639  0.8895
   52CHL1    C6 3783  -0.002   6.330   7.474  0.1886 -0.3707 -0.2619
   52CHL1    H6 3784  -0.027   6.433   7.446 -0.0917 -0.5507 -0.6706
   52CHL1    C7 3785  -0.032   6.293   7.612  0.3414  0.3818 -1.3799
   52CHL1   H7A 3786  -0.030   6.382   7.677 -2.7194 -0.9693  0.8288
   52CHL1   H7B 3787  -0.138   6.259   7.611  0.3525  0.0396  1.5625
   52CHL1    C8 3788   0.053   6.176   7.664  0.1389  0.1421  0.1309
   52CHL1    H8 3789   0.154   6.220   7.676 -0.3680  1.4296 -0.0923
   52CHL1   C14 3790   0.007   6.116   7.796 -0.2980 -0.7932 -0.7190
   52CHL1   H14 3791  -0.099   6.083   7.782 -1.1042  0.7636  1.1943
   52CHL1   C15 3792  -0.016   6.221   7.908 -0.2348 -0.3335 -1.2221
   52CHL1  H15A 3793   0.068   6.295   7.911 -0.0634 -0.5335 -1.0450
   52CHL1  H15B 3794  -0.104   6.286   7.890  0.6320  1.3981  0.3261
   52CHL1   C16 3795  -0.019   6.131   8.031  0.4947  0.7718  0.2117
   52CHL1  H16A 3796   0.059   6.155   8.107  0.3424 -2.2206  1.4325
   52CHL1  H16B 3797  -0.118   6.127   8.082  0.1499 -0.5879 -0.5186
   52CHL1   C17 3798   0.020   5.985   7.988 -0.0446 -0.0248  0.9084
   52CHL1   H17 3799  -0.075   5.930   7.972  0.0543  0.0951 -0.1932
   52CHL1   C13 3800   0.087   5.997   7.845  0.1418 -0.3647 -0.5751
   52CHL1   C18 3801   0.233   6.041   7.862  0.0620 -0.4107 -0.5242
   52CHL1  H18A 3802   0.274   6.082   7.767  0.7716 -0.8130 -0.3958
   52CHL1  H18B 3803   0.238   6.130   7.927  0.9762 -0.4319 -0.5638
   52CHL1  H18C 3804   0.304   5.962   7.893  0.4830 -0.4030 -1.4289
   52CHL1   C12 3805   0.059   5.888   7.746  0.3184 -0.8173 -0.3054
   52CHL1  H12A 3806   0.097   5.792   7.787  0.3462 -1.3767 -1.5954
   52CHL1  H12B 3807  -0.050   5.875   7.736  0.1959 -0.0965  0.0180
   52CHL1   C11 3808   0.115   5.923   7.612 -0.7677 -0.1933  0.8911
   52CHL1  H11A 3809   0.226   5.930   7.623 -0.9240  0.6797  2.1619
   52CHL1  H11B 3810   0.087   5.860   7.525  0.0635 -1.9322  1.8222
   52CHL1    C9 3811   0.061   6.068   7.559  0.2043  0.8950 -0.3136
   52CHL1    H9 3812  -0.047   6.050   7.541  0.2233 -0.5540  0.8013
   52CHL1   C10 3813   0.126   6.108   7.431  0.4105  0.8436 -0.3730
   52CHL1   C19 3814   0.277   6.114   7.447  0.4662  0.1978 -0.3472
   52CHL1  H19A 3815   0.301   6.170   7.540  0.0772  1.4567 -0.9881
   52CHL1  H19B 3816   0.326   6.015   7.459  1.8683  0.9978  0.8735
   52CHL1  H19C 3817   0.332   6.157   7.361  2.4775 -3.3874 -1.0223
   52CHL1    C1 3818   0.094   6.010   7.313  0.2860  0.2141 -0.4315
   52CHL1   H1A 3819   0.134   5.911   7.341 -1.5570 -0.3021  0.5328
   52CHL1   H1B 3820  -0.016   6.002   7.301  0.1498  2.2881 -1.1023
   52CHL1    C2 3821   0.140   6.064   7.179 -0.2492  0.7221  0.7704
   52CHL1   H2A 3822   0.109   5.985   7.107  2.7676  1.6277 -1.7263
   52CHL1   H2B 3823   0.250   6.056   7.169 -0.4368 -0.2522 -1.1149
   52CHL1   C20 3824   0.094   5.892   8.084  0.0418  0.0206 -0.2462
   52CHL1   H20 3825   0.199   5.927   8.091  0.3563 -0.9403  0.0339
   52CHL1   C21 3826   0.125   5.749   8.040 -1.4452 -0.2353  1.1550
   52CHL1  H21A 3827   0.182   5.691   8.116  0.1255 -0.4796 -0.1331
   52CHL1  H21B 3828   0.189   5.743   7.949 -1.8997 -3.4524  0.9317
   52CHL1  H21C 3829   0.029   5.703   8.007 -1.0402 -1.7619  2.0066
   52CHL1   C22 3830   0.035   5.889   8.232 -0.5200  0.5292  0.5607
   52CHL1  H22A 3831   0.026   5.998   8.253  1.5841  0.2739  3.5470
   52CHL1  H22B 3832  -0.059   5.830   8.233 -0.1416 -0.1100 -0.1553
   52CHL1   C23 3833   0.140   5.832   8.334 -0.5587 -0.1889 -0.1662
   52CHL1  H23A 3834   0.160   5.725   8.316  1.2246  0.0346  0.2781
   52CHL1  H23B 3835   0.230   5.893   8.312 -1.2069  0.8729  0.0055
   52CHL1   C24 3836   0.106   5.852   8.484  0.8932  0.2006  0.2176
   52CHL1  H24A 3837   0.085   5.961   8.483 -1.7840 -0.2646 -1.4742
   52CHL1  H24B 3838   0.013   5.798   8.511 -0.3423  1.4916 -1.3001
   52CHL1   C25 3839   0.222   5.828   8.575 -0.0656  0.8478  0.8325
   52CHL1   H25 3840   0.300   5.902   8.546 -0.2021  0.7915  0.3199
   52CHL1   C26 3841   0.184   5.872   8.715 -0.5108 -0.3997  0.1823
   52CHL1  H26A 3842   0.260   5.843   8.791  0.1531 -0.1903 -0.3878
   52CHL1  H26B 3843   0.164   5.981   8.710 -0.7919 -0.4516  0.1772
   52CHL1  H26C 3844   0.087   5.826   8.746 -1.6985  1.1378 -1.0891
   52CHL1   C27 3845   0.284   5.690   8.575 -0.3575  0.4647  0.3290
   52CHL1  H27A 3846   0.206   5.611   8.585 -0.4478  0.5592  0.3654
   52CHL1  H27B 3847   0.335   5.667   8.479 -0.7791 -5.6365  1.1615
   52CHL1  H27C 3848   0.356   5.689   8.660  0.5678  2.5246 -0.3847
   53CHL1    C3 3849   3.549   2.286   7.178 -0.1970  0.2846 -0.1552
   53CHL1    H3 3850   3.595   2.189   7.207 -0.2444  0.4389  0.4560
   53CHL1    O3 3851   3.527   2.296   7.042  0.3911 -0.5619 -0.5975
   53CHL1   H3' 3852   3.448   2.242   7.029 -0.1602  0.5354 -2.1076
   53CHL1    C4 3853   3.422   2.316   7.265 -0.0985  0.4113  0.3442
   53CHL1   H4A 3854   3.374   2.410   7.231  0.0463  0.8233  1.2550
   53CHL1   H4B 3855   3.346   2.238   7.241 -0.2953 -0.6334  3.8091
   53CHL1    C5 3856   3.454   2.301   7.410 -0.4851  0.2319 -0.0933
   53CHL1    C6 3857   3.384   2.215   7.480 -0.9692  0.3529  0.5978
   53CHL1    H6 3858   3.307   2.156   7.428  0.2889 -0.5456 -0.2916
   53CHL1    C7 3859   3.392   2.189   7.619  0.4110 -0.6200  0.0286
   53CHL1   H7A 3860   3.298   2.191   7.679 -0.0346  0.2147 -0.6841
   53CHL1   H7B 3861   3.426   2.083   7.617  0.5615 -0.5712  0.0018
   53CHL1    C8 3862   3.486   2.291   7.691 -0.1027  0.1953 -0.3498
   53CHL1    H8 3863   3.427   2.381   7.715 -0.2266 -0.1277  0.6026
   53CHL1   C14 3864   3.538   2.241   7.821  0.1663 -0.7267  0.9582
   53CHL1   H14 3865   3.602   2.155   7.791 -0.5371 -0.5088 -1.3802
   53CHL1   C15 3866   3.448   2.179   7.921  0.2171 -0.5140  0.2620
   53CHL1  H15A 3867   3.365   2.250   7.942  0.0078 -1.3852  2.7120
   53CHL1  H15B 3868   3.408   2.080   7.888 -0.8297  0.2677 -0.8902
   53CHL1   C16 3869   3.536   2.155   8.041 -0.4242  0.0670 -0.2111
   53CHL1  H16A 3870   3.477   2.185   8.130  0.9954  0.3640  0.6700
   53CHL1  H16B 3871   3.564   2.048   8.052 -1.5179 -0.1457  0.6251
   53CHL1   C17 3872   3.667   2.244   8.018  0.5303 -0.5732 -0.1765
   53CHL1   H17 3873   3.745   2.176   7.977  0.8388  0.0795 -0.6733
   53CHL1   C13 3874   3.632   2.337   7.895  0.2407  0.4718 -0.5946
   53CHL1   C18 3875   3.557   2.461   7.946  0.4785 -0.5655 -0.8123
   53CHL1  H18A 3876   3.627   2.521   8.008 -0.3955 -0.6537  0.2903
   53CHL1  H18B 3877   3.514   2.518   7.861  0.1632  0.8785  0.2628
   53CHL1  H18C 3878   3.464   2.443   8.003  0.9228 -1.2541 -0.2925
   53CHL1   C12 3879   3.751   2.368   7.806 -0.2044  0.1507  0.2525
   53CHL1  H12A 3880   3.824   2.432   7.861  0.4553 -1.6785  1.6309
   53CHL1  H12B 3881   3.804   2.274   7.778  1.4650  0.9900  0.4671
   53CHL1   C11 3882   3.704   2.423   7.674 -0.2431 -0.6879  0.1461
   53CHL1  H11A 3883   3.651   2.519   7.694 -0.1372 -0.0297 -2.3301
   53CHL1  H11B 3884   3.788   2.447   7.605  0.8323 -0.4103  1.5171
   53CHL1    C9 3885   3.611   2.333   7.602  0.0515  0.5151 -0.2806
   53CHL1    H9 3886   3.667   2.241   7.576  1.1680  0.7090  1.3491
   53CHL1   C10 3887   3.568   2.384   7.461 -0.4645 -0.2479  0.0588
   53CHL1   C19 3888   3.522   2.532   7.456  0.3019 -0.8240 -0.5438
   53CHL1  H19A 3889   3.469   2.564   7.364 -0.4468  1.7798  0.7074
   53CHL1  H19B 3890   3.450   2.557   7.537 -1.4696 -0.7630 -2.0683
   53CHL1  H19C 3891   3.608   2.600   7.466 -0.8706  0.7119 -0.5804
   53CHL1    C1 3892   3.692   2.378   7.366 -0.0996 -0.4242 -0.4053
   53CHL1   H1A 3893   3.766   2.457   7.391 -0.7460 -0.6807  2.7221
   53CHL1   H1B 3894   3.740   2.280   7.389 -1.5415 -1.2209 -0.7054
   53CHL1    C2 3895   3.660   2.387   7.217  0.4334  0.0675 -0.3759
   53CHL1   H2A 3896   3.751   2.356   7.162  0.6811 -1.2760  0.7389
   53CHL1   H2B 3897   3.622   2.490   7.196 -2.3820 -0.4570  1.5648
   53CHL1   C20 3898   3.724   2.297   8.150  0.4284  0.2675  0.3021
   53CHL1   H20 3899   3.659   2.381   8.183  2.2855  1.5169  0.9565
   53CHL1   C21 3900   3.867   2.359   8.129  0.4490 -0.1994  0.0333
   53CHL1  H21A 3901   3.934   2.281   8.087  1.3366 -0.8382  2.4399
   53CHL1  H21B 3902   3.922   2.384   8.223 -0.4335  0.9177  0.2698
   53CHL1  H21C 3903   3.852   2.449   8.066  0.4211  1.6406  2.4974
   53CHL1   C22 3904   3.728   2.188   8.250  0.2574 -0.2340 -0.5258
   53CHL1  H22A 3905   3.625   2.148   8.265  0.6351 -0.9723  0.2144
   53CHL1  H22B 3906   3.806   2.116   8.217 -0.8862 -0.0790 -3.9301
   53CHL1   C23 3907   3.766   2.241   8.399 -0.1473  0.1754  0.1209
   53CHL1  H23A 3908   3.837   2.326   8.396  0.9587 -0.5283  3.0123
   53CHL1  H23B 3909   3.679   2.280   8.457 -0.6744 -0.5071 -0.1887
   53CHL1   C24 3910   3.822   2.126   8.484 -0.7855  0.2681  0.0225
   53CHL1  H24A 3911   3.748   2.044   8.481 -0.7625  0.2484 -2.8828
   53CHL1  H24B 3912   3.915   2.083   8.441 -0.2493  0.4983  0.9335
   53CHL1   C25 3913   3.837   2.180   8.635  0.1428 -1.2353  0.0619
   53CHL1   H25 3914   3.748   2.238   8.668  0.6907  0.7099 -1.7239
   53CHL1   C26 3915   3.841   2.061   8.731  0.0842  0.6254  0.5267
   53CHL1  H26A 3916   3.939   2.009   8.723  1.2232  2.5723  1.2099
   53CHL1  H26B 3917   3.832   2.087   8.839 -0.0485 -0.9179  0.9136
   53CHL1  H26C 3918   3.759   1.995   8.696 -0.5816  2.5740 -1.8257
   53CHL1   C27 3919   3.952   2.269   8.652 -0.0290 -0.1013  0.2823
   53CHL1  H27A 3920   3.958   2.312   8.754 -1.3007  1.0133 -0.0812
   53CHL1  H27B 3921   4.048   2.217   8.633  1.1604  1.1974  2.3529
   53CHL1  H27C 3922   3.948   2.354   8.581  0.1930  0.6099  1.1000
   54CHL1    C3 3923   2.892   4.992   7.126 -0.0159  0.2198  0.6186
   54CHL1    H3 3924   2.809   5.056   7.162 -0.9686 -0.7680  0.2340
   54CHL1    O3 3925   2.898   4.994   6.981  0.2185  0.2815  0.0518
   54CHL1   H3' 3926   2.971   4.933   6.966  0.2536  0.1168  0.8041
   54CHL1    C4 3927   3.028   5.047   7.181  0.2029 -0.1267  0.2599
   54CHL1   H4A 3928   3.098   4.973   7.137 -2.3971 -2.1131 -0.8112
   54CHL1   H4B 3929   3.060   5.143   7.135  0.5618 -0.8894 -1.1501
   54CHL1    C5 3930   3.024   5.056   7.332  0.4002 -0.1348  0.1472
   54CHL1    C6 3931   3.052   5.167   7.395  0.8465 -0.0858 -0.0047
   54CHL1    H6 3932   3.090   5.249   7.331 -0.1754 -0.2448 -0.8341
   54CHL1    C7 3933   3.043   5.183   7.539 -1.0217 -0.1109 -0.6272
   54CHL1   H7A 3934   3.142   5.225   7.568 -1.2765 -0.2082  0.4054
   54CHL1   H7B 3935   2.967   5.254   7.577 -0.2990 -1.1221  3.0543
   54CHL1    C8 3936   3.032   5.051   7.611  0.2252 -0.4986 -0.2502
   54CHL1    H8 3937   3.133   5.005   7.612 -0.0447 -1.2077 -1.7515
   54CHL1   C14 3938   2.983   5.078   7.750  0.7554  0.0240 -0.1493
   54CHL1   H14 3939   2.876   5.105   7.744  0.5108 -0.4526  1.6420
   54CHL1   C15 3940   3.038   5.196   7.832  0.9157 -0.7376 -0.1917
   54CHL1  H15A 3941   3.149   5.198   7.826  0.9932  2.9026  0.5709
   54CHL1  H15B 3942   2.990   5.290   7.799 -2.9405 -2.2473  0.6098
   54CHL1   C16 3943   2.988   5.161   7.974 -0.0569 -0.4722 -0.5818
   54CHL1  H16A 3944   3.081   5.162   8.034  0.7162  1.7320 -1.6857
   54CHL1  H16B 3945   2.928   5.250   8.001 -0.7142 -1.2094  0.4611
   54CHL1   C17 3946   2.916   5.028   7.973 -0.0502  0.6224  0.2337
   54CHL1   H17 3947   2.806   5.033   7.963 -0.2359 -1.6556  0.6581
   54CHL1   C13 3948   2.969   4.951   7.846  0.3382  0.6033  0.1279
   54CHL1   C18 3949   3.118   4.897   7.863  0.0041 -0.1112 -0.4165
   54CHL1  H18A 3950   3.198   4.972   7.879  0.9830 -0.5362 -2.9702
   54CHL1  H18B 3951   3.127   4.823   7.946  3.9295  0.3086 -0.2664
   54CHL1  H18C 3952   3.152   4.839   7.775  0.6019  0.6944 -0.7221
   54CHL1   C12 3953   2.869   4.855   7.786  0.6001  0.3167  0.0980
   54CHL1  H12A 3954   2.855   4.758   7.838  0.4618 -0.6484 -1.6548
   54CHL1  H12B 3955   2.773   4.910   7.789  0.0672 -0.5009  4.3846
   54CHL1   C11 3956   2.908   4.826   7.639  0.6439 -0.3383  0.0660
   54CHL1  H11A 3957   2.984   4.745   7.632  0.0580 -0.7916 -1.4451
   54CHL1  H11B 3958   2.818   4.780   7.595 -0.5233  0.6458  1.3514
   54CHL1    C9 3959   2.930   4.953   7.551  0.3409 -0.0107 -0.0948
   54CHL1    H9 3960   2.835   5.010   7.556 -0.5037 -1.4615  3.2147
   54CHL1   C10 3961   2.967   4.928   7.396 -0.3576 -0.6613 -0.0768
   54CHL1   C19 3962   3.083   4.821   7.380 -0.0340  0.5664 -0.4452
   54CHL1  H19A 3963   3.123   4.799   7.279 -0.9108 -1.2947 -0.4216
   54CHL1  H19B 3964   3.164   4.855   7.449  1.2471 -2.1296 -0.5170
   54CHL1  H19C 3965   3.053   4.720   7.414 -1.4465  0.9372 -0.5360
   54CHL1    C1 3966   2.841   4.873   7.331  0.2463 -0.1329  0.0609
   54CHL1   H1A 3967   2.812   4.775   7.374 -1.2682  0.6335  0.8518
   54CHL1   H1B 3968   2.756   4.943   7.351  1.9593  1.8217  0.8569
   54CHL1    C2 3969   2.852   4.853   7.180 -0.5398 -0.8248  0.6415
   54CHL1   H2A 3970   2.766   4.825   7.116  0.7886 -0.6225 -1.3424
   54CHL1   H2B 3971   2.930   4.777   7.157 -0.8496 -1.4592  1.6045
   54CHL1   C20 3972   2.926   4.962   8.112 -0.2064 -0.3344 -0.1482
   54CHL1   H20 3973   3.033   4.952   8.140  0.3480  1.4617 -1.4946
   54CHL1   C21 3974   2.868   4.810   8.108 -0.2892  0.2162  0.6493
   54CHL1  H21A 3975   2.771   4.809   8.055  0.0866 -2.1690 -0.1022
   54CHL1  H21B 3976   2.853   4.770   8.210  0.4417 -0.6816  0.4158
   54CHL1  H21C 3977   2.932   4.750   8.039  0.2489  2.9607 -1.4526
   54CHL1   C22 3978   2.862   5.050   8.215 -0.2697 -0.6981 -0.9856
   54CHL1  H22A 3979   2.887   5.012   8.317 -0.0297 -1.8369 -1.4492
   54CHL1  H22B 3980   2.910   5.150   8.209 -1.2619 -0.0579  0.8939
   54CHL1   C23 3981   2.709   5.080   8.208  1.3465  0.3831 -0.4483
   54CHL1  H23A 3982   2.689   5.100   8.101  1.8987  1.6894 -0.3251
   54CHL1  H23B 3983   2.655   4.987   8.237 -2.5310  2.3330 -0.8522
   54CHL1   C24 3984   2.670   5.191   8.306 -0.3891  0.6700 -0.5139
   54CHL1  H24A 3985   2.692   5.138   8.401  0.7447  0.0674 -1.0959
   54CHL1  H24B 3986   2.743   5.272   8.280  2.4676 -1.3137  0.7554
   54CHL1   C25 3987   2.526   5.238   8.304  0.9694 -0.3094  0.0315
   54CHL1   H25 3988   2.470   5.153   8.260  2.6686 -1.1175 -0.6536
   54CHL1   C26 3989   2.477   5.271   8.443  0.6095 -0.1874 -0.3050
   54CHL1  H26A 3990   2.489   5.185   8.512  0.4385 -0.3764 -0.5071
   54CHL1  H26B 3991   2.537   5.358   8.474 -0.0391 -0.3759  1.6407
   54CHL1  H26C 3992   2.366   5.286   8.443  0.2194 -2.5585 -1.3607
   54CHL1   C27 3993   2.510   5.360   8.211  0.1365  0.4239 -0.4931
   54CHL1  H27A 3994   2.558   5.449   8.257 -0.6147 -0.8921  3.2340
   54CHL1  H27B 3995   2.563   5.344   8.115  1.8166 -0.8784  0.5712
   54CHL1  H27C 3996   2.403   5.381   8.195 -0.6781 -1.1429  2.1598
   55CHL1    C3 3997   4.906   6.202   7.058  0.4231 -0.1259 -0.0460
   55CHL1    H3 3998   4.854   6.299   7.040 -1.0554 -0.3909  2.3738
   55CHL1    O3 3999   4.930   6.119   6.948 -0.0489 -0.0834  0.0744
   55CHL1   H3' 4000   4.842   6.121   6.908 -0.6352 -1.8803  1.1568
   55CHL1    C4 4001   5.040   6.219   7.131 -0.0091  0.0637 -1.1909
   55CHL1   H4A 4002   5.091   6.121   7.143 -1.2228 -0.3273  1.5812
   55CHL1   H4B 4003   5.096   6.289   7.065  0.0832  0.2438 -0.9265
   55CHL1    C5 4004   5.020   6.279   7.267 -0.4292 -0.6321 -0.7649
   55CHL1    C6 4005   5.097   6.389   7.290  0.5670 -0.2137 -0.4499
   55CHL1    H6 4006   5.174   6.422   7.219 -0.0988  1.8709 -0.2861
   55CHL1    C7 4007   5.102   6.465   7.420  0.4455 -0.1362  0.4010
   55CHL1   H7A 4008   5.205   6.490   7.453  0.3164  0.4373  0.3742
   55CHL1   H7B 4009   5.047   6.561   7.414 -0.5614 -0.7545 -1.4232
   55CHL1    C8 4010   5.034   6.376   7.526  0.1222 -0.6336  0.0920
   55CHL1    H8 4011   5.105   6.294   7.546  0.1299 -1.1950 -1.9446
   55CHL1   C14 4012   5.007   6.464   7.651 -0.2397 -0.5286 -0.0909
   55CHL1   H14 4013   4.929   6.538   7.622 -2.1555 -2.8057 -1.1070
   55CHL1   C15 4014   5.131   6.537   7.716 -0.2223  0.4020  0.1937
   55CHL1  H15A 4015   5.222   6.475   7.722  0.7064  1.8766  2.3696
   55CHL1  H15B 4016   5.141   6.631   7.656 -1.4671 -0.8873 -2.2156
   55CHL1   C16 4017   5.079   6.559   7.861 -0.0026 -0.1692  0.6594
   55CHL1  H16A 4018   5.151   6.513   7.932 -1.8829 -0.2480  2.5824
   55CHL1  H16B 4019   5.067   6.668   7.881  2.0601 -0.0816  1.7252
   55CHL1   C17 4020   4.939   6.498   7.882  0.6132 -0.4549 -0.2148
   55CHL1   H17 4021   4.860   6.571   7.856  1.4871  0.1044 -1.3840
   55CHL1   C13 4022   4.938   6.388   7.765 -0.1260  0.5618  0.0427
   55CHL1   C18 4023   5.025   6.264   7.811 -0.3795 -0.0886 -0.7305
   55CHL1  H18A 4024   5.044   6.188   7.732  0.1307 -0.4572 -0.2629
   55CHL1  H18B 4025   5.120   6.295   7.860 -0.6746 -0.2154 -0.0816
   55CHL1  H18C 4026   4.969   6.206   7.887  1.2988 -1.2428 -0.3047
   55CHL1   C12 4027   4.796   6.347   7.717  1.1138 -0.0639 -0.1700
   55CHL1  H12A 4028   4.751   6.274   7.788 -0.9790 -0.9055 -2.2378
   55CHL1  H12B 4029   4.731   6.437   7.705  2.0474  0.3750 -2.4755
   55CHL1   C11 4030   4.804   6.269   7.587  0.4559 -0.0921  0.7071
   55CHL1  H11A 4031   4.833   6.165   7.613  0.7300 -0.0279  0.6699
   55CHL1  H11B 4032   4.698   6.277   7.554 -0.3969  0.1672  3.3169
   55CHL1    C9 4033   4.898   6.321   7.472  0.0509  0.3238 -0.5024
   55CHL1    H9 4034   4.844   6.409   7.432  1.5386  1.2464 -0.5522
   55CHL1   C10 4035   4.921   6.219   7.362  0.4872  0.1732  0.1324
   55CHL1   C19 4036   4.974   6.087   7.418 -1.0241  0.0418  0.4475
   55CHL1  H19A 4037   4.887   6.028   7.453 -0.4434 -1.2519 -0.2278
   55CHL1  H19B 4038   5.032   6.038   7.337  3.0551  4.5616  0.1512
   55CHL1  H19C 4039   5.048   6.103   7.500 -2.8659  0.1496  2.1750
   55CHL1    C1 4040   4.787   6.200   7.283  0.3496  0.0936  0.6638
   55CHL1   H1A 4041   4.728   6.127   7.341  3.7855 -4.9972 -1.5673
   55CHL1   H1B 4042   4.726   6.291   7.263 -0.0308 -0.4205 -0.6235
   55CHL1    C2 4043   4.806   6.132   7.145  0.3028 -0.1238  0.8394
   55CHL1   H2A 4044   4.708   6.131   7.092 -0.0396 -1.9317  1.4195
   55CHL1   H2B 4045   4.831   6.026   7.165  0.6761 -0.0573  0.7311
   55CHL1   C20 4046   4.924   6.458   8.036 -0.2204 -0.0791 -0.5656
   55CHL1   H20 4047   5.016   6.405   8.067  0.7481  0.9301 -1.5950
   55CHL1   C21 4048   4.799   6.366   8.068 -0.3805 -0.0803 -0.2057
   55CHL1  H21A 4049   4.779   6.340   8.175 -0.2354  1.2160  0.1543
   55CHL1  H21B 4050   4.808   6.269   8.016  2.1950  0.1773 -0.3356
   55CHL1  H21C 4051   4.705   6.416   8.036 -0.0607 -0.2625 -1.4500
   55CHL1   C22 4052   4.907   6.592   8.115 -0.1601  1.2279  0.8918
   55CHL1  H22A 4053   5.001   6.652   8.115  1.6919 -1.3053 -2.6083
   55CHL1  H22B 4054   4.825   6.650   8.067  0.4105 -0.0312 -1.7777
   55CHL1   C23 4055   4.879   6.585   8.267 -0.3915 -0.8426  0.0750
   55CHL1  H23A 4056   4.852   6.687   8.304  0.4162 -0.2154 -1.0185
   55CHL1  H23B 4057   4.798   6.519   8.306 -2.8533  2.1911  0.5580
   55CHL1   C24 4058   5.018   6.557   8.346  0.9702  0.0832  0.2870
   55CHL1  H24A 4059   5.063   6.471   8.292 -0.0730  0.3270 -1.0113
   55CHL1  H24B 4060   5.090   6.639   8.325  0.5301  0.8158  1.5526
   55CHL1   C25 4061   5.014   6.526   8.497  0.5592 -0.0426 -0.4519
   55CHL1   H25 4062   4.940   6.444   8.515  0.1877  0.3358 -0.2436
   55CHL1   C26 4063   5.139   6.464   8.563 -0.2394  1.4384 -0.3446
   55CHL1  H26A 4064   5.185   6.379   8.507 -1.4206  1.5082 -1.4585
   55CHL1  H26B 4065   5.222   6.537   8.555  0.4476  0.6952 -0.1439
   55CHL1  H26C 4066   5.123   6.425   8.665  0.9427 -2.6732 -1.5243
   55CHL1   C27 4067   4.955   6.652   8.569  0.1682  0.6703 -0.3834
   55CHL1  H27A 4068   4.945   6.634   8.678  0.4735 -2.0933 -0.7475
   55CHL1  H27B 4069   5.019   6.741   8.553 -0.3561  0.9885 -0.7240
   55CHL1  H27C 4070   4.856   6.681   8.529 -0.4424  1.2811  1.4691
   56CHL1    C3 4071   3.071   2.344   7.114 -0.0253  0.2548 -0.2507
   56CHL1    H3 4072   3.163   2.308   7.165 -1.0482 -0.7648  0.9536
   56CHL1    O3 4073   3.056   2.307   6.981  0.3070  0.1436 -0.5862
   56CHL1   H3' 4074   2.964   2.328   6.961 -0.3271 -1.8865 -0.0865
   56CHL1    C4 4075   2.960   2.274   7.193 -0.2177  0.4738 -0.4039
   56CHL1   H4A 4076   2.868   2.317   7.148 -1.3029 -0.7949  0.5539
   56CHL1   H4B 4077   2.958   2.165   7.172  0.0996  0.9425 -3.2255
   56CHL1    C5 4078   2.977   2.307   7.340  0.1050 -0.9245  0.3269
   56CHL1    C6 4079   2.988   2.200   7.428 -0.0515 -0.3989  0.2817
   56CHL1    H6 4080   2.990   2.097   7.391 -2.2887 -1.1734  2.1098
   56CHL1    C7 4081   2.981   2.223   7.576 -0.0925  0.3916  1.0138
   56CHL1   H7A 4082   2.903   2.156   7.619 -0.8030 -0.1501 -1.0066
   56CHL1   H7B 4083   3.075   2.188   7.622  0.2260  2.2074  1.8566
   56CHL1    C8 4084   2.968   2.372   7.622 -0.3739 -0.7490 -0.3680
   56CHL1    H8 4085   2.862   2.402   7.609  0.5538  2.0000 -2.6882
   56CHL1   C14 4086   3.031   2.396   7.760 -0.1787  0.0261 -0.0133
   56CHL1   H14 4087   3.136   2.359   7.759 -0.5885 -1.3807  1.9026
   56CHL1   C15 4088   2.973   2.312   7.877  0.2499 -0.1944  0.1996
   56CHL1  H15A 4089   2.863   2.315   7.884  0.2383 -2.2066  1.8304
   56CHL1  H15B 4090   3.010   2.208   7.870  0.5569  0.0094 -1.9158
   56CHL1   C16 4091   3.018   2.383   8.002 -0.3952  0.4900 -0.6002
   56CHL1  H16A 4092   2.932   2.420   8.062  1.1620 -0.3033  2.2920
   56CHL1  H16B 4093   3.077   2.311   8.063  1.1731  0.6569 -1.8674
   56CHL1   C17 4094   3.098   2.508   7.958 -1.2165  0.5552  0.3702
   56CHL1   H17 4095   3.206   2.485   7.948 -1.1792  0.9998 -0.3281
   56CHL1   C13 4096   3.054   2.536   7.811 -0.4556 -0.2243  0.1908
   56CHL1   C18 4097   2.917   2.610   7.817 -0.8089 -0.0897 -0.0298
   56CHL1  H18A 4098   2.855   2.566   7.898  0.1028  0.7047  1.1181
   56CHL1  H18B 4099   2.930   2.717   7.842 -2.7131  0.2538 -0.3204
   56CHL1  H18C 4100   2.855   2.588   7.727 -0.0839 -0.4902 -0.4404
   56CHL1   C12 4101   3.149   2.611   7.712  0.9124  1.2810 -0.6294
   56CHL1  H12A 4102   3.165   2.713   7.752  4.1802  0.5505  0.2574
   56CHL1  H12B 4103   3.250   2.567   7.695  0.7159  1.2156 -1.6529
   56CHL1   C11 4104   3.085   2.612   7.572 -0.0585  0.4243 -0.5404
   56CHL1  H11A 4105   3.004   2.688   7.571 -1.4894 -1.0090  1.0356
   56CHL1  H11B 4106   3.161   2.656   7.503 -0.9194  0.9940 -1.1420
   56CHL1    C9 4107   3.046   2.466   7.523  0.0979 -0.1157  0.2767
   56CHL1    H9 4108   3.146   2.418   7.527  0.0599 -0.4319 -1.8035
   56CHL1   C10 4109   2.992   2.456   7.384 -0.3673  0.0970  0.8045
   56CHL1   C19 4110   2.857   2.530   7.369  0.0589  0.4215 -0.2209
   56CHL1  H19A 4111   2.872   2.639   7.378 -2.0668  0.7022  0.5567
   56CHL1  H19B 4112   2.808   2.513   7.270  0.3862 -3.4136  0.1181
   56CHL1  H19C 4113   2.782   2.495   7.444 -0.5752  3.2259  0.5586
   56CHL1    C1 4114   3.091   2.523   7.284  0.3265 -0.6693 -0.0418
   56CHL1   H1A 4115   3.106   2.632   7.301  2.3020 -0.8207 -0.6490
   56CHL1   H1B 4116   3.191   2.482   7.309  0.6120 -1.2539 -1.9960
   56CHL1    C2 4117   3.064   2.497   7.134  0.1347 -0.5486  0.0011
   56CHL1   H2A 4118   3.138   2.551   7.073  2.4252 -0.9844  2.2192
   56CHL1   H2B 4119   2.961   2.534   7.115 -0.2157 -1.1809  0.6006
   56CHL1   C20 4120   3.093   2.618   8.068 -0.4412  0.7729  0.6876
   56CHL1   H20 4121   2.984   2.635   8.072 -0.3291  1.6341  0.2871
   56CHL1   C21 4122   3.156   2.756   8.026  0.5892 -0.1780 -0.5308
   56CHL1  H21A 4123   3.169   2.812   8.121 -1.1260  1.0383 -0.9537
   56CHL1  H21B 4124   3.093   2.814   7.954 -1.2611  1.9377  2.5263
   56CHL1  H21C 4125   3.256   2.729   7.987  0.0811 -2.0880 -0.6242
   56CHL1   C22 4126   3.121   2.571   8.208 -0.1750 -0.0735  0.3816
   56CHL1  H22A 4127   3.119   2.668   8.262  0.2543  1.2926 -1.9146
   56CHL1  H22B 4128   3.046   2.508   8.261  0.8059  0.4618  2.5369
   56CHL1   C23 4129   3.267   2.516   8.211 -0.1803  0.2059 -0.0092
   56CHL1  H23A 4130   3.278   2.430   8.141 -0.8456  1.2915 -1.5093
   56CHL1  H23B 4131   3.339   2.593   8.177 -0.6042  1.2454  1.3916
   56CHL1   C24 4132   3.297   2.479   8.364 -0.5188 -0.1959 -0.3791
   56CHL1  H24A 4133   3.404   2.448   8.367  0.5019  3.0704  1.7503
   56CHL1  H24B 4134   3.287   2.569   8.427 -1.3159 -0.6492  0.1646
   56CHL1   C25 4135   3.218   2.364   8.429  0.0695 -0.5907 -0.1406
   56CHL1   H25 4136   3.112   2.390   8.409  0.3984 -1.3435 -3.4704
   56CHL1   C26 4137   3.256   2.232   8.357 -0.5318  0.4637  0.5596
   56CHL1  H26A 4138   3.364   2.208   8.357  0.4144  3.8326 -2.5775
   56CHL1  H26B 4139   3.210   2.235   8.256 -1.7109  3.0285  1.0692
   56CHL1  H26C 4140   3.200   2.152   8.409 -0.8499 -0.4309 -1.0842
   56CHL1   C27 4141   3.252   2.370   8.579  0.4261  0.1932  0.0552
   56CHL1  H27A 4142   3.183   2.312   8.644  1.8294  0.5856  1.9847
   56CHL1  H27B 4143   3.350   2.320   8.592 -0.6150 -1.7568  0.8316
   56CHL1  H27C 4144   3.243   2.476   8.612  0.3514  1.0283 -2.4617
   57SAPC     N 4145   4.293   6.754  10.919 -0.9202 -0.3901  0.2169
   57SAPC   C12 4146   4.247   6.631  10.848  0.2819  0.1535 -0.5636
   57SAPC  H12A 4147   4.175   6.660  10.773 -3.6108 -1.5143  2.2105
   57SAPC  H12B 4148   4.189   6.575  10.919  1.3336 -0.2030  0.0354
   57SAPC   C13 4149   4.391   6.716  11.030 -0.2980 -0.3131  0.0337
   57SAPC  H13A 4150   4.476   6.658  10.998 -0.0364  0.9272 -1.6858
   57SAPC  H13B 4151   4.412   6.806  11.086 -1.8639  0.4912 -0.5830
   57SAPC  H13C 4152   4.343   6.658  11.107  2.2917 -0.2671  1.8044
   57SAPC   C14 4153   4.355   6.861  10.825 -0.0726 -0.1553 -0.5206
   57SAPC  H14A 4154   4.397   6.942  10.883  0.2645  1.2211 -2.5839
   57SAPC  H14B 4155   4.431   6.822  10.759 -0.0615  0.6109 -0.9739
   57SAPC  H14C 4156   4.286   6.904  10.754 -0.0767 -1.4735 -1.3385
   57SAPC   C15 4157   4.174   6.828  10.979  0.0195 -0.0897 -0.8268
   57SAPC  H15A 4158   4.121   6.754  11.036 -1.1179 -1.1211 -3.0947
   57SAPC  H15B 4159   4.200   6.907  11.048  0.0232 -1.4238  0.7451
   57SAPC  H15C 4160   4.117   6.866  10.895  1.0595  2.7529 -0.3754
   57SAPC   C11 4161   4.358   6.539  10.789 -0.6529  0.4724  0.3564
   57SAPC  H11A 4162   4.436   6.608  10.750 -0.0451  1.0414  2.4689
   57SAPC  H11B 4163   4.303   6.487  10.708 -0.4988 -0.2822  0.7285
   57SAPC     P 4164   4.552   6.407  10.898  0.2150  0.2787 -0.1614
   57SAPC   O13 4165   4.626   6.525  10.950 -0.5311 -0.2961  0.5821
   57SAPC   O14 4166   4.564   6.278  10.976  0.2206  0.5371 -0.0750
   57SAPC   O12 4167   4.402   6.445  10.883 -0.3072  0.2044 -0.2103
   57SAPC   O11 4168   4.597   6.385  10.746  0.3773  0.1707 -0.3287
   57SAPC    C1 4169   4.543   6.275  10.672  0.1352 -0.9567  0.0447
   57SAPC    HA 4170   4.615   6.191  10.678  1.6010  0.2280 -0.0757
   57SAPC    HB 4171   4.453   6.230  10.718 -0.2154  1.7570  2.2669
   57SAPC    C2 4172   4.516   6.309  10.516  0.4858  0.1828 -0.1216
   57SAPC    HS 4173   4.619   6.325  10.478  0.8700 -0.7502  0.4825
   57SAPC   O21 4174   4.439   6.428  10.513 -0.5800  0.2877  0.0360
   57SAPC   C21 4175   4.491   6.525  10.436  0.1927  1.0902  0.1778
   57SAPC   O22 4176   4.586   6.510  10.366 -0.9232 -0.0682  0.5316
   57SAPC   C22 4177   4.406   6.645  10.458  0.2413 -0.3453 -0.4082
   57SAPC   H2R 4178   4.298   6.621  10.455 -0.5294  2.1557  2.2186
   57SAPC   H2S 4179   4.427   6.699  10.553  0.2073 -1.2436  0.1133
   57SAPC    C3 4180   4.441   6.200  10.435  0.7676 -0.1748 -0.7279
   57SAPC    HX 4181   4.336   6.224  10.463  1.2894 -1.3804  2.7279
   57SAPC    HY 4182   4.457   6.095  10.469 -1.9567 -0.1114  1.1244
   57SAPC   O31 4183   4.458   6.224  10.295 -0.8797  0.2622  0.6449
   57SAPC   C31 4184   4.542   6.141  10.238  0.3407  0.3496 -0.0573
   57SAPC   O32 4185   4.577   6.038  10.288 -0.3847 -0.0549  0.4123
   57SAPC   C32 4186   4.590   6.198  10.103 -0.1597 -0.0717  0.2106
   57SAPC   H2X 4187   4.645   6.293  10.120  0.4949 -0.6379  1.3835
   57SAPC   H2Y 4188   4.500   6.211  10.038 -0.3015 -2.0299 -0.0437
   57SAPC   C23 4189   4.415   6.742  10.339 -0.2145  0.2880 -0.5254
   57SAPC   H3R 4190   4.518   6.757  10.301  0.9102 -0.1514  2.1711
   57SAPC   H3S 4191   4.371   6.842  10.359 -1.1874 -0.6423  2.5267
   57SAPC   C24 4192   4.341   6.688  10.215 -0.4515 -0.3350  0.7086
   57SAPC   H4R 4193   4.382   6.588  10.190  1.8040  0.4843  0.8673
   57SAPC   H4S 4194   4.369   6.758  10.133  0.4551  2.9045  3.5060
   57SAPC   C25 4195   4.188   6.692  10.216 -0.1174 -0.0706 -0.4162
   57SAPC   H5R 4196   4.149   6.793  10.196 -0.1817 -0.2466 -1.2022
   57SAPC   C26 4197   4.098   6.593  10.245  0.1838 -0.4561 -0.0855
   57SAPC   H6R 4198   3.992   6.622  10.246  1.2950  4.5798 -1.1579
   57SAPC   C27 4199   4.131   6.445  10.268  0.2861 -0.0592  0.0845
   57SAPC   H7R 4200   4.103   6.410  10.370 -0.7993 -1.5519 -0.6889
   57SAPC   H7S 4201   4.240   6.427  10.256  0.3030  0.0567  0.0683
   57SAPC   C28 4202   4.063   6.353  10.169  0.6217  0.1176  0.3537
   57SAPC   H8R 4203   3.963   6.318  10.198  1.2569  0.3243  3.0780
   57SAPC   C29 4204   4.105   6.327  10.042  0.8935  0.4232  0.4010
   57SAPC   H9R 4205   4.040   6.257   9.987 -0.8585  1.2432  1.3509
   57SAPC  C210 4206   4.232   6.365   9.968 -0.0664  0.2822 -0.2232
   57SAPC  H10R 4207   4.276   6.274   9.922 -0.0152  0.3790 -0.3672
   57SAPC  H10S 4208   4.305   6.408  10.041 -2.1857  1.2030  1.4814
   57SAPC  C211 4209   4.190   6.464   9.863 -0.6078  0.2406  0.6956
   57SAPC  H11R 4210   4.141   6.555   9.901 -1.2757  0.8278 -1.4151
   57SAPC  C212 4211   4.190   6.453   9.730  0.3590  0.5495 -0.2607
   57SAPC  H12R 4212   4.152   6.539   9.673 -0.6716  1.3078  1.4853
   57SAPC  C213 4213   4.249   6.336   9.657 -0.0156 -0.3129 -0.1397
   57SAPC  H13R 4214   4.247   6.241   9.715  1.9609  0.4220  1.2485
   57SAPC  H13S 4215   4.355   6.366   9.648  0.7268 -2.4636  0.7941
   57SAPC  C214 4216   4.206   6.321   9.514 -0.4132  0.5869  0.1076
   57SAPC  H14R 4217   4.110   6.373   9.497 -0.6319  0.3403  0.5850
   57SAPC  C215 4218   4.268   6.273   9.411 -0.3198 -0.0450  0.4146
   57SAPC  H15R 4219   4.236   6.274   9.306  0.4676 -4.7953 -0.0868
   57SAPC  C216 4220   4.409   6.213   9.412 -0.4960  0.3937 -0.2132
   57SAPC  H16R 4221   4.408   6.112   9.366 -1.1451  0.0307  0.5837
   57SAPC  H16S 4222   4.452   6.219   9.514  2.1612 -3.5297 -0.8850
   57SAPC  C217 4223   4.511   6.296   9.335  0.0303  0.0537 -0.4173
   57SAPC  H17R 4224   4.539   6.379   9.403 -0.4065  0.8058 -1.1399
   57SAPC  H17S 4225   4.471   6.325   9.235  3.6143  1.3862 -1.5912
   57SAPC  C218 4226   4.635   6.213   9.308 -0.1815 -0.2788 -0.5348
   57SAPC  H18R 4227   4.606   6.122   9.251 -2.6007  1.9340 -3.1742
   57SAPC  H18S 4228   4.683   6.178   9.401 -0.5300  0.7981  0.0687
   57SAPC  C219 4229   4.742   6.282   9.228 -0.6164 -0.4526  1.1892
   57SAPC  H19R 4230   4.816   6.204   9.200  0.6525  0.1859  2.6235
   57SAPC  H19S 4231   4.802   6.353   9.289 -0.5251 -1.7475  2.6945
   57SAPC  C220 4232   4.695   6.347   9.092 -0.9179  0.7835  0.1539
   57SAPC  H20R 4233   4.776   6.354   9.017  0.3059  1.8333  1.5095
   57SAPC  H20S 4234   4.660   6.452   9.095 -4.3643 -0.2072 -1.0917
   57SAPC  H20T 4235   4.619   6.281   9.045  1.5993 -0.1248 -3.0016
   57SAPC   C33 4236   4.708   6.108  10.040  0.4145 -0.3175 -0.4731
   57SAPC   H3X 4237   4.666   6.006  10.028 -1.5189  0.3664  0.1423
   57SAPC   H3Y 4238   4.794   6.114  10.109 -0.1159  0.6708  0.1204
   57SAPC   C34 4239   4.751   6.170   9.907  0.6089 -0.7292  0.3986
   57SAPC   H4X 4240   4.849   6.122   9.886  0.7279  0.1267 -1.1004
   57SAPC   H4Y 4241   4.770   6.277   9.931 -0.8814 -0.4624  0.4605
   57SAPC   C35 4242   4.646   6.172   9.794 -0.1870 -0.1636  0.2084
   57SAPC   H5X 4243   4.697   6.216   9.705  1.0740 -1.6384  0.1551
   57SAPC   H5Y 4244   4.572   6.242   9.838 -0.6579 -1.1500  0.9964
   57SAPC   C36 4245   4.600   6.037   9.754  0.1502  0.4593  0.2184
   57SAPC   H6X 4246   4.515   6.044   9.682  0.5049  0.3876 -0.2146
   57SAPC   H6Y 4247   4.561   5.984   9.844  1.7103  1.2680  1.4054
   57SAPC   C37 4248   4.697   5.951   9.685  0.2227  0.7534  0.0482
   57SAPC   H7X 4249   4.780   5.939   9.758  1.7589  2.6084 -1.2956
   57SAPC   H7Y 4250   4.746   6.002   9.599 -1.2391 -1.0928 -1.9925
   57SAPC   C38 4251   4.642   5.813   9.647  0.4067 -0.1164 -0.5230
   57SAPC   H8X 4252   4.592   5.784   9.743  1.5004  1.6331  0.6325
   57SAPC   H8Y 4253   4.727   5.741   9.651  1.2899  0.8521  3.6724
   57SAPC   C39 4254   4.555   5.804   9.528 -0.6252 -0.0076  0.6605
   57SAPC   H9X 4255   4.489   5.893   9.521  1.1184  1.2466 -0.7287
   57SAPC   H9Y 4256   4.493   5.711   9.530 -0.4563 -0.1333  0.2649
   57SAPC  C310 4257   4.629   5.793   9.394  0.0868  1.1751 -0.0735
   57SAPC  H10X 4258   4.661   5.688   9.381 -2.1957  0.1578  1.8751
   57SAPC  H10Y 4259   4.716   5.861   9.397  2.0883 -1.2608  2.6973
   57SAPC  C311 4260   4.534   5.809   9.277 -0.2600  0.3076  0.0878
   57SAPC  H11X 4261   4.485   5.907   9.293 -0.7934  0.5547 -2.6764
   57SAPC  H11Y 4262   4.461   5.726   9.274  0.9201 -0.7908  0.4769
   57SAPC  C312 4263   4.610   5.809   9.140 -0.3816 -0.9862 -0.9246
   57SAPC  H12X 4264   4.633   5.702   9.117 -1.0595 -1.6065  1.0632
   57SAPC  H12Y 4265   4.707   5.859   9.161 -1.1507 -0.2738  1.2214
   57SAPC  C313 4266   4.539   5.886   9.029 -0.5153 -0.0139 -0.0576
   57SAPC  H13X 4267   4.539   5.995   9.046 -0.2788  0.2227 -1.4585
   57SAPC  H13Y 4268   4.436   5.843   9.024 -0.3102 -0.4181 -1.0674
   57SAPC  C314 4269   4.599   5.868   8.889  1.0068 -0.7940  0.1940
   57SAPC  H14X 4270   4.708   5.890   8.891  0.6403  1.1084  0.9339
   57SAPC  H14Y 4271   4.554   5.951   8.832 -0.5349 -1.5448  0.2764
   57SAPC  C315 4272   4.589   5.725   8.838 -0.4180  0.1806 -0.3478
   57SAPC  H15X 4273   4.489   5.680   8.856  0.0069 -0.1670  1.3505
   57SAPC  H15Y 4274   4.667   5.669   8.894 -2.0102 -3.4490 -1.4762
   57SAPC  C316 4275   4.628   5.718   8.688  0.1793  0.3104  0.6289
   57SAPC  H16X 4276   4.632   5.612   8.654 -0.3041 -0.8918  3.9558
   57SAPC  H16Y 4277   4.725   5.769   8.673 -0.6367  1.3582 -1.5327
   57SAPC  C317 4278   4.521   5.774   8.591 -0.9748 -0.0497 -0.5500
   57SAPC  H17X 4279   4.478   5.873   8.616 -0.0905 -0.0393  1.0338
   57SAPC  H17Y 4280   4.434   5.706   8.602 -0.5890 -0.3347  1.0439
   57SAPC  C318 4281   4.571   5.769   8.445  0.8594  0.6237 -0.6775
   57SAPC  H18X 4282   4.494   5.809   8.375  0.6099 -0.3325 -0.9674
   57SAPC  H18Y 4283   4.595   5.665   8.416  0.8759  0.1621  0.9068
   57SAPC  H18Z 4284   4.658   5.836   8.430  0.8026  0.7966 -0.2388
   58SAPC     N 4285   6.739   4.306  10.781 -0.6040 -0.0406 -0.0219
   58SAPC   C12 4286   6.795   4.231  10.660  0.7141  0.2053 -0.1724
   58SAPC  H12A 4287   6.861   4.304  10.615 -2.4375  2.2686 -1.8178
   58SAPC  H12B 4288   6.724   4.236  10.579  0.6792  1.4739 -0.0823
   58SAPC   C13 4289   6.849   4.337  10.881 -0.4812  0.2416 -0.1320
   58SAPC  H13A 4290   6.894   4.243  10.908  0.9899  1.1557  0.7881
   58SAPC  H13B 4291   6.931   4.389  10.834  0.2859 -0.1293  0.7776
   58SAPC  H13C 4292   6.824   4.401  10.965  0.0862  0.9701 -0.5067
   58SAPC   C14 4293   6.686   4.443  10.731 -0.2623  0.4471 -0.6128
   58SAPC  H14A 4294   6.602   4.416  10.669  0.4196 -2.3085 -0.4653
   58SAPC  H14B 4295   6.647   4.500  10.814 -1.6450 -0.3569 -0.6845
   58SAPC  H14C 4296   6.759   4.504  10.680 -1.1874  2.6971  0.5967
   58SAPC   C15 4297   6.627   4.227  10.857  0.3215  0.0336  0.8199
   58SAPC  H15A 4298   6.653   4.130  10.895 -0.6267 -0.1595  0.9877
   58SAPC  H15B 4299   6.600   4.280  10.947  2.2473 -1.7598  2.5587
   58SAPC  H15C 4300   6.539   4.215  10.796  1.1532 -1.3193 -0.1653
   58SAPC   C11 4301   6.865   4.090  10.673  0.4913  0.1577 -0.3797
   58SAPC  H11A 4302   6.960   4.103  10.730  0.4937  0.6749 -0.4891
   58SAPC  H11B 4303   6.897   4.070  10.568  0.7808 -1.4358 -0.0023
   58SAPC     P 4304   6.652   3.937  10.668 -0.0309  0.2073  0.5162
   58SAPC   O13 4305   6.568   3.898  10.779 -0.0670 -0.2263 -0.5145
   58SAPC   O14 4306   6.594   4.032  10.572  0.1834  0.2900  0.2538
   58SAPC   O12 4307   6.782   3.987  10.735 -0.3254 -0.8308 -0.1203
   58SAPC   O11 4308   6.693   3.804  10.592  0.0625 -0.2660 -0.3345
   58SAPC    C1 4309   6.827   3.750  10.612  0.2292 -0.0372  1.1124
   58SAPC    HA 4310   6.906   3.827  10.599 -0.2984  0.1945 -1.1095
   58SAPC    HB 4311   6.834   3.705  10.713 -2.8482 -4.1802 -0.2644
   58SAPC    C2 4312   6.861   3.645  10.502 -1.0652  0.2157 -0.1466
   58SAPC    HS 4313   6.965   3.609  10.513 -0.7685  1.1264  0.0190
   58SAPC   O21 4314   6.838   3.690  10.369  0.0476 -0.3089 -0.1791
   58SAPC   C21 4315   6.943   3.773  10.323 -0.0188  0.4649 -0.1481
   58SAPC   O22 4316   7.044   3.776  10.385  0.7053 -0.0377 -0.4996
   58SAPC   C22 4317   6.908   3.847  10.191  0.2841  0.5118  0.5099
   58SAPC   H2R 4318   6.830   3.918  10.224 -0.0328 -0.0014  0.8910
   58SAPC   H2S 4319   6.992   3.914  10.163 -0.7176  1.9358  0.7896
   58SAPC    C3 4320   6.764   3.524  10.527 -0.2981  0.5037 -1.1372
   58SAPC    HX 4321   6.659   3.552  10.504 -1.0348 -1.2640 -0.1032
   58SAPC    HY 4322   6.772   3.504  10.635 -0.2229 -0.0419 -1.2432
   58SAPC   O31 4323   6.804   3.410  10.439 -0.2745  0.4994 -0.3836
   58SAPC   C31 4324   6.751   3.291  10.468 -0.0266 -0.4338 -0.0142
   58SAPC   O32 4325   6.682   3.270  10.566  0.0869 -0.1138  0.1352
   58SAPC   C32 4326   6.792   3.181  10.365  0.3379 -0.0717 -0.5900
   58SAPC   H2X 4327   6.697   3.125  10.352  0.9892 -1.6918  1.2050
   58SAPC   H2Y 4328   6.859   3.117  10.425 -0.4875  0.7276  1.2608
   58SAPC   C23 4329   6.855   3.767  10.072 -0.1546  0.9889 -0.0092
   58SAPC   H3R 4330   6.796   3.835  10.008 -0.5765  1.4450  0.8524
   58SAPC   H3S 4331   6.795   3.681  10.108  2.2551  0.7734  4.1162
   58SAPC   C24 4332   6.974   3.715   9.989 -0.2157  0.4309  0.4521
   58SAPC   H4R 4333   7.059   3.678  10.049 -0.6315  0.1483  0.8719
   58SAPC   H4S 4334   7.012   3.810   9.945 -2.4379  1.8225  1.3488
   58SAPC   C25 4335   6.936   3.606   9.887  0.0720 -0.2810 -0.6748
   58SAPC   H5R 4336   6.932   3.506   9.933 -0.7005  0.2206  0.3946
   58SAPC   C26 4337   6.923   3.619   9.757  0.5343  0.1230 -0.1855
   58SAPC   H6R 4338   6.896   3.529   9.699 -1.3655  0.7117 -0.2920
   58SAPC   C27 4339   6.948   3.741   9.669 -0.3472  0.3734  0.1566
   58SAPC   H7R 4340   6.939   3.826   9.740  0.3507 -1.5539  2.7435
   58SAPC   H7S 4341   6.857   3.738   9.605 -0.3697 -1.8547  0.1915
   58SAPC   C28 4342   7.081   3.756   9.595 -0.5299 -0.0837  0.3892
   58SAPC   H8R 4343   7.168   3.774   9.661  0.3062  2.0728 -1.1940
   58SAPC   C29 4344   7.119   3.757   9.465  0.3964 -0.0390 -0.4525
   58SAPC   H9R 4345   7.224   3.768   9.436  0.4003  0.2142 -0.3460
   58SAPC  C210 4346   7.033   3.741   9.346 -0.3577 -0.4327 -0.3349
   58SAPC  H10R 4347   7.059   3.805   9.259 -1.3313 -0.8623 -0.9581
   58SAPC  H10S 4348   6.934   3.769   9.388  0.6895  0.2620  1.8406
   58SAPC  C211 4349   7.030   3.595   9.317 -0.1423  0.1060  0.7112
   58SAPC  H11R 4350   6.999   3.527   9.398 -0.0367  0.2726  0.8920
   58SAPC  C212 4351   7.046   3.541   9.194 -0.0253  0.1528 -0.0336
   58SAPC  H12R 4352   7.041   3.432   9.177  0.0192  0.5154 -2.7278
   58SAPC  C213 4353   7.077   3.612   9.061 -0.0170  0.7124 -0.7097
   58SAPC  H13R 4354   7.161   3.555   9.016 -0.5559  0.2703 -1.1619
   58SAPC  H13S 4355   7.102   3.720   9.069 -1.6890  1.0280  1.1693
   58SAPC  C214 4356   6.954   3.603   8.977 -0.3700  0.5694 -0.5420
   58SAPC  H14R 4357   6.869   3.579   9.044 -1.0265  0.7478 -1.2934
   58SAPC  C215 4358   6.938   3.618   8.844 -0.0952 -0.0382  0.6835
   58SAPC  H15R 4359   6.837   3.619   8.802 -0.1440 -0.6845  0.7796
   58SAPC  C216 4360   7.054   3.635   8.746 -0.3219 -0.2531 -0.1029
   58SAPC  H16R 4361   7.155   3.648   8.792  0.3369 -0.7873 -1.3370
   58SAPC  H16S 4362   7.032   3.725   8.686 -0.1151 -0.1779 -0.0682
   58SAPC  C217 4363   7.060   3.513   8.648 -0.0339 -0.2138 -0.2700
   58SAPC  H17R 4364   6.964   3.496   8.594 -0.1549 -1.6632  0.3465
   58SAPC  H17S 4365   7.076   3.415   8.698 -0.6890 -0.0255  0.3272
   58SAPC  C218 4366   7.160   3.543   8.543 -0.2794  0.3765 -0.0513
   58SAPC  H18R 4367   7.116   3.623   8.480  0.7863 -0.2153 -1.6018
   58SAPC  H18S 4368   7.172   3.461   8.469  0.0230 -0.8057  1.2605
   58SAPC  C219 4369   7.300   3.569   8.604 -0.0634 -0.3046  0.2685
   58SAPC  H19R 4370   7.318   3.665   8.655  0.7473 -0.4729  0.3141
   58SAPC  H19S 4371   7.372   3.569   8.519  0.2048  1.1963  0.4778
   58SAPC  C220 4372   7.335   3.446   8.692 -0.3909 -0.3331 -0.3514
   58SAPC  H20R 4373   7.439   3.459   8.726 -0.6070  0.2196  0.1080
   58SAPC  H20S 4374   7.322   3.351   8.635  1.0978 -0.7092 -0.0840
   58SAPC  H20T 4375   7.265   3.435   8.778  2.1958 -1.6325  1.7014
   58SAPC   C33 4376   6.858   3.240  10.240  0.5688 -0.3473  0.5905
   58SAPC   H3X 4377   6.950   3.290  10.276  0.6679 -1.0946  1.4284
   58SAPC   H3Y 4378   6.775   3.306  10.207  0.5582 -0.6155  0.0775
   58SAPC   C34 4379   6.897   3.146  10.128 -0.1116  0.1392  0.1525
   58SAPC   H4X 4380   6.815   3.072  10.113 -0.3253  0.3805  0.1147
   58SAPC   H4Y 4381   6.980   3.083  10.166  1.0947  2.0953  0.9130
   58SAPC   C35 4382   6.924   3.221  10.001  0.0675 -0.2912  0.1864
   58SAPC   H5X 4383   7.027   3.264  10.004  0.0425 -0.2627  0.6057
   58SAPC   H5Y 4384   6.854   3.306   9.983  1.2114  0.8062  0.7352
   58SAPC   C36 4385   6.909   3.142   9.874 -0.1702 -0.4337 -0.0950
   58SAPC   H6X 4386   6.804   3.109   9.859 -0.1786 -0.6061  0.3133
   58SAPC   H6Y 4387   6.963   3.046   9.888 -2.4029 -2.0036 -1.4582
   58SAPC   C37 4388   6.965   3.220   9.750 -0.6770 -0.4324  0.7268
   58SAPC   H7X 4389   7.072   3.243   9.771 -0.6991  1.5970 -1.0392
   58SAPC   H7Y 4390   6.909   3.316   9.740 -1.6532 -1.1201 -0.6612
   58SAPC   C38 4391   6.948   3.132   9.623 -0.6327  0.0978 -0.7956
   58SAPC   H8X 4392   6.842   3.134   9.588 -1.1956  2.3244  0.8104
   58SAPC   H8Y 4393   6.983   3.028   9.638  2.2657  1.0599 -0.4308
   58SAPC   C39 4394   7.034   3.189   9.509  0.3694 -0.1980  0.1020
   58SAPC   H9X 4395   7.141   3.203   9.538  0.5267 -0.1895 -0.4732
   58SAPC   H9Y 4396   7.001   3.292   9.482  1.5594  0.2413  0.2476
   58SAPC  C310 4397   7.007   3.088   9.384 -0.4123  0.0158  0.5130
   58SAPC  H10X 4398   6.903   3.106   9.349  0.0317 -0.6064 -1.1711
   58SAPC  H10Y 4399   7.009   2.989   9.435 -1.6606  0.1917  0.9611
   58SAPC  C311 4400   7.108   3.098   9.273 -0.5335 -0.4499 -0.8216
   58SAPC  H11X 4401   7.191   3.028   9.294 -2.0156 -1.9928  0.1636
   58SAPC  H11Y 4402   7.155   3.199   9.283  1.8105 -1.6519  1.5688
   58SAPC  C312 4403   7.038   3.076   9.139  0.1121 -0.2118  0.3577
   58SAPC  H12X 4404   6.975   3.165   9.119 -1.1880 -1.3599 -0.9075
   58SAPC  H12Y 4405   6.967   2.990   9.135 -1.0673  0.7528  0.1267
   58SAPC  C313 4406   7.131   3.069   9.013  0.1548  0.4941  0.0357
   58SAPC  H13X 4407   7.215   2.999   9.031 -0.6542 -0.3431  0.6487
   58SAPC  H13Y 4408   7.172   3.172   9.004 -1.7410  1.4543  1.6335
   58SAPC  C314 4409   7.055   3.016   8.895  0.0934  0.8263  1.2968
   58SAPC  H14X 4410   6.954   3.062   8.889 -0.7153 -1.0363 -0.3219
   58SAPC  H14Y 4411   7.035   2.907   8.909 -1.0819  0.8636  0.1069
   58SAPC  C315 4412   7.136   3.025   8.763 -0.1107 -0.0227  0.2261
   58SAPC  H15X 4413   7.216   2.949   8.774 -0.6427 -0.7390 -0.6649
   58SAPC  H15Y 4414   7.177   3.127   8.749 -2.6236  0.9775 -0.4963
   58SAPC  C316 4415   7.044   2.998   8.644  0.1765  0.3594  0.0868
   58SAPC  H16X 4416   6.946   3.046   8.666  0.0484 -0.0169  0.3376
   58SAPC  H16Y 4417   7.027   2.890   8.626 -2.7390  0.9600 -1.4650
   58SAPC  C317 4418   7.102   3.049   8.513  0.1554  0.2842 -0.1711
   58SAPC  H17X 4419   7.080   2.980   8.429  0.1637 -0.4274  0.4035
   58SAPC  H17Y 4420   7.213   3.051   8.507  0.2171  1.1593  1.0327
   58SAPC  C318 4421   7.055   3.190   8.480 -0.2669 -0.1513  0.7664
   58SAPC  H18X 4422   6.945   3.188   8.463  0.2411 -0.1787 -3.9019
   58SAPC  H18Y 4423   7.108   3.225   8.389  1.4704 -0.0767  1.7618
   58SAPC  H18Z 4424   7.079   3.247   8.572 -0.6425  0.7615  0.3100
   59SAPC     N 4425   1.512   5.184  11.304 -0.0017  0.3908  0.9753
   59SAPC   C12 4426   1.593   5.238  11.420  0.6494  0.1002 -0.0613
   59SAPC  H12A 4427   1.572   5.182  11.509 -0.1527 -0.5521 -0.6477
   59SAPC  H12B 4428   1.564   5.342  11.425 -1.0904 -0.3911  0.5252
   59SAPC   C13 4429   1.531   5.277  11.189  0.2312 -0.9078 -0.8044
   59SAPC  H13A 4430   1.485   5.243  11.097 -0.3422  0.3314 -1.0009
   59SAPC  H13B 4431   1.480   5.370  11.211  0.7281 -1.2161  1.9641
   59SAPC  H13C 4432   1.637   5.299  11.182  0.2267 -1.1223 -1.7324
   59SAPC   C14 4433   1.555   5.047  11.262 -0.1187 -0.1475  0.1963
   59SAPC  H14A 4434   1.580   4.987  11.348  0.1654 -1.3524 -0.6979
   59SAPC  H14B 4435   1.473   5.001  11.209 -1.3517  3.2586 -1.1569
   59SAPC  H14C 4436   1.642   5.060  11.200  0.9432 -1.4865  1.3494
   59SAPC   C15 4437   1.365   5.178  11.350 -0.4566 -0.0067  0.2231
   59SAPC  H15A 4438   1.295   5.161  11.270 -0.8401 -0.8061  0.7126
   59SAPC  H15B 4439   1.353   5.093  11.415  0.0820  0.9759  1.6604
   59SAPC  H15C 4440   1.335   5.268  11.401 -2.8389 -1.4766  1.6044
   59SAPC   C11 4441   1.750   5.235  11.412 -0.3607 -0.7290 -0.0224
   59SAPC  H11A 4442   1.776   5.129  11.392 -1.4359 -0.9864 -0.0975
   59SAPC  H11B 4443   1.789   5.266  11.511 -2.5612 -0.4570  0.7954
   59SAPC     P 4444   1.885   5.448  11.317  0.4125 -0.0996  0.1001
   59SAPC   O13 4445   1.837   5.533  11.426  0.1081  0.1685  0.2380
   59SAPC   O14 4446   2.025   5.411  11.319 -0.6464 -0.2734 -0.5254
   59SAPC   O12 4447   1.798   5.317  11.307  0.5124 -0.2191  0.6168
   59SAPC   O11 4448   1.857   5.517  11.174  0.0285 -0.0496  0.1570
   59SAPC    C1 4449   1.876   5.450  11.048 -0.2523 -0.3114  0.0597
   59SAPC    HA 4450   1.883   5.339  11.049 -0.0019 -0.3876 -2.5969
   59SAPC    HB 4451   1.795   5.481  10.978 -1.8934 -1.1287  1.5218
   59SAPC    C2 4452   2.004   5.504  10.977  0.6353  0.8212 -0.2454
   59SAPC    HS 4453   2.087   5.499  11.051 -0.5182 -3.3727  1.0537
   59SAPC   O21 4454   1.974   5.641  10.944 -0.5174 -0.2400 -0.0628
   59SAPC   C21 4455   2.069   5.727  10.970 -0.0842  0.1527  0.4388
   59SAPC   O22 4456   2.170   5.712  11.042  0.4395 -0.0317  0.4291
   59SAPC   C22 4457   2.037   5.862  10.902  0.4379  0.2449 -0.3158
   59SAPC   H2R 4458   2.012   5.864  10.794 -0.8452  0.0360 -0.0380
   59SAPC   H2S 4459   1.945   5.889  10.958  1.6807  3.4716  0.3659
   59SAPC    C3 4460   2.050   5.409  10.861 -0.3419  0.1555  0.7400
   59SAPC    HX 4461   1.969   5.378  10.793 -0.0545 -0.3750  0.6321
   59SAPC    HY 4462   2.095   5.320  10.911 -0.8312 -2.7048 -3.4052
   59SAPC   O31 4463   2.151   5.489  10.798 -0.5424 -0.1430 -0.1070
   59SAPC   C31 4464   2.225   5.426  10.704 -0.1540 -0.2226 -0.2655
   59SAPC   O32 4465   2.217   5.307  10.679  0.3561  0.7214 -0.1284
   59SAPC   C32 4466   2.310   5.540  10.632  0.0446 -0.0923 -0.3925
   59SAPC   H2X 4467   2.413   5.538  10.674  0.7108  1.3173 -1.8889
   59SAPC   H2Y 4468   2.254   5.634  10.650  1.2681  0.7957 -1.1019
   59SAPC   C23 4469   2.156   5.952  10.928 -0.2677 -0.1483 -0.0264
   59SAPC   H3R 4470   2.239   5.908  10.868 -1.5233 -1.1391 -1.1176
   59SAPC   H3S 4471   2.181   5.951  11.036 -2.5563 -2.1684  0.5776
   59SAPC   C24 4472   2.124   6.090  10.885 -0.0453  0.0006  0.4451
   59SAPC   H4R 4473   2.126   6.103  10.775  0.0704  1.4179  0.5966
   59SAPC   H4S 4474   2.198   6.167  10.916 -2.9370  4.3584 -2.3656
   59SAPC   C25 4475   1.994   6.135  10.930 -0.3073 -1.0035 -0.1181
   59SAPC   H5R 4476   1.985   6.139  11.040  0.8795  0.1820 -0.0347
   59SAPC   C26 4477   1.889   6.190  10.863  0.0117  1.1157 -0.0765
   59SAPC   H6R 4478   1.802   6.229  10.919  0.8210  2.6098  0.2019
   59SAPC   C27 4479   1.890   6.208  10.720 -0.0504  0.5175  0.3715
   59SAPC   H7R 4480   1.833   6.123  10.678  1.4618 -0.1650 -0.3484
   59SAPC   H7S 4481   1.987   6.199  10.666  0.1886 -0.9091  0.9967
   59SAPC   C28 4482   1.825   6.333  10.683  0.2837 -0.3596 -1.1168
   59SAPC   H8R 4483   1.835   6.428  10.737 -0.5631 -0.1034 -1.3829
   59SAPC   C29 4484   1.738   6.342  10.579  0.4781 -0.0958 -0.1756
   59SAPC   H9R 4485   1.695   6.441  10.559 -1.6331 -0.5962  1.5189
   59SAPC  C210 4486   1.700   6.232  10.478 -0.5423 -0.7481  0.6093
   59SAPC  H10R 4487   1.661   6.143  10.533  0.9394 -0.8412  1.5889
   59SAPC  H10S 4488   1.794   6.207  10.424  0.3905  0.5393  1.5727
   59SAPC  C211 4489   1.600   6.277  10.376  0.0438 -0.2120 -0.2867
   59SAPC  H11R 4490   1.498   6.242  10.400 -0.6614  2.1505  0.4018
   59SAPC  C212 4491   1.618   6.350  10.263 -0.4867 -0.1661 -1.0234
   59SAPC  H12R 4492   1.530   6.367  10.200 -1.0681 -0.9917 -0.4504
   59SAPC  C213 4493   1.747   6.419  10.224  0.0788 -0.0599 -0.5376
   59SAPC  H13R 4494   1.825   6.405  10.300 -0.7996 -0.0860  0.3798
   59SAPC  H13S 4495   1.732   6.528  10.236  1.0685 -0.0446  0.6486
   59SAPC  C214 4496   1.789   6.390  10.082 -0.2947 -0.5441 -0.3394
   59SAPC  H14R 4497   1.732   6.415   9.991  1.7403  2.4665 -0.9786
   59SAPC  C215 4498   1.915   6.350  10.054  0.0458  0.1429  0.2421
   59SAPC  H15R 4499   1.945   6.353   9.948  0.6610  0.9104  0.4354
   59SAPC  C216 4500   2.013   6.300  10.152 -0.0856 -0.2115  0.0133
   59SAPC  H16R 4501   2.016   6.358  10.247 -0.3450  2.1924 -1.3618
   59SAPC  H16S 4502   2.111   6.314  10.100 -0.2346 -2.8601 -1.1436
   59SAPC  C217 4503   2.005   6.156  10.194  0.5243 -0.5042  0.5261
   59SAPC  H17R 4504   2.015   6.086  10.109 -1.8938 -0.9011  0.4936
   59SAPC  H17S 4505   1.909   6.130  10.245  0.0309 -0.8114 -0.5225
   59SAPC  C218 4506   2.119   6.111  10.289 -0.1828 -0.5502 -0.1198
   59SAPC  H18R 4507   2.113   6.173  10.381  2.1705  0.5901 -0.6752
   59SAPC  H18S 4508   2.216   6.134  10.240 -0.1557  1.4431  0.7928
   59SAPC  C219 4509   2.104   5.963  10.333  0.6637  0.3034 -0.4399
   59SAPC  H19R 4510   2.145   5.901  10.250 -0.4216 -1.0323 -0.0009
   59SAPC  H19S 4511   1.996   5.940  10.330  0.2718  1.2384  2.7699
   59SAPC  C220 4512   2.165   5.916  10.462  0.0255  0.2936  0.1760
   59SAPC  H20R 4513   2.148   5.811  10.494 -0.6675  0.3615  0.0275
   59SAPC  H20S 4514   2.127   5.985  10.540  0.7985  0.4181  0.4600
   59SAPC  H20T 4515   2.274   5.937  10.456 -0.4438  3.0399  0.2702
   59SAPC   C33 4516   2.326   5.535  10.476 -0.6152 -0.1954 -0.2830
   59SAPC   H3X 4517   2.228   5.571  10.437 -1.3452 -1.5510  0.2405
   59SAPC   H3Y 4518   2.345   5.431  10.444 -1.4805 -0.4430 -0.0267
   59SAPC   C34 4519   2.439   5.634  10.434  0.6661  0.1867 -0.0086
   59SAPC   H4X 4520   2.535   5.610  10.483  0.7495 -3.6528 -1.6848
   59SAPC   H4Y 4521   2.410   5.740  10.450  0.9896  0.4922 -1.3169
   59SAPC   C35 4522   2.468   5.625  10.285  0.3689  0.5426 -0.2591
   59SAPC   H5X 4523   2.476   5.520  10.249 -0.3614  0.0442  0.9695
   59SAPC   H5Y 4524   2.572   5.656  10.264  0.2242 -0.1176 -2.2110
   59SAPC   C36 4525   2.364   5.694  10.200  0.2095  0.0361  0.0031
   59SAPC   H6X 4526   2.358   5.799  10.234  2.0824  0.0455  0.4110
   59SAPC   H6Y 4527   2.263   5.649  10.197 -0.5235  1.6032  0.4511
   59SAPC   C37 4528   2.406   5.712  10.051 -0.1591 -0.0655  0.0425
   59SAPC   H7X 4529   2.389   5.621   9.989  0.5675  0.1067 -0.4195
   59SAPC   H7Y 4530   2.516   5.728  10.045 -0.0774 -0.3888  0.6097
   59SAPC   C38 4531   2.333   5.835   9.986  0.0146 -0.2402 -0.2586
   59SAPC   H8X 4532   2.334   5.930  10.044  3.4467 -0.5288  0.3572
   59SAPC   H8Y 4533   2.233   5.787   9.975  0.2087 -1.0066  1.0323
   59SAPC   C39 4534   2.380   5.877   9.840  0.3895 -0.4621  0.1165
   59SAPC   H9X 4535   2.396   5.782   9.785 -1.8356 -1.2323  0.6685
   59SAPC   H9Y 4536   2.474   5.929   9.867 -1.0034  1.1460  2.2853
   59SAPC  C310 4537   2.293   5.970   9.758 -0.0603 -0.3607  0.4501
   59SAPC  H10X 4538   2.193   5.931   9.729  0.5877 -1.3668 -0.5043
   59SAPC  H10Y 4539   2.338   5.989   9.658 -1.4277  1.4268  0.1345
   59SAPC  C311 4540   2.277   6.113   9.822 -0.0611  0.5532 -0.4458
   59SAPC  H11X 4541   2.377   6.162   9.824  1.3949 -2.2389 -0.8403
   59SAPC  H11Y 4542   2.245   6.100   9.928  1.9848 -0.7138  0.0779
   59SAPC  C312 4543   2.162   6.197   9.754  0.4165  0.0066 -0.5100
   59SAPC  H12X 4544   2.148   6.291   9.810  2.3253  0.1900 -0.2616
   59SAPC  H12Y 4545   2.068   6.138   9.756 -0.2462  1.0186 -1.1288
   59SAPC  C313 4546   2.206   6.236   9.615 -0.0102  0.6036  0.4090
   59SAPC  H13X 4547   2.237   6.143   9.562  0.1950 -0.1979  1.8854
   59SAPC  H13Y 4548   2.300   6.291   9.635  0.7446 -1.3877  2.8713
   59SAPC  C314 4549   2.114   6.319   9.536 -0.0912 -0.7388 -0.0628
   59SAPC  H14X 4550   2.094   6.408   9.600  0.4115 -1.4454  1.1147
   59SAPC  H14Y 4551   2.019   6.263   9.533  1.1072 -2.9972  1.2752
   59SAPC  C315 4552   2.149   6.376   9.398  0.3819  0.1763  0.6945
   59SAPC  H15X 4553   2.174   6.295   9.327  2.7052  0.6371  0.9074
   59SAPC  H15Y 4554   2.241   6.438   9.407 -0.7203  1.8241  1.0663
   59SAPC  C316 4555   2.029   6.456   9.347  0.6068 -0.7159 -0.0879
   59SAPC  H16X 4556   1.993   6.517   9.432  0.6345 -0.3621 -0.3273
   59SAPC  H16Y 4557   1.939   6.399   9.317 -0.0963 -0.1963  0.9751
   59SAPC  C317 4558   2.043   6.534   9.215  0.4498  0.4957  0.4967
   59SAPC  H17X 4559   2.137   6.593   9.219  0.9400 -0.1597 -0.8394
   59SAPC  H17Y 4560   1.969   6.615   9.196  0.5466  0.3882 -0.3741
   59SAPC  C318 4561   2.044   6.444   9.095 -0.2298 -0.2875 -0.3299
   59SAPC  H18X 4562   1.952   6.381   9.092  0.6873 -2.0144  3.2036
   59SAPC  H18Y 4563   2.129   6.376   9.116 -0.4277 -0.0579  1.3675
   59SAPC  H18Z 4564   2.067   6.505   9.005  2.4315  0.2243  0.6207
   60SAPC     N 4565   2.839   3.608  11.123  0.2580  0.8526  0.0882
   60SAPC   C12 4566   2.687   3.602  11.101 -0.6206  0.2505 -0.6084
   60SAPC  H12A 4567   2.641   3.665  11.177 -1.3800  0.3277 -1.1252
   60SAPC  H12B 4568   2.656   3.501  11.125 -1.9186  1.0222  1.1979
   60SAPC   C13 4569   2.893   3.488  11.046  0.7130 -0.0406 -0.4001
   60SAPC  H13A 4570   2.838   3.396  11.062 -0.3453  0.4509 -1.1221
   60SAPC  H13B 4571   2.890   3.512  10.941 -2.1781  2.9183  0.2075
   60SAPC  H13C 4572   2.991   3.461  11.082  0.7053  0.7588  0.2377
   60SAPC   C14 4573   2.896   3.728  11.078 -0.7821  0.2151 -0.3216
   60SAPC  H14A 4574   3.004   3.730  11.071 -0.7293 -1.8259 -0.9393
   60SAPC  H14B 4575   2.880   3.749  10.973  1.9766 -0.3271 -0.9454
   60SAPC  H14C 4576   2.866   3.818  11.129 -0.2295  0.0244  0.3588
   60SAPC   C15 4577   2.865   3.582  11.270  0.3618 -0.0129 -0.4736
   60SAPC  H15A 4578   2.972   3.572  11.282  0.1499  0.0603  1.9116
   60SAPC  H15B 4579   2.830   3.667  11.327  0.7448  0.1691 -0.4977
   60SAPC  H15C 4580   2.814   3.497  11.312 -1.2458  1.0071 -0.2752
   60SAPC   C11 4581   2.632   3.631  10.968  0.0457  0.3378 -0.4469
   60SAPC  H11A 4582   2.529   3.589  10.970  0.1608 -0.0681 -1.8647
   60SAPC  H11B 4583   2.689   3.581  10.887 -0.0755  1.5305 -1.3035
   60SAPC     P 4584   2.565   3.850  10.841 -0.2235 -0.0817 -0.1868
   60SAPC   O13 4585   2.424   3.817  10.870  0.1347 -0.1379  0.7874
   60SAPC   O14 4586   2.600   3.997  10.837  0.0189  0.3824 -0.1434
   60SAPC   O12 4587   2.641   3.769  10.954  0.0572 -0.1203  0.0367
   60SAPC   O11 4588   2.627   3.784  10.709 -0.3218 -0.4014  0.2029
   60SAPC    C1 4589   2.769   3.808  10.692  0.6197  0.6469  0.5804
   60SAPC    HA 4590   2.790   3.914  10.716  1.1710  0.4231  1.0981
   60SAPC    HB 4591   2.827   3.754  10.770 -0.0721  1.1264  1.4376
   60SAPC    C2 4592   2.817   3.755  10.552 -0.8931 -0.6052 -0.2676
   60SAPC    HS 4593   2.927   3.744  10.549 -0.8551 -0.1895 -0.4608
   60SAPC   O21 4594   2.782   3.839  10.447  0.5038 -0.1791  0.1518
   60SAPC   C21 4595   2.850   3.947  10.430 -0.2489  0.2568  0.2560
   60SAPC   O22 4596   2.950   3.973  10.494 -0.1028  0.1038 -0.1746
   60SAPC   C22 4597   2.792   4.025  10.312  0.4041  0.4666  0.6117
   60SAPC   H2R 4598   2.699   4.079  10.336 -0.4991 -0.4094 -0.7753
   60SAPC   H2S 4599   2.866   4.102  10.279  1.2251 -0.3996  0.3849
   60SAPC    C3 4600   2.758   3.621  10.518 -0.0919 -0.1742  0.2367
   60SAPC    HX 4601   2.648   3.631  10.506 -0.2432  2.2647  2.4685
   60SAPC    HY 4602   2.772   3.564  10.612  0.3596  0.4421  0.5544
   60SAPC   O31 4603   2.823   3.563  10.401  0.2653  0.1361  0.0353
   60SAPC   C31 4604   2.943   3.505  10.418  1.1284  0.3022 -0.3618
   60SAPC   O32 4605   3.013   3.515  10.516 -0.6500  0.4728 -0.8465
   60SAPC   C32 4606   2.984   3.447  10.288  0.1678  0.3436 -0.6719
   60SAPC   H2X 4607   2.997   3.524  10.209  1.7381  1.8276  0.9366
   60SAPC   H2Y 4608   2.896   3.388  10.253 -1.2845  1.3198  1.1795
   60SAPC   C23 4609   2.771   3.945  10.178  0.5530  0.0360 -0.0452
   60SAPC   H3R 4610   2.752   3.837  10.197 -6.7863  0.9771  0.9939
   60SAPC   H3S 4611   2.861   3.968  10.117 -0.1581 -1.4901 -1.7911
   60SAPC   C24 4612   2.629   3.982  10.108  0.3872  0.4120  0.2388
   60SAPC   H4R 4613   2.558   3.966  10.192  2.1851  1.5723  2.0305
   60SAPC   H4S 4614   2.601   3.900  10.037  0.3793 -0.7345  1.5161
   60SAPC   C25 4615   2.609   4.118  10.044 -0.1407  0.9285  0.8646
   60SAPC   H5R 4616   2.636   4.204  10.107 -0.5113  2.2171 -0.6520
   60SAPC   C26 4617   2.584   4.154   9.916  0.9866  0.5754 -0.0838
   60SAPC   H6R 4618   2.598   4.257   9.880 -1.4982  1.0552  0.1524
   60SAPC   C27 4619   2.555   4.056   9.806 -0.0475 -0.0675 -0.2439
   60SAPC   H7R 4620   2.480   3.984   9.843  1.9377 -2.2703 -0.2479
   60SAPC   H7S 4621   2.642   3.989   9.789 -0.8329 -1.0947 -0.2932
   60SAPC   C28 4622   2.495   4.122   9.685 -0.2568  0.6441 -0.1449
   60SAPC   H8R 4623   2.413   4.193   9.704  1.2438  1.7980  2.4636
   60SAPC   C29 4624   2.520   4.081   9.557  0.1578 -0.0012 -0.2151
   60SAPC   H9R 4625   2.458   4.123   9.476 -0.8665 -1.5658 -0.2980
   60SAPC  C210 4626   2.609   3.973   9.507 -0.3375  0.1775  0.0051
   60SAPC  H10R 4627   2.687   3.945   9.580 -1.1962  0.2736  0.9893
   60SAPC  H10S 4628   2.656   4.017   9.417  2.2503 -0.0577  1.1683
   60SAPC  C211 4629   2.523   3.854   9.477 -0.0562  0.4566  0.3028
   60SAPC  H11R 4630   2.496   3.789   9.561  0.5992  2.2119  1.9516
   60SAPC  C212 4631   2.476   3.827   9.353 -0.7745  0.7443 -0.4046
   60SAPC  H12R 4632   2.430   3.728   9.340 -1.7565  1.1930 -0.4346
   60SAPC  C213 4633   2.485   3.911   9.227  0.3516 -0.0862 -0.3667
   60SAPC  H13R 4634   2.510   4.015   9.257  3.2267 -0.4757 -1.0744
   60SAPC  H13S 4635   2.383   3.904   9.182 -1.1245  2.4421  2.2907
   60SAPC  C214 4636   2.587   3.845   9.135 -1.2502  0.3523 -0.4704
   60SAPC  H14R 4637   2.569   3.737   9.121  0.5747 -0.2875  1.5951
   60SAPC  C215 4638   2.676   3.900   9.048  0.2267 -0.3108 -0.2181
   60SAPC  H15R 4639   2.736   3.836   8.982  0.3511 -1.0799  0.6155
   60SAPC  C216 4640   2.712   4.049   9.048 -0.1508  0.7106 -0.4085
   60SAPC  H16R 4641   2.813   4.062   9.092 -0.1438  0.0921 -0.2378
   60SAPC  H16S 4642   2.635   4.093   9.116 -0.2971 -0.2566  0.0711
   60SAPC  C217 4643   2.705   4.121   8.913  0.2199 -0.1058 -0.7166
   60SAPC  H17R 4644   2.607   4.109   8.862 -0.8800  0.8294  1.0583
   60SAPC  H17S 4645   2.775   4.072   8.843  0.3948 -1.2019  0.1949
   60SAPC  C218 4646   2.707   4.275   8.928  0.1049  0.0906  0.6150
   60SAPC  H18R 4647   2.793   4.305   8.991  1.9005  2.2619 -2.5771
   60SAPC  H18S 4648   2.607   4.307   8.966 -0.6177 -0.6093 -0.6011
   60SAPC  C219 4649   2.711   4.357   8.792 -0.3683 -0.6153  0.1478
   60SAPC  H19R 4650   2.718   4.461   8.830  0.0579 -1.7296  3.4950
   60SAPC  H19S 4651   2.620   4.346   8.729  0.1260 -0.1091 -0.6775
   60SAPC  C220 4652   2.831   4.324   8.698 -0.7376  0.3221  0.5514
   60SAPC  H20R 4653   2.926   4.340   8.754  0.3919  1.3369 -1.5301
   60SAPC  H20S 4654   2.828   4.384   8.605  1.8197 -0.3440 -0.0246
   60SAPC  H20T 4655   2.819   4.216   8.676  0.6687  0.4304 -0.9971
   60SAPC   C33 4656   3.107   3.351  10.304  0.2030 -0.0302 -0.2383
   60SAPC   H3X 4657   3.084   3.252  10.349  0.6784 -0.0422 -0.0169
   60SAPC   H3Y 4658   3.189   3.391  10.366  0.6079 -1.4619  0.1837
   60SAPC   C34 4659   3.172   3.330  10.164  0.1207  1.1898  0.4812
   60SAPC   H4X 4660   3.265   3.270  10.176 -1.2607 -1.3247 -0.6320
   60SAPC   H4Y 4661   3.196   3.429  10.121  0.7402  1.0389  0.4661
   60SAPC   C35 4662   3.082   3.256  10.055 -0.2887 -0.1144  0.5125
   60SAPC   H5X 4663   3.000   3.325  10.023  0.5284 -0.0194 -1.5905
   60SAPC   H5Y 4664   3.040   3.166  10.103 -0.2621 -0.3767  0.0560
   60SAPC   C36 4665   3.164   3.233   9.926 -0.6247 -0.3848  0.2912
   60SAPC   H6X 4666   3.258   3.180   9.954 -0.0825  0.9856  1.1196
   60SAPC   H6Y 4667   3.191   3.334   9.889  0.1872 -0.3012  1.0927
   60SAPC   C37 4668   3.087   3.157   9.815  0.1962  0.2578 -0.4594
   60SAPC   H7X 4669   2.978   3.174   9.803 -0.2465 -1.7858  0.2094
   60SAPC   H7Y 4670   3.095   3.052   9.852  0.7276  0.1940 -0.7518
   60SAPC   C38 4671   3.160   3.154   9.679 -0.3414  0.8728 -0.2305
   60SAPC   H8X 4672   3.153   3.049   9.644  0.7739 -0.3700  2.9577
   60SAPC   H8Y 4673   3.268   3.177   9.683  0.2108 -1.5493 -0.0640
   60SAPC   C39 4674   3.098   3.256   9.586  0.1685 -0.3098 -0.3295
   60SAPC   H9X 4675   3.116   3.357   9.629  1.1050 -1.2008  1.4718
   60SAPC   H9Y 4676   2.987   3.249   9.595  0.0401  0.2043 -1.3501
   60SAPC  C310 4677   3.154   3.238   9.444  0.2628 -0.5344 -0.8125
   60SAPC  H10X 4678   3.102   3.311   9.377 -1.1408 -0.6366  0.1142
   60SAPC  H10Y 4679   3.107   3.144   9.410 -0.3167  0.4189 -2.8261
   60SAPC  C311 4680   3.303   3.233   9.423 -0.3004 -0.2626 -0.2180
   60SAPC  H11X 4681   3.362   3.148   9.465  1.1985 -0.8558 -3.2927
   60SAPC  H11Y 4682   3.347   3.325   9.467 -0.1547  0.9077 -2.6605
   60SAPC  C312 4683   3.344   3.235   9.272  0.5342  0.0448  0.0142
   60SAPC  H12X 4684   3.454   3.243   9.267  0.4145  1.0396 -1.3367
   60SAPC  H12Y 4685   3.305   3.323   9.217 -1.3067  0.2841  1.5958
   60SAPC  C313 4686   3.311   3.098   9.200 -0.2083 -0.4073  0.4096
   60SAPC  H13X 4687   3.203   3.107   9.176  0.1374  0.2326 -1.0603
   60SAPC  H13Y 4688   3.316   3.023   9.281 -0.3234 -1.0753 -0.1894
   60SAPC  C314 4689   3.396   3.069   9.076  0.1648 -0.9465 -0.3157
   60SAPC  H14X 4690   3.505   3.060   9.092  0.2016  0.4436  0.2916
   60SAPC  H14Y 4691   3.385   3.160   9.014  1.6640 -1.0888 -0.8282
   60SAPC  C315 4692   3.337   2.963   8.976 -0.5263 -0.7199  0.2393
   60SAPC  H15X 4693   3.236   2.996   8.944  0.0352  0.2300 -0.5983
   60SAPC  H15Y 4694   3.329   2.860   9.017  0.6309 -1.6113 -1.6165
   60SAPC  C316 4695   3.419   2.951   8.841 -0.1155 -0.5191  0.6332
   60SAPC  H16X 4696   3.527   2.968   8.863 -0.2541  3.0602 -0.8232
   60SAPC  H16Y 4697   3.413   3.036   8.770  1.2868 -2.9480 -2.6159
   60SAPC  C317 4698   3.411   2.824   8.744  0.7495  0.0018  0.4960
   60SAPC  H17X 4699   3.447   2.736   8.801  0.3198 -0.8271 -0.5009
   60SAPC  H17Y 4700   3.494   2.844   8.673 -0.1580 -0.7068 -0.7942
   60SAPC  C318 4701   3.279   2.794   8.666  0.3492 -0.4656 -0.1385
   60SAPC  H18X 4702   3.255   2.879   8.598  0.2615  0.3607  0.8991
   60SAPC  H18Y 4703   3.193   2.784   8.736 -0.2431  2.1884 -0.3993
   60SAPC  H18Z 4704   3.288   2.699   8.609 -0.5458 -0.3548 -0.4699
   61SAPC     N 4705   4.701   2.738  11.214 -0.0314 -0.5623 -0.6245
   61SAPC   C12 4706   4.611   2.832  11.131  0.6828 -0.4031  0.0303
   61SAPC  H12A 4707   4.666   2.905  11.074 -1.2234  0.8459 -0.2689
   61SAPC  H12B 4708   4.544   2.891  11.191 -1.7283 -1.7746 -1.1655
   61SAPC   C13 4709   4.622   2.661  11.316  0.3703 -0.0643 -0.3808
   61SAPC  H13A 4710   4.543   2.601  11.273  0.0489  0.1296 -0.0627
   61SAPC  H13B 4711   4.686   2.592  11.370  0.2214  2.4127  3.3294
   61SAPC  H13C 4712   4.578   2.717  11.397 -1.1564 -1.3980 -0.2349
   61SAPC   C14 4713   4.771   2.636  11.131  0.0697  0.3025  0.5322
   61SAPC  H14A 4714   4.806   2.675  11.036  2.0239 -0.2521  0.9667
   61SAPC  H14B 4715   4.859   2.599  11.182  0.0478 -0.9483 -0.3100
   61SAPC  H14C 4716   4.704   2.557  11.101 -1.0285  1.8173 -1.2693
   61SAPC   C15 4717   4.811   2.817  11.286  0.0629 -0.3602  0.2298
   61SAPC  H15A 4718   4.763   2.872  11.366  0.1290 -2.8374  2.1224
   61SAPC  H15B 4719   4.869   2.753  11.351  0.9584  0.0375 -0.1574
   61SAPC  H15C 4720   4.879   2.859  11.214 -3.2064  0.2251 -2.7920
   61SAPC   C11 4721   4.515   2.771  11.031 -0.2154 -0.0120  0.3891
   61SAPC  H11A 4722   4.571   2.720  10.950 -0.2284  1.4642 -0.5750
   61SAPC  H11B 4723   4.457   2.859  10.995 -2.0154 -1.3484 -0.1396
   61SAPC     P 4724   4.282   2.694  11.118 -0.5125 -0.0521 -0.2630
   61SAPC   O13 4725   4.211   2.570  11.159 -1.0300 -1.0867  0.5379
   61SAPC   O14 4726   4.271   2.803  11.219 -0.2694 -0.0199 -0.1498
   61SAPC   O12 4727   4.436   2.670  11.092  0.4099 -0.5831 -0.0653
   61SAPC   O11 4728   4.215   2.741  10.979 -0.0968  0.0242  0.3431
   61SAPC    C1 4729   4.185   2.643  10.881  0.4592 -0.1079  0.1238
   61SAPC    HA 4730   4.278   2.582  10.877  0.2332 -0.4010 -1.7816
   61SAPC    HB 4731   4.100   2.576  10.906 -0.5037 -0.3842 -3.3132
   61SAPC    C2 4732   4.170   2.704  10.740 -1.0689  1.2093 -0.4242
   61SAPC    HS 4733   4.078   2.764  10.725 -3.1744 -1.0842  2.2503
   61SAPC   O21 4734   4.187   2.599  10.644 -0.2650  0.7486  0.3009
   61SAPC   C21 4735   4.065   2.549  10.614 -1.0692 -0.3081 -0.1806
   61SAPC   O22 4736   3.963   2.571  10.679 -0.2922 -0.2690  0.6715
   61SAPC   C22 4737   4.077   2.464  10.489 -0.4737 -0.0769  0.1990
   61SAPC   H2R 4738   4.143   2.376  10.503 -0.6624 -0.1114  0.9095
   61SAPC   H2S 4739   3.976   2.429  10.460  0.2437 -1.4201 -0.7387
   61SAPC    C3 4740   4.294   2.798  10.716  0.6024 -0.3591 -0.0595
   61SAPC    HX 4741   4.388   2.749  10.751  0.5081 -0.9978 -0.6832
   61SAPC    HY 4742   4.266   2.886  10.778 -1.0196  1.0215 -2.5875
   61SAPC   O31 4743   4.296   2.845  10.580  0.1325 -0.7232 -0.0292
   61SAPC   C31 4744   4.389   2.939  10.564  0.4203 -0.8044  0.9319
   61SAPC   O32 4745   4.472   2.971  10.645 -1.1011 -0.1431  0.4172
   61SAPC   C32 4746   4.373   2.997  10.429  0.0404 -0.9794 -0.1186
   61SAPC   H2X 4747   4.268   3.022  10.406 -0.1938  0.5712  2.2265
   61SAPC   H2Y 4748   4.415   2.924  10.357 -0.0045 -0.7731 -0.3549
   61SAPC   C23 4749   4.156   2.536  10.368 -0.1625  0.2961  0.3988
   61SAPC   H3R 4750   4.177   2.452  10.299  0.7188  1.2692 -0.5615
   61SAPC   H3S 4751   4.257   2.574  10.395  1.1331  0.1046 -3.5485
   61SAPC   C24 4752   4.067   2.644  10.301  0.0440  0.2434  1.0090
   61SAPC   H4R 4753   4.008   2.699  10.376  1.8294  1.1362  1.8097
   61SAPC   H4S 4754   3.990   2.585  10.247 -0.5909  2.0621 -0.1652
   61SAPC   C25 4755   4.142   2.736  10.212 -0.4082  0.6467  0.4373
   61SAPC   H5R 4756   4.201   2.810  10.267  1.2245  0.9960 -1.6494
   61SAPC   C26 4757   4.144   2.729  10.078  0.2435 -0.2270  0.3570
   61SAPC   H6R 4758   4.199   2.808  10.025 -0.3140  0.4385  0.7455
   61SAPC   C27 4759   4.061   2.631   9.994  0.1077  0.5229 -0.3832
   61SAPC   H7R 4760   3.980   2.580  10.052 -0.8237  2.0593 -0.2777
   61SAPC   H7S 4761   4.131   2.557   9.949  0.1278  1.9310 -2.8460
   61SAPC   C28 4762   4.002   2.714   9.883  0.6330 -0.1777 -0.4700
   61SAPC   H8R 4763   3.912   2.769   9.912  0.2747 -1.1176  0.2538
   61SAPC   C29 4764   4.056   2.724   9.760  0.6306  0.1613 -0.3108
   61SAPC   H9R 4765   4.006   2.784   9.683  1.0188 -1.1700 -1.6284
   61SAPC  C210 4766   4.181   2.654   9.714  0.2046 -0.8102  0.5319
   61SAPC  H10R 4767   4.155   2.546   9.706  1.5458 -1.0708 -0.8352
   61SAPC  H10S 4768   4.259   2.671   9.791  0.8822  1.4669 -0.5750
   61SAPC  C211 4769   4.235   2.718   9.588  0.1351 -0.3339  0.0202
   61SAPC  H11R 4770   4.327   2.778   9.599 -1.5539  2.8077 -1.5967
   61SAPC  C212 4771   4.191   2.711   9.463 -0.0013  1.3427  0.8689
   61SAPC  H12R 4772   4.251   2.758   9.384  1.5314 -2.3804 -0.4080
   61SAPC  C213 4773   4.075   2.623   9.418  0.0446  0.0135 -0.2222
   61SAPC  H13R 4774   3.985   2.686   9.401  0.3393  1.0893  1.8436
   61SAPC  H13S 4775   4.042   2.555   9.500  0.0564  1.8713  1.3890
   61SAPC  C214 4776   4.112   2.541   9.297  1.0674  0.8623 -0.2582
   61SAPC  H14R 4777   4.187   2.461   9.309  0.1266  0.1674  1.5068
   61SAPC  C215 4778   4.050   2.552   9.174 -0.4522  0.7769 -0.0823
   61SAPC  H15R 4779   4.079   2.478   9.098 -0.2030  0.9939 -0.1978
   61SAPC  C216 4780   3.944   2.645   9.131 -0.1497  0.0048  0.1946
   61SAPC  H16R 4781   3.984   2.700   9.043 -1.4612 -1.2008 -1.2139
   61SAPC  H16S 4782   3.914   2.725   9.202 -2.3418  0.2010 -0.8570
   61SAPC  C217 4783   3.824   2.574   9.075  0.9260  0.1213  0.1367
   61SAPC  H17R 4784   3.782   2.519   9.162  0.3694  0.6132  0.1840
   61SAPC  H17S 4785   3.849   2.496   9.000  0.2849  1.0026 -1.0383
   61SAPC  C218 4786   3.721   2.668   9.010  0.8809  0.3297  0.2574
   61SAPC  H18R 4787   3.622   2.618   9.004  0.5106  1.1888 -1.3176
   61SAPC  H18S 4788   3.743   2.687   8.903  0.8492  1.4834  0.4452
   61SAPC  C219 4789   3.697   2.799   9.087  0.3914 -0.2646 -0.6364
   61SAPC  H19R 4790   3.629   2.863   9.028 -0.6821  0.4832  1.3018
   61SAPC  H19S 4791   3.794   2.852   9.090 -0.0691  0.6254 -1.2598
   61SAPC  C220 4792   3.637   2.781   9.225 -0.0177 -0.0550  0.4849
   61SAPC  H20R 4793   3.715   2.757   9.300 -0.1188  2.3064  1.4192
   61SAPC  H20S 4794   3.554   2.707   9.219 -1.0701  1.1146  0.0261
   61SAPC  H20T 4795   3.582   2.874   9.252 -0.6050 -0.8680  2.2499
   61SAPC   C33 4796   4.462   3.116  10.400  0.3118 -0.6830 -0.0059
   61SAPC   H3X 4797   4.567   3.100  10.432  0.5533  2.6147  1.2065
   61SAPC   H3Y 4798   4.418   3.202  10.454  2.4994  0.6069 -0.1562
   61SAPC   C34 4799   4.464   3.167  10.258 -0.5580  0.2743  0.5022
   61SAPC   H4X 4800   4.366   3.216  10.239  0.4185  2.1053 -0.0591
   61SAPC   H4Y 4801   4.463   3.081  10.187 -3.0338 -1.1449  2.0981
   61SAPC   C35 4802   4.564   3.275  10.229  0.7415 -0.8448  0.6509
   61SAPC   H5X 4803   4.664   3.228  10.243  1.7936  1.1965  0.4629
   61SAPC   H5Y 4804   4.554   3.364  10.295  0.8083 -0.3574  0.0209
   61SAPC   C36 4805   4.549   3.342  10.091  0.2018  0.4516  0.0756
   61SAPC   H6X 4806   4.615   3.431  10.081  2.8490 -1.5090 -1.1618
   61SAPC   H6Y 4807   4.444   3.378  10.083 -0.7243 -2.2759 -1.0538
   61SAPC   C37 4808   4.589   3.246   9.985 -0.1365  0.6431  0.0562
   61SAPC   H7X 4809   4.514   3.164   9.988 -0.0420  0.4086 -2.0666
   61SAPC   H7Y 4810   4.694   3.214   9.999 -0.0207  1.5847  1.5862
   61SAPC   C38 4811   4.571   3.306   9.840  0.1677  0.7663 -0.2866
   61SAPC   H8X 4812   4.492   3.384   9.841 -1.9690 -1.2911 -1.4578
   61SAPC   H8Y 4813   4.528   3.222   9.782 -0.5762  0.2739  0.9516
   61SAPC   C39 4814   4.705   3.357   9.786 -0.1854 -0.1569  0.2647
   61SAPC   H9X 4815   4.773   3.274   9.758  1.5072  0.8933  1.0764
   61SAPC   H9Y 4816   4.757   3.413   9.867  0.3617  1.4424 -1.1363
   61SAPC  C310 4817   4.706   3.453   9.665 -0.2668  0.7125 -0.1707
   61SAPC  H10X 4818   4.720   3.385   9.578  0.1399  1.1505 -0.4527
   61SAPC  H10Y 4819   4.789   3.527   9.670 -0.5053  0.9024  1.4854
   61SAPC  C311 4820   4.580   3.543   9.654  0.5384  0.1690 -0.2812
   61SAPC  H11X 4821   4.552   3.579   9.755 -0.7017  1.8272 -1.1629
   61SAPC  H11Y 4822   4.503   3.473   9.615  0.2212  0.9815 -1.1585
   61SAPC  C312 4823   4.602   3.658   9.559 -0.2072  0.4476 -0.3899
   61SAPC  H12X 4824   4.681   3.724   9.601 -1.6341  2.2148 -0.3284
   61SAPC  H12Y 4825   4.504   3.710   9.555 -1.1208 -1.2695 -2.2893
   61SAPC  C313 4826   4.625   3.612   9.419  0.2702  0.2220  0.0090
   61SAPC  H13X 4827   4.545   3.536   9.408 -0.0290 -0.1124  3.3445
   61SAPC  H13Y 4828   4.719   3.555   9.410  0.7086  1.0152 -0.5540
   61SAPC  C314 4829   4.623   3.725   9.308 -0.8413  0.3960 -0.3386
   61SAPC  H14X 4830   4.724   3.770   9.302 -1.7824  2.4300 -1.8706
   61SAPC  H14Y 4831   4.543   3.797   9.334 -1.1212  0.5220 -1.5133
   61SAPC  C315 4832   4.595   3.666   9.169 -0.4425  0.2817  0.3390
   61SAPC  H15X 4833   4.496   3.616   9.168 -0.8239  0.9819  1.3574
   61SAPC  H15Y 4834   4.668   3.594   9.127 -2.1296  0.5890 -3.6350
   61SAPC  C316 4835   4.587   3.769   9.063  0.1898  0.6252 -0.0016
   61SAPC  H16X 4836   4.675   3.835   9.050  0.4522  0.3498  0.3633
   61SAPC  H16Y 4837   4.508   3.844   9.086  0.0562  1.2504 -2.2976
   61SAPC  C317 4838   4.549   3.712   8.924 -0.7172  0.6745  0.6529
   61SAPC  H17X 4839   4.455   3.653   8.935 -1.0966  1.0661 -0.3744
   61SAPC  H17Y 4840   4.620   3.638   8.884 -1.9958 -0.3036  0.1169
   61SAPC  C318 4841   4.525   3.815   8.814  0.3191 -0.0382  0.3769
   61SAPC  H18X 4842   4.592   3.902   8.828 -2.1028  1.9885  0.2135
   61SAPC  H18Y 4843   4.424   3.854   8.839  0.1747 -0.0060 -0.2485
   61SAPC  H18Z 4844   4.524   3.780   8.709 -0.4747 -1.2080  0.7481
   62SAPC     N 4845   3.025   2.239  10.774 -0.2655  0.3714  0.0400
   62SAPC   C12 4846   2.984   2.353  10.681  0.3122 -0.5062  0.0762
   62SAPC  H12A 4847   2.903   2.323  10.617  2.6538 -2.2397 -2.3036
   62SAPC  H12B 4848   3.067   2.376  10.616  1.4059 -1.0657  1.2254
   62SAPC   C13 4849   3.136   2.293  10.864 -0.0534 -0.5687 -0.4371
   62SAPC  H13A 4850   3.108   2.394  10.890 -0.8987 -0.4958 -1.5453
   62SAPC  H13B 4851   3.156   2.235  10.953  0.2888 -0.7646 -0.6411
   62SAPC  H13C 4852   3.222   2.303  10.800  0.0732 -0.8144 -0.3047
   62SAPC   C14 4853   2.912   2.189  10.856  0.5215  0.2980  0.6740
   62SAPC  H14A 4854   2.832   2.149  10.796 -0.2906  3.1601 -0.3480
   62SAPC  H14B 4855   2.945   2.110  10.922  1.7586  0.6666  0.5206
   62SAPC  H14C 4856   2.873   2.275  10.909  0.0993  1.0027 -0.7301
   62SAPC   C15 4857   3.080   2.127  10.691  0.4258 -0.2607  0.4672
   62SAPC  H15A 4858   3.122   2.052  10.756  1.1207 -2.1706 -2.0133
   62SAPC  H15B 4859   3.009   2.075  10.628  1.0585  0.4963 -0.9259
   62SAPC  H15C 4860   3.166   2.160  10.635  1.3030  0.6607  2.2710
   62SAPC   C11 4861   2.928   2.483  10.752 -0.7037 -1.1071  0.0212
   62SAPC  H11A 4862   2.914   2.563  10.677  0.1466 -0.8371  0.1458
   62SAPC  H11B 4863   3.001   2.526  10.824 -2.5138  1.4819  0.4900
   62SAPC     P 4864   2.666   2.446  10.782 -0.2719  0.1105 -0.6482
   62SAPC   O13 4865   2.667   2.347  10.676  0.4321  0.4744 -0.0639
   62SAPC   O14 4866   2.582   2.410  10.896  0.3950  0.3462 -0.1313
   62SAPC   O12 4867   2.815   2.462  10.838 -0.9065  0.3925 -0.7814
   62SAPC   O11 4868   2.609   2.579  10.734 -0.8521 -0.2830 -0.3606
   62SAPC    C1 4869   2.669   2.709  10.736  0.2276  0.7235 -0.3167
   62SAPC    HA 4870   2.618   2.773  10.811  0.9109  1.8609 -0.7875
   62SAPC    HB 4871   2.776   2.698  10.763 -0.0814 -0.0013  0.6646
   62SAPC    C2 4872   2.651   2.774  10.600  0.2581 -0.3739  0.4010
   62SAPC    HS 4873   2.542   2.787  10.587  0.2961 -0.4338  0.0123
   62SAPC   O21 4874   2.720   2.699  10.495 -0.1001  0.4858 -0.3459
   62SAPC   C21 4875   2.635   2.620  10.425  0.1368 -0.4857  0.2625
   62SAPC   O22 4876   2.518   2.597  10.452 -0.6221 -0.2506  1.2955
   62SAPC   C22 4877   2.712   2.561  10.312  0.3899  0.8071 -0.1523
   62SAPC   H2R 4878   2.774   2.641  10.267 -0.1338  0.1209 -2.2434
   62SAPC   H2S 4879   2.780   2.480  10.346  1.1036  2.6212  3.0308
   62SAPC    C3 4880   2.712   2.920  10.592 -0.6475 -1.3370 -0.0755
   62SAPC    HX 4881   2.819   2.919  10.621 -1.3691  1.7115  3.4673
   62SAPC    HY 4882   2.665   2.966  10.681  1.3538 -2.4473  1.6507
   62SAPC   O31 4883   2.686   2.992  10.467 -0.3824  0.0863 -0.6958
   62SAPC   C31 4884   2.714   3.115  10.476 -0.1563  0.2356  0.3002
   62SAPC   O32 4885   2.765   3.177  10.570 -0.1342  0.4531  0.2327
   62SAPC   C32 4886   2.673   3.184  10.348  0.1735  0.2759  0.0625
   62SAPC   H2X 4887   2.709   3.289  10.360  0.1346  0.2959  0.0063
   62SAPC   H2Y 4888   2.562   3.180  10.350  0.1168  1.6181  0.8880
   62SAPC   C23 4889   2.624   2.515  10.194  0.1249 -0.2268 -0.4676
   62SAPC   H3R 4890   2.573   2.599  10.141 -0.1031  0.3528  0.6550
   62SAPC   H3S 4891   2.547   2.456  10.248 -0.4552  2.1311  1.4411
   62SAPC   C24 4892   2.690   2.426  10.089 -0.5007 -0.9737  0.7202
   62SAPC   H4R 4893   2.619   2.393  10.010  0.9896 -0.6437 -0.8218
   62SAPC   H4S 4894   2.741   2.334  10.124  2.0157 -1.1763 -2.9199
   62SAPC   C25 4895   2.807   2.489  10.013 -0.0910  0.0527 -0.0001
   62SAPC   H5R 4896   2.870   2.559  10.069  0.0656  0.5162 -0.7368
   62SAPC   C26 4897   2.827   2.482   9.885 -0.0919 -0.0177  0.5284
   62SAPC   H6R 4898   2.912   2.524   9.829 -0.9888 -3.2347 -3.7749
   62SAPC   C27 4899   2.748   2.397   9.790  0.6487 -0.5809  0.0389
   62SAPC   H7R 4900   2.643   2.432   9.798  0.8701 -0.3213  3.7275
   62SAPC   H7S 4901   2.754   2.291   9.823 -1.4768 -0.8505 -0.2675
   62SAPC   C28 4902   2.805   2.407   9.645  0.3318 -0.4513 -0.2331
   62SAPC   H8R 4903   2.793   2.511   9.611  1.0359  0.8330  3.0872
   62SAPC   C29 4904   2.849   2.314   9.558  0.0265 -0.2777  0.4545
   62SAPC   H9R 4905   2.867   2.345   9.454  1.1848 -2.0583  0.0706
   62SAPC  C210 4906   2.852   2.169   9.584 -0.0438 -0.1117  0.0523
   62SAPC  H10R 4907   2.792   2.117   9.506 -2.0514  1.1988  0.6444
   62SAPC  H10S 4908   2.791   2.147   9.674  0.4071 -0.1659  0.3505
   62SAPC  C211 4909   2.989   2.116   9.612 -0.5948  0.2396  0.2258
   62SAPC  H11R 4910   3.019   2.118   9.718  0.6748  0.5713 -0.1248
   62SAPC  C212 4911   3.074   2.077   9.511 -0.0499  0.3474  0.0227
   62SAPC  H12R 4912   3.178   2.051   9.532  0.2529  1.1614 -0.4161
   62SAPC  C213 4913   3.037   2.070   9.360 -0.4839 -0.3928 -0.3430
   62SAPC  H13R 4914   2.926   2.062   9.354 -0.5754  0.2636  0.2735
   62SAPC  H13S 4915   3.075   1.983   9.304  1.6853  0.7135 -0.6981
   62SAPC  C214 4916   3.080   2.197   9.287 -0.1296 -0.0411  0.1001
   62SAPC  H14R 4917   3.133   2.279   9.339  1.4131  0.1518 -1.6559
   62SAPC  C215 4918   3.072   2.210   9.152  0.1135  0.3656  0.4991
   62SAPC  H15R 4919   3.096   2.312   9.117  2.4956 -0.3245 -0.0376
   62SAPC  C216 4920   3.012   2.102   9.059  0.0835 -0.3241 -0.4796
   62SAPC  H16R 4921   2.916   2.064   9.102 -0.4467  0.6913 -0.7196
   62SAPC  H16S 4922   3.076   2.012   9.051 -1.2044 -1.2618 -0.5522
   62SAPC  C217 4923   2.985   2.159   8.921 -0.4975 -0.3385 -0.3910
   62SAPC  H17R 4924   3.073   2.216   8.884 -0.0815 -1.0956 -0.5863
   62SAPC  H17S 4925   2.906   2.233   8.945 -0.2718  0.2066 -1.2639
   62SAPC  C218 4926   2.944   2.049   8.826 -0.2249 -0.1688 -0.0186
   62SAPC  H18R 4927   2.861   1.990   8.871  0.2503  0.5373  1.8816
   62SAPC  H18S 4928   3.026   1.975   8.814 -0.0814 -0.1653  0.8850
   62SAPC  C219 4929   2.904   2.094   8.685 -0.2777 -0.4416  0.0448
   62SAPC  H19R 4930   2.887   1.999   8.631  2.4090 -0.4924 -0.8789
   62SAPC  H19S 4931   2.994   2.141   8.639 -0.2400 -2.0245 -1.6060
   62SAPC  C220 4932   2.778   2.182   8.679  0.1642 -0.3588 -0.1539
   62SAPC  H20R 4933   2.774   2.275   8.738 -2.0034 -0.1152 -0.5985
   62SAPC  H20S 4934   2.693   2.120   8.715 -0.2152  0.9148  1.2175
   62SAPC  H20T 4935   2.755   2.207   8.573  1.3958  1.4290 -0.0340
   62SAPC   C33 4936   2.744   3.133  10.216  0.4487 -0.2119 -0.9710
   62SAPC   H3X 4937   2.850   3.117  10.243  0.7544  0.1957 -1.8983
   62SAPC   H3Y 4938   2.738   3.213  10.138  1.4395  0.3502 -0.4891
   62SAPC   C34 4939   2.685   3.000  10.168 -0.5021 -0.0519 -0.3696
   62SAPC   H4X 4940   2.575   3.004  10.184 -0.5260 -1.9207  0.0983
   62SAPC   H4Y 4941   2.727   2.920  10.233  2.7345  0.5760 -1.4993
   62SAPC   C35 4942   2.720   2.979  10.022  0.5919  0.2717 -0.3718
   62SAPC   H5X 4943   2.824   3.011   9.997  0.7927  0.3290  0.5256
   62SAPC   H5Y 4944   2.659   3.049   9.960 -2.7620 -3.5069 -1.7782
   62SAPC   C36 4945   2.691   2.839   9.977  0.2887 -0.0551  0.1666
   62SAPC   H6X 4946   2.589   2.809  10.010 -0.7424  2.8173 -0.1877
   62SAPC   H6Y 4947   2.756   2.768  10.033 -0.6016  0.3291  1.7431
   62SAPC   C37 4948   2.702   2.817   9.824  0.2001  0.2927  0.6608
   62SAPC   H7X 4949   2.603   2.853   9.789  0.7207  2.4554  1.2771
   62SAPC   H7Y 4950   2.709   2.710   9.795 -2.4085  0.0004  0.9000
   62SAPC   C38 4951   2.808   2.906   9.749 -0.2342  0.7133  0.5808
   62SAPC   H8X 4952   2.899   2.902   9.812 -0.6344  0.9100  1.1847
   62SAPC   H8Y 4953   2.771   3.011   9.750 -1.7407  0.2035  0.5823
   62SAPC   C39 4954   2.831   2.860   9.609  0.0068 -0.1546  0.7814
   62SAPC   H9X 4955   2.840   2.749   9.603 -0.6486 -0.1837  0.2916
   62SAPC   H9Y 4956   2.923   2.906   9.566 -0.1115  0.4193  1.1381
   62SAPC  C310 4957   2.709   2.915   9.524 -0.5317  0.0569 -0.1050
   62SAPC  H10X 4958   2.698   3.026   9.519  1.9075  0.3351 -0.3517
   62SAPC  H10Y 4959   2.617   2.873   9.570 -0.3668 -0.7792 -0.5096
   62SAPC  C311 4960   2.701   2.854   9.382  0.2851 -0.2054  0.3384
   62SAPC  H11X 4961   2.604   2.882   9.336 -0.3608 -2.5919  0.0871
   62SAPC  H11Y 4962   2.718   2.744   9.386 -3.9369 -1.0732 -0.6550
   62SAPC  C312 4963   2.807   2.927   9.294 -0.0203  0.3406  0.3557
   62SAPC  H12X 4964   2.914   2.911   9.320  0.6043 -1.1271 -2.6715
   62SAPC  H12Y 4965   2.793   3.036   9.313  0.8319  0.5413 -0.1155
   62SAPC  C313 4966   2.796   2.889   9.141  0.0751  0.4010  0.4848
   62SAPC  H13X 4967   2.876   2.945   9.088  0.1719 -1.2761 -1.2735
   62SAPC  H13Y 4968   2.694   2.910   9.102  0.8213  1.7542 -0.8523
   62SAPC  C314 4969   2.823   2.739   9.106  0.1386 -0.6052 -0.2416
   62SAPC  H14X 4970   2.800   2.730   8.998  1.2544  2.5235 -0.8431
   62SAPC  H14Y 4971   2.754   2.677   9.168  1.8219 -0.8465  1.4770
   62SAPC  C315 4972   2.957   2.683   9.142 -0.0474 -0.7494 -0.3109
   62SAPC  H15X 4973   2.979   2.698   9.249  3.0260  1.1984 -1.0972
   62SAPC  H15Y 4974   3.043   2.735   9.094 -0.0046  1.0250  1.5368
   62SAPC  C316 4975   2.970   2.539   9.092  0.8291  0.1682  0.1033
   62SAPC  H16X 4976   2.880   2.482   9.122  0.2630  0.7811 -0.4135
   62SAPC  H16Y 4977   3.062   2.499   9.140 -0.4860 -1.3083  1.5066
   62SAPC  C317 4978   3.004   2.539   8.940  0.3821 -0.2589  0.0268
   62SAPC  H17X 4979   2.942   2.617   8.891 -0.6933 -0.5203  0.9437
   62SAPC  H17Y 4980   2.971   2.443   8.895  2.2860 -0.1663 -1.7397
   62SAPC  C318 4981   3.149   2.552   8.912 -0.8572  0.2895 -0.5533
   62SAPC  H18X 4982   3.204   2.486   8.983  0.0131  1.4051 -0.1706
   62SAPC  H18Y 4983   3.179   2.658   8.923  1.9345 -0.5312  0.6376
   62SAPC  H18Z 4984   3.179   2.513   8.812  1.0735  1.1702 -0.3717
   63SAPC     N 4985   5.765   2.047   6.304  0.9463  0.0154 -0.1897
   63SAPC   C12 4986   5.615   2.002   6.335 -0.5168 -0.1107 -1.2095
   63SAPC  H12A 4987   5.590   1.907   6.291 -0.6321 -1.2104  1.1019
   63SAPC  H12B 4988   5.560   2.088   6.301 -1.3066  0.3411  1.0500
   63SAPC   C13 4989   5.781   2.060   6.153 -0.4666 -0.8240 -0.8503
   63SAPC  H13A 4990   5.752   1.965   6.112 -0.9532 -1.5570  1.0520
   63SAPC  H13B 4991   5.709   2.130   6.113 -1.2350 -1.1619 -0.0861
   63SAPC  H13C 4992   5.881   2.091   6.124 -0.6944  0.1096 -0.6630
   63SAPC   C14 4993   5.792   2.185   6.360  0.3063  0.4411 -0.4358
   63SAPC  H14A 4994   5.732   2.262   6.313 -0.0859 -0.7922 -2.0637
   63SAPC  H14B 4995   5.783   2.170   6.466  0.8929 -2.1873 -0.7004
   63SAPC  H14C 4996   5.896   2.213   6.353  0.7614 -0.6067  1.6582
   63SAPC   C15 4997   5.860   1.952   6.358  0.6811  0.3270  0.3422
   63SAPC  H15A 4998   5.858   1.967   6.465 -0.3952  0.6208  0.2938
   63SAPC  H15B 4999   5.826   1.851   6.345 -0.4170  0.8032 -0.6295
   63SAPC  H15C 5000   5.964   1.977   6.341  0.4997  1.6295  1.0339
   63SAPC   C11 5001   5.571   1.977   6.482 -0.0035 -0.5380 -0.3938
   63SAPC  H11A 5002   5.630   1.891   6.519  0.1475 -0.8735 -1.3809
   63SAPC  H11B 5003   5.466   1.939   6.480  0.1356 -0.9607 -2.6602
   63SAPC     P 5004   5.476   2.201   6.574 -0.1047  0.5157 -0.0467
   63SAPC   O13 5005   5.431   2.216   6.436  0.3418  0.2980  0.5204
   63SAPC   O14 5006   5.371   2.155   6.670 -0.3766 -0.0501 -0.3922
   63SAPC   O12 5007   5.590   2.089   6.569 -0.2204 -0.6682 -0.1937
   63SAPC   O11 5008   5.545   2.330   6.639 -0.7934  0.2253  0.4637
   63SAPC    C1 5009   5.675   2.328   6.696 -0.0930  0.4707 -0.2662
   63SAPC    HA 5010   5.749   2.284   6.626  0.4088  1.5988 -0.4604
   63SAPC    HB 5011   5.698   2.436   6.700  2.2477 -0.0081  0.8092
   63SAPC    C2 5012   5.678   2.287   6.849 -1.0783  0.3717  0.6880
   63SAPC    HS 5013   5.679   2.176   6.845  2.5283  0.3389 -1.4472
   63SAPC   O21 5014   5.568   2.340   6.916  0.2353 -0.3128 -0.2607
   63SAPC   C21 5015   5.505   2.263   7.009  0.6354 -0.1535  0.3040
   63SAPC   O22 5016   5.542   2.160   7.057  0.0451  0.1982 -0.6478
   63SAPC   C22 5017   5.391   2.347   7.062 -0.2645 -0.1028 -0.0775
   63SAPC   H2R 5018   5.415   2.376   7.166 -1.2454  1.5043 -0.2716
   63SAPC   H2S 5019   5.380   2.442   7.006  0.1462 -0.8803 -1.5546
   63SAPC    C3 5020   5.813   2.334   6.902  0.1415 -1.1001  0.3239
   63SAPC    HX 5021   5.802   2.444   6.896  0.6106 -1.1182 -1.6865
   63SAPC    HY 5022   5.896   2.308   6.832 -0.7725 -0.2845 -1.1252
   63SAPC   O31 5023   5.831   2.297   7.043 -0.0073 -0.2948  0.3447
   63SAPC   C31 5024   5.855   2.164   7.063 -0.4199 -0.0893  0.3167
   63SAPC   O32 5025   5.873   2.082   6.977  0.0387  0.1521 -0.1665
   63SAPC   C32 5026   5.850   2.127   7.214  0.5263  0.1335 -0.3471
   63SAPC   H2X 5027   5.871   2.018   7.211  0.7229  0.1799 -0.7720
   63SAPC   H2Y 5028   5.749   2.162   7.246  0.7012  0.4531 -0.1337
   63SAPC   C23 5029   5.257   2.273   7.076  0.1823 -0.1226  0.2346
   63SAPC   H3R 5030   5.273   2.167   7.104  1.0930 -1.0031 -3.1225
   63SAPC   H3S 5031   5.221   2.260   6.972  0.5966  0.2167  0.0449
   63SAPC   C24 5032   5.153   2.347   7.153  0.3122 -0.7495 -0.4918
   63SAPC   H4R 5033   5.153   2.452   7.115  1.3914 -0.8444 -0.7618
   63SAPC   H4S 5034   5.174   2.349   7.262 -1.4650 -2.5404 -0.0390
   63SAPC   C25 5035   5.008   2.302   7.116  0.1551 -0.3803 -0.3347
   63SAPC   H5R 5036   4.983   2.304   7.009 -2.0194 -0.6869  0.1238
   63SAPC   C26 5037   4.928   2.234   7.199  0.7141  0.1875  0.0542
   63SAPC   H6R 5038   4.831   2.198   7.162 -0.5171  0.2506  2.9611
   63SAPC   C27 5039   4.952   2.203   7.344  0.3108 -0.1902  0.4955
   63SAPC   H7R 5040   5.048   2.150   7.360  0.5465 -0.3259 -1.2474
   63SAPC   H7S 5041   4.883   2.117   7.358  0.6695 -0.5318  0.1819
   63SAPC   C28 5042   4.920   2.314   7.440  0.2511  0.0709 -0.4154
   63SAPC   H8R 5043   4.908   2.408   7.384 -1.4606 -0.1740 -0.5255
   63SAPC   C29 5044   4.945   2.304   7.574 -1.0267 -0.7594 -0.1236
   63SAPC   H9R 5045   4.915   2.392   7.634 -1.4638 -0.5490 -0.6418
   63SAPC  C210 5046   4.999   2.193   7.655 -0.2470  0.5666 -0.8099
   63SAPC  H10R 5047   4.992   2.094   7.604  1.3223 -0.7070  1.2965
   63SAPC  H10S 5048   4.944   2.182   7.751 -0.6725 -1.1815 -1.2120
   63SAPC  C211 5049   5.149   2.217   7.691 -0.0291  0.2631 -0.4106
   63SAPC  H11R 5050   5.200   2.282   7.619 -1.3862  1.4937 -0.3015
   63SAPC  C212 5051   5.217   2.182   7.808  0.4267 -0.3458  0.3366
   63SAPC  H12R 5052   5.318   2.220   7.826 -0.9211  2.5252  2.7405
   63SAPC  C213 5053   5.170   2.090   7.909  0.2700  0.2510  0.4026
   63SAPC  H13R 5054   5.092   2.026   7.863  0.1180 -0.3317  1.4291
   63SAPC  H13S 5055   5.113   2.153   7.980 -0.7877  1.7239 -1.6730
   63SAPC  C214 5056   5.269   2.011   7.993  0.1713  0.1225  0.6779
   63SAPC  H14R 5057   5.298   2.052   8.091  1.4418  0.5925  0.1188
   63SAPC  C215 5058   5.325   1.895   7.959  0.7342 -0.1931  0.1812
   63SAPC  H15R 5059   5.397   1.856   8.033 -0.5750 -1.3423  0.9047
   63SAPC  C216 5060   5.296   1.814   7.832  0.0625 -0.1944  0.6284
   63SAPC  H16R 5061   5.224   1.861   7.762  0.5732  3.1586  2.1398
   63SAPC  H16S 5062   5.251   1.715   7.851 -0.6519 -0.1372 -0.6842
   63SAPC  C217 5063   5.432   1.805   7.750  0.3632  0.5529 -0.0776
   63SAPC  H17R 5064   5.475   1.906   7.734  0.0025  0.5786 -0.9229
   63SAPC  H17S 5065   5.399   1.765   7.652 -4.2690  0.0820  1.3952
   63SAPC  C218 5066   5.552   1.716   7.808  0.7635 -0.2286  0.2460
   63SAPC  H18R 5067   5.512   1.619   7.843 -1.4854  0.7354  0.5326
   63SAPC  H18S 5068   5.594   1.788   7.882  1.3669  0.8138 -1.0734
   63SAPC  C219 5069   5.659   1.695   7.701  0.1665 -0.2997  0.3026
   63SAPC  H19R 5070   5.628   1.608   7.640  1.4879 -0.9700  0.5498
   63SAPC  H19S 5071   5.749   1.659   7.756 -0.5721  1.8698  3.1834
   63SAPC  C220 5072   5.695   1.813   7.616  0.1285 -0.6745 -0.3806
   63SAPC  H20R 5073   5.704   1.905   7.677  0.1106 -1.1747  0.3898
   63SAPC  H20S 5074   5.622   1.839   7.536 -0.1496 -0.5471 -0.0860
   63SAPC  H20T 5075   5.797   1.803   7.573 -0.2055  2.1653 -2.0652
   63SAPC   C33 5076   5.965   2.208   7.285  0.0848 -0.2835 -0.9918
   63SAPC   H3X 5077   5.994   2.307   7.243  1.4252 -0.1489  0.1716
   63SAPC   H3Y 5078   6.059   2.149   7.281  1.2502  1.5292 -1.7612
   63SAPC   C34 5079   5.944   2.226   7.444  0.4179 -0.6458  0.2683
   63SAPC   H4X 5080   5.870   2.149   7.475  0.7741 -0.7487  0.8601
   63SAPC   H4Y 5081   5.889   2.322   7.453 -0.7427 -1.2905  0.2448
   63SAPC   C35 5082   6.058   2.211   7.542 -0.0495 -0.0680 -0.8382
   63SAPC   H5X 5083   6.143   2.267   7.498  0.7751 -1.8925 -1.7132
   63SAPC   H5Y 5084   6.088   2.104   7.541  0.6502  0.1223 -0.8894
   63SAPC   C36 5085   6.032   2.263   7.683  0.3138  0.5811 -0.3291
   63SAPC   H6X 5086   5.927   2.243   7.714  0.5521 -0.0219  0.1201
   63SAPC   H6Y 5087   6.044   2.373   7.690 -1.0827  0.8273 -1.2670
   63SAPC   C37 5088   6.112   2.193   7.790 -0.3699  0.9324 -0.1210
   63SAPC   H7X 5089   6.219   2.218   7.774 -0.1013  0.9040  1.4977
   63SAPC   H7Y 5090   6.085   2.085   7.789 -0.5607  0.9499 -2.5077
   63SAPC   C38 5091   6.066   2.240   7.924  0.5979  0.1308  0.2098
   63SAPC   H8X 5092   5.957   2.227   7.939  0.7453  0.1178  1.3485
   63SAPC   H8Y 5093   6.089   2.349   7.936  2.0997 -0.1997  0.5346
   63SAPC   C39 5094   6.145   2.174   8.033  0.0389  0.0598  0.4207
   63SAPC   H9X 5095   6.252   2.204   8.035 -0.2609  1.1758  0.2844
   63SAPC   H9Y 5096   6.128   2.068   8.003  0.2961  0.0418  0.3339
   63SAPC  C310 5097   6.074   2.192   8.171  0.1630  0.1374  0.4592
   63SAPC  H10X 5098   5.983   2.130   8.186  0.2321  0.2308  1.3206
   63SAPC  H10Y 5099   6.053   2.300   8.163  1.3503  0.2712 -1.4289
   63SAPC  C311 5100   6.172   2.158   8.288 -0.2155  0.1153 -0.3721
   63SAPC  H11X 5101   6.279   2.182   8.274  0.0402 -1.0476 -0.5407
   63SAPC  H11Y 5102   6.159   2.048   8.293  0.3089  0.0636 -0.0289
   63SAPC  C312 5103   6.116   2.198   8.424 -0.0333 -0.3132  0.1212
   63SAPC  H12X 5104   6.181   2.156   8.503  2.3186  0.5382 -1.2576
   63SAPC  H12Y 5105   6.013   2.155   8.428  0.4671 -1.6025 -0.0980
   63SAPC  C313 5106   6.108   2.349   8.443  0.0948  0.4451  0.7117
   63SAPC  H13X 5107   6.042   2.399   8.369 -0.1890 -2.4580 -1.1535
   63SAPC  H13Y 5108   6.211   2.389   8.429  0.9008 -0.8738  2.5612
   63SAPC  C314 5109   6.040   2.394   8.569 -0.3356  0.3680  0.3186
   63SAPC  H14X 5110   6.018   2.314   8.643  2.1877 -0.5928  0.1287
   63SAPC  H14Y 5111   5.942   2.445   8.551  0.4711  1.3517 -1.5447
   63SAPC  C315 5112   6.135   2.495   8.648  0.7849 -0.0120  0.7761
   63SAPC  H15X 5113   6.242   2.466   8.634  0.9690  1.7012 -2.0530
   63SAPC  H15Y 5114   6.109   2.497   8.756  0.0468 -0.1891  0.6047
   63SAPC  C316 5115   6.114   2.638   8.586 -0.0374 -0.3612  0.7891
   63SAPC  H16X 5116   6.011   2.671   8.611  0.1641  0.8339  0.1125
   63SAPC  H16Y 5117   6.127   2.634   8.476 -2.1800  0.9647  0.4271
   63SAPC  C317 5118   6.209   2.730   8.660 -0.2125 -0.3264  0.1963
   63SAPC  H17X 5119   6.317   2.705   8.655 -0.1733 -0.0730 -0.2162
   63SAPC  H17Y 5120   6.184   2.713   8.767 -2.0446  1.2982  0.0636
   63SAPC  C318 5121   6.190   2.874   8.600 -0.6239  0.3476 -0.2763
   63SAPC  H18X 5122   6.100   2.924   8.640 -2.8725 -2.9524 -0.7951
   63SAPC  H18Y 5123   6.180   2.856   8.491 -0.5253  0.8114 -0.3626
   63SAPC  H18Z 5124   6.283   2.932   8.619  0.8096 -2.0302  0.4501
   64SAPC     N 5125   0.473   2.439   5.894 -0.6943 -0.0475 -0.2413
   64SAPC   C12 5126   0.472   2.373   6.022  0.0901  0.1983  0.8123
   64SAPC  H12A 5127   0.570   2.331   6.041  0.5719  0.7755 -0.3263
   64SAPC  H12B 5128   0.409   2.286   6.021  0.7061 -0.2806 -1.3816
   64SAPC   C13 5129   0.575   2.554   5.884  0.3197 -0.1989  0.1104
   64SAPC  H13A 5130   0.547   2.634   5.951 -1.1428 -0.1448 -0.5373
   64SAPC  H13B 5131   0.678   2.524   5.895  0.9548  2.0446  1.0156
   64SAPC  H13C 5132   0.553   2.600   5.789 -0.1997 -0.2352  0.2085
   64SAPC   C14 5133   0.517   2.349   5.781 -0.6275  0.2761  0.2834
   64SAPC  H14A 5134   0.468   2.253   5.780  0.6942 -0.6188 -4.4608
   64SAPC  H14B 5135   0.502   2.398   5.686 -2.1196  1.0788  0.9106
   64SAPC  H14C 5136   0.623   2.329   5.790 -0.5371 -0.4764 -1.9347
   64SAPC   C15 5137   0.341   2.503   5.858 -0.0403  0.5164  0.3826
   64SAPC  H15A 5138   0.261   2.431   5.870  1.0397 -0.8085 -0.1914
   64SAPC  H15B 5139   0.326   2.581   5.931 -0.7900 -0.1752  0.9806
   64SAPC  H15C 5140   0.329   2.551   5.761 -3.4078  0.4798  0.6529
   64SAPC   C11 5141   0.419   2.457   6.145 -0.1566  0.2914  0.5665
   64SAPC  H11A 5142   0.469   2.556   6.146  1.1192 -0.3298  2.3566
   64SAPC  H11B 5143   0.448   2.403   6.237 -0.5466 -0.5251  0.2206
   64SAPC     P 5144   0.178   2.377   6.195 -0.4741 -0.3245  0.4952
   64SAPC   O13 5145   0.045   2.435   6.186  0.0193  0.1048  0.0487
   64SAPC   O14 5146   0.199   2.253   6.116 -0.1495  0.6801 -0.0133
   64SAPC   O12 5147   0.282   2.480   6.143 -0.0377 -0.0338  0.0784
   64SAPC   O11 5148   0.210   2.366   6.346  0.2013 -0.3575  0.3369
   64SAPC    C1 5149   0.103   2.331   6.436  0.1972  0.3002 -1.1656
   64SAPC    HA 5150   0.018   2.402   6.430 -0.3630 -0.3548 -1.1961
   64SAPC    HB 5151   0.057   2.231   6.419 -4.6221  2.3223 -1.4683
   64SAPC    C2 5152   0.166   2.340   6.577  0.2062 -0.4887  0.2521
   64SAPC    HS 5153   0.207   2.443   6.576 -0.6689 -0.1234  0.8010
   64SAPC   O21 5154   0.266   2.238   6.606  0.0004  0.1069 -0.2299
   64SAPC   C21 5155   0.386   2.282   6.617 -0.5535  0.7126  0.0673
   64SAPC   O22 5156   0.424   2.387   6.662 -0.6270  0.0380  0.2441
   64SAPC   C22 5157   0.485   2.176   6.565  0.3319 -0.4208 -0.1164
   64SAPC   H2R 5158   0.576   2.209   6.620 -1.9824  2.9434  2.0593
   64SAPC   H2S 5159   0.445   2.073   6.575  0.0171 -0.2552  0.3632
   64SAPC    C3 5160   0.069   2.327   6.701  0.4974  0.1207  0.0322
   64SAPC    HX 5161   0.025   2.225   6.690 -0.1873  0.4721 -0.5268
   64SAPC    HY 5162  -0.013   2.398   6.677  0.3561  0.0468  0.2828
   64SAPC   O31 5163   0.119   2.360   6.834 -0.2372 -0.1749  0.0720
   64SAPC   C31 5164   0.026   2.398   6.927 -0.0544 -0.5863  0.3549
   64SAPC   O32 5165  -0.090   2.375   6.907  0.2950  0.0452  0.1406
   64SAPC   C32 5166   0.092   2.502   7.028 -0.0179 -0.4437  0.4014
   64SAPC   H2X 5167   0.084   2.598   6.972  2.0299 -1.5172 -1.8904
   64SAPC   H2Y 5168   0.200   2.483   7.044  0.1842  1.2970  1.3106
   64SAPC   C23 5169   0.513   2.182   6.409  0.1033 -0.1603  0.4066
   64SAPC   H3R 5170   0.529   2.290   6.385 -1.8160 -0.0279 -0.3810
   64SAPC   H3S 5171   0.417   2.158   6.359 -2.5611  3.1272  3.3845
   64SAPC   C24 5172   0.639   2.091   6.367  0.1403  0.0495 -0.1378
   64SAPC   H4R 5173   0.734   2.133   6.408 -0.0690 -0.3922  0.8286
   64SAPC   H4S 5174   0.641   2.111   6.258 -0.1461 -0.9410 -0.3297
   64SAPC   C25 5175   0.613   1.944   6.396 -0.0950  0.6482 -0.2960
   64SAPC   H5R 5176   0.559   1.897   6.312  0.2735  1.6663 -1.1248
   64SAPC   C26 5177   0.643   1.863   6.502  0.1972 -0.2108 -0.1073
   64SAPC   H6R 5178   0.619   1.755   6.505 -0.3272 -0.0974 -0.2235
   64SAPC   C27 5179   0.717   1.923   6.619 -0.7620  0.4485 -0.3589
   64SAPC   H7R 5180   0.640   1.942   6.696 -0.5235  0.6974 -0.1774
   64SAPC   H7S 5181   0.742   2.031   6.602 -1.9491  1.1713  2.0352
   64SAPC   C28 5182   0.824   1.836   6.674  0.0339  0.4388 -0.4818
   64SAPC   H8R 5183   0.913   1.855   6.612  0.7309  0.6869  0.5539
   64SAPC   C29 5184   0.817   1.761   6.788  0.6391  0.2652  0.5478
   64SAPC   H9R 5185   0.911   1.713   6.820  1.6138  0.5760 -1.7010
   64SAPC  C210 5186   0.707   1.745   6.885 -0.7366 -0.4281  0.4405
   64SAPC  H10R 5187   0.704   1.636   6.908  1.0880 -0.9113 -1.3248
   64SAPC  H10S 5188   0.611   1.778   6.840 -0.2462  1.5272  0.7458
   64SAPC  C211 5189   0.745   1.836   6.999  0.7482 -0.5144  0.1391
   64SAPC  H11R 5190   0.702   1.937   7.005 -0.6091 -1.1481  2.5208
   64SAPC  C212 5191   0.817   1.805   7.107  0.6469  0.0706  0.5949
   64SAPC  H12R 5192   0.837   1.886   7.180 -2.4396  0.9985  0.5435
   64SAPC  C213 5193   0.862   1.661   7.150 -0.4618  0.1489  0.1829
   64SAPC  H13R 5194   0.973   1.663   7.144 -0.5236  0.2114 -2.8693
   64SAPC  H13S 5195   0.828   1.583   7.079 -1.3454 -1.3276  2.1578
   64SAPC  C214 5196   0.815   1.619   7.286 -0.0276 -0.5184 -0.0838
   64SAPC  H14R 5197   0.716   1.571   7.289 -0.2535 -0.4418 -3.2776
   64SAPC  C215 5198   0.884   1.637   7.399  0.5511  0.1427  0.1173
   64SAPC  H15R 5199   0.837   1.606   7.493  0.2464  1.9425  0.5989
   64SAPC  C216 5200   1.019   1.699   7.427  0.2037 -0.1330  0.3805
   64SAPC  H16R 5201   1.079   1.695   7.334 -3.0123  0.1399 -1.8789
   64SAPC  H16S 5202   1.076   1.630   7.493  2.1271  2.4755  1.6165
   64SAPC  C217 5203   1.016   1.845   7.480  0.7708  0.1495 -0.4791
   64SAPC  H17R 5204   0.966   1.914   7.407  0.0646  1.1331  0.8847
   64SAPC  H17S 5205   1.116   1.883   7.510 -0.0711  1.8778  0.3240
   64SAPC  C218 5206   0.933   1.858   7.606  1.0459 -0.5133 -0.5024
   64SAPC  H18R 5207   0.828   1.830   7.586  1.4130 -1.5455 -1.0600
   64SAPC  H18S 5208   0.930   1.966   7.632 -1.5669 -0.7361  0.3677
   64SAPC  C219 5209   0.981   1.777   7.730 -0.1807  0.1113  0.2776
   64SAPC  H19R 5210   0.968   1.667   7.719 -0.4222  0.3695 -2.7172
   64SAPC  H19S 5211   0.917   1.811   7.814  0.8955  2.8311  0.1062
   64SAPC  C220 5212   1.129   1.793   7.760 -0.3787 -0.3528 -0.3593
   64SAPC  H20R 5213   1.192   1.734   7.691  0.1918  0.0427 -0.1769
   64SAPC  H20S 5214   1.146   1.735   7.853  1.7368 -2.1058 -1.7424
   64SAPC  H20T 5215   1.166   1.896   7.778 -1.1883  0.1174 -1.3253
   64SAPC   C33 5216   0.022   2.523   7.165 -0.2199  0.1738 -0.3355
   64SAPC   H3X 5217  -0.074   2.467   7.162  0.1890 -0.6074  0.4706
   64SAPC   H3Y 5218  -0.002   2.631   7.171  0.4236  0.2445  2.6174
   64SAPC   C34 5219   0.105   2.482   7.284 -0.3482 -0.0232 -0.1176
   64SAPC   H4X 5220   0.205   2.526   7.269 -0.1374  0.0613  1.3839
   64SAPC   H4Y 5221   0.127   2.374   7.269  1.6823  0.6412 -2.4501
   64SAPC   C35 5222   0.051   2.534   7.416 -0.3098 -0.1614 -0.2500
   64SAPC   H5X 5223  -0.039   2.476   7.443  0.9960 -2.0340  0.3170
   64SAPC   H5Y 5224   0.008   2.636   7.414 -0.9255 -0.4287 -2.0013
   64SAPC   C36 5225   0.149   2.524   7.526 -0.3239  0.9530  0.3820
   64SAPC   H6X 5226   0.212   2.611   7.498  0.1850  1.3573  2.6208
   64SAPC   H6Y 5227   0.196   2.424   7.518 -1.0667  0.6512 -0.4081
   64SAPC   C37 5228   0.089   2.538   7.667  0.2048 -0.3196 -0.0072
   64SAPC   H7X 5229  -0.017   2.505   7.678  0.6063 -1.2456  1.3169
   64SAPC   H7Y 5230   0.079   2.643   7.700  0.8825 -0.1993 -0.1691
   64SAPC   C38 5231   0.180   2.477   7.775 -0.4933  0.0941  0.2938
   64SAPC   H8X 5232   0.277   2.531   7.766  0.2371 -1.3132 -0.7073
   64SAPC   H8Y 5233   0.196   2.371   7.746  0.0228  0.1992  0.1758
   64SAPC   C39 5234   0.124   2.483   7.919  0.2299  0.4519  0.1858
   64SAPC   H9X 5235   0.017   2.453   7.919 -0.0276  1.3095  1.2027
   64SAPC   H9Y 5236   0.128   2.586   7.962 -0.0357  0.9083 -0.8479
   64SAPC  C310 5237   0.203   2.390   8.005  0.4261  0.2340 -0.5273
   64SAPC  H10X 5238   0.310   2.421   8.003  0.2980  0.8354  0.8885
   64SAPC  H10Y 5239   0.198   2.293   7.950  2.0842 -0.9784  1.3260
   64SAPC  C311 5240   0.154   2.375   8.149  0.4078 -0.1720  0.4913
   64SAPC  H11X 5241   0.045   2.353   8.157  0.6510 -2.0860 -0.6245
   64SAPC  H11Y 5242   0.183   2.460   8.214  1.1795  0.1969 -0.3126
   64SAPC  C312 5243   0.198   2.246   8.219  0.4977 -0.1563 -0.4618
   64SAPC  H12X 5244   0.202   2.162   8.146  1.1663 -1.2071  0.7323
   64SAPC  H12Y 5245   0.129   2.225   8.304  0.7262 -0.5084 -0.3589
   64SAPC  C313 5246   0.337   2.260   8.273  0.0058  0.0072  0.2493
   64SAPC  H13X 5247   0.356   2.360   8.317  0.0774 -0.1286  0.5316
   64SAPC  H13Y 5248   0.417   2.253   8.196 -1.6024 -0.2125 -1.4674
   64SAPC  C314 5249   0.360   2.153   8.387  0.0524 -0.1885 -0.5266
   64SAPC  H14X 5250   0.366   2.052   8.341  0.3104  0.4695 -1.9751
   64SAPC  H14Y 5251   0.267   2.174   8.445  0.0583  0.9873 -0.9252
   64SAPC  C315 5252   0.479   2.189   8.477  0.6198 -0.2032 -0.5429
   64SAPC  H15X 5253   0.458   2.288   8.523  0.8484 -0.7960  0.8943
   64SAPC  H15Y 5254   0.575   2.197   8.421  0.8300  0.3581 -0.1133
   64SAPC  C316 5255   0.513   2.088   8.587 -0.0845  0.1423  0.1473
   64SAPC  H16X 5256   0.416   2.043   8.619  0.4452 -0.5679  0.7851
   64SAPC  H16Y 5257   0.553   2.141   8.676 -1.1780 -0.1655  0.8511
   64SAPC  C317 5258   0.607   1.974   8.553  0.1264  0.3240  0.5739
   64SAPC  H17X 5259   0.596   1.939   8.448  2.2270  4.6616 -1.3572
   64SAPC  H17Y 5260   0.598   1.897   8.633  0.5626  0.6473  0.9340
   64SAPC  C318 5261   0.755   2.016   8.567 -0.1498  0.1104 -0.2118
   64SAPC  H18X 5262   0.779   2.069   8.662  0.5507  2.5511 -1.6655
   64SAPC  H18Y 5263   0.779   2.085   8.484 -1.2198  0.6929 -0.0576
   64SAPC  H18Z 5264   0.822   1.927   8.565 -0.1258  0.0241  1.7938
   65SAPC     N 5265   2.698   4.135   5.801  0.1285  0.0880  0.2673
   65SAPC   C12 5266   2.724   3.991   5.784 -0.2618 -0.3459  0.4297
   65SAPC  H12A 5267   2.783   3.975   5.694 -1.5036 -0.4048 -0.3968
   65SAPC  H12B 5268   2.637   3.930   5.767  0.7466 -1.4841 -0.8384
   65SAPC   C13 5269   2.650   4.191   5.665 -0.2241 -0.1960  0.0648
   65SAPC  H13A 5270   2.556   4.142   5.643 -0.9356  0.2786  1.8734
   65SAPC  H13B 5271   2.635   4.298   5.654 -1.7701 -0.4342 -0.3820
   65SAPC  H13C 5272   2.716   4.159   5.586  0.0241 -1.3271  0.7169
   65SAPC   C14 5273   2.603   4.171   5.901 -0.1381 -0.1526 -0.6519
   65SAPC  H14A 5274   2.633   4.129   5.996 -3.4247  0.3950  0.7887
   65SAPC  H14B 5275   2.586   4.278   5.900 -2.6422 -0.4822 -1.3965
   65SAPC  H14C 5276   2.505   4.126   5.890  0.4325 -1.8626  0.8505
   65SAPC   C15 5277   2.826   4.209   5.843  0.3197  0.3325 -0.6957
   65SAPC  H15A 5278   2.908   4.188   5.776  0.1778 -2.0924 -0.1739
   65SAPC  H15B 5279   2.805   4.315   5.843  0.0469  0.3016  0.5920
   65SAPC  H15C 5280   2.859   4.183   5.943  4.1183  0.7083 -1.6742
   65SAPC   C11 5281   2.798   3.927   5.905  0.5590  0.1178  0.5423
   65SAPC  H11A 5282   2.893   3.972   5.942  1.2141 -0.2610 -0.6198
   65SAPC  H11B 5283   2.805   3.817   5.887 -1.2341  0.0343  0.1436
   65SAPC     P 5284   2.752   3.889   6.164  0.5930  0.3909  0.4444
   65SAPC   O13 5285   2.802   3.752   6.167 -0.7951  0.2709  0.1944
   65SAPC   O14 5286   2.833   3.993   6.227  0.0282  0.3797  0.4810
   65SAPC   O12 5287   2.714   3.937   6.019  0.7479  0.1496 -0.3695
   65SAPC   O11 5288   2.609   3.897   6.232 -0.4788 -0.2717  0.2596
   65SAPC    C1 5289   2.569   4.012   6.312 -0.0147  0.4019  0.0486
   65SAPC    HA 5290   2.600   4.104   6.258  2.5692 -0.6184 -0.3442
   65SAPC    HB 5291   2.459   4.027   6.300  0.1996  0.6871 -2.0344
   65SAPC    C2 5292   2.604   4.005   6.465 -0.0254 -0.5156  0.6650
   65SAPC    HS 5293   2.711   3.982   6.485  0.2484 -0.0698 -0.2440
   65SAPC   O21 5294   2.518   3.893   6.510 -0.9654  0.0116  0.3617
   65SAPC   C21 5295   2.573   3.825   6.617  0.0335  0.2065 -0.1620
   65SAPC   O22 5296   2.677   3.862   6.669  0.2666 -1.0155 -0.3907
   65SAPC   C22 5297   2.478   3.721   6.663  0.0476 -0.4595 -0.2586
   65SAPC   H2R 5298   2.381   3.776   6.666  0.8090  0.9258 -0.0882
   65SAPC   H2S 5299   2.459   3.644   6.586  0.3812  1.0184 -1.8914
   65SAPC    C3 5300   2.567   4.133   6.542 -0.6231  0.2729  0.9992
   65SAPC    HX 5301   2.463   4.160   6.515  0.1225 -1.1065 -4.7038
   65SAPC    HY 5302   2.634   4.213   6.505  1.9600 -2.2443 -0.1501
   65SAPC   O31 5303   2.570   4.113   6.686  0.0161  0.2774  0.0158
   65SAPC   C31 5304   2.682   4.155   6.748  0.3443 -0.4334  0.0099
   65SAPC   O32 5305   2.775   4.225   6.702 -0.3728  0.3953 -0.3366
   65SAPC   C32 5306   2.660   4.137   6.899 -0.1786  0.0317 -0.4778
   65SAPC   H2X 5307   2.569   4.074   6.911  0.0597 -0.1315  0.6046
   65SAPC   H2Y 5308   2.655   4.238   6.944  0.0599 -0.3635  0.4743
   65SAPC   C23 5309   2.517   3.664   6.804  0.2281  0.5625  0.2036
   65SAPC   H3R 5310   2.513   3.738   6.887  1.5070  1.2273 -0.3015
   65SAPC   H3S 5311   2.621   3.625   6.801 -0.0675 -0.2521  0.4065
   65SAPC   C24 5312   2.437   3.541   6.841  0.9085  0.4824 -0.2496
   65SAPC   H4R 5313   2.486   3.505   6.934  2.6658  2.8821 -0.1698
   65SAPC   H4S 5314   2.453   3.469   6.758  1.9824 -0.5751  0.8218
   65SAPC   C25 5315   2.289   3.582   6.866  0.3111 -0.5840  0.1537
   65SAPC   H5R 5316   2.231   3.619   6.781  2.3519  0.9404 -0.6443
   65SAPC   C26 5317   2.239   3.595   6.990 -0.1014 -0.0244 -0.0335
   65SAPC   H6R 5318   2.132   3.611   7.009 -0.3453  0.4043 -1.5834
   65SAPC   C27 5319   2.313   3.586   7.124  0.2381  0.1689  0.1788
   65SAPC   H7R 5320   2.278   3.663   7.196 -1.5788 -0.6164  0.1981
   65SAPC   H7S 5321   2.420   3.598   7.098 -0.4435  1.3846 -2.4105
   65SAPC   C28 5322   2.318   3.445   7.179  0.0977  0.7565 -0.8563
   65SAPC   H8R 5323   2.394   3.378   7.137 -0.0087 -0.2308  0.4771
   65SAPC   C29 5324   2.253   3.404   7.290  0.2099  0.1912  0.9639
   65SAPC   H9R 5325   2.270   3.301   7.324  1.7151  0.2305  0.3838
   65SAPC  C210 5326   2.140   3.477   7.360  0.3554  0.7707 -0.2838
   65SAPC  H10R 5327   2.061   3.481   7.282  0.6880  0.0069 -0.6732
   65SAPC  H10S 5328   2.163   3.583   7.384  0.6191  0.8445 -0.8356
   65SAPC  C211 5329   2.081   3.414   7.482 -0.0798  0.0291 -0.1990
   65SAPC  H11R 5330   1.977   3.380   7.485 -1.1684  2.9855 -0.3155
   65SAPC  C212 5331   2.151   3.394   7.598  0.2997 -0.6736  0.5910
   65SAPC  H12R 5332   2.094   3.351   7.682  0.0032  0.4240  0.9579
   65SAPC  C213 5333   2.289   3.425   7.630 -0.3937  0.1305 -0.2512
   65SAPC  H13R 5334   2.298   3.495   7.716 -0.2451  0.3001 -0.4041
   65SAPC  H13S 5335   2.341   3.478   7.548  0.0085  0.4735  0.2147
   65SAPC  C214 5336   2.348   3.286   7.665  0.1742  0.4441 -0.3715
   65SAPC  H14R 5337   2.403   3.242   7.580 -2.0443 -0.4359 -1.4078
   65SAPC  C215 5338   2.335   3.216   7.785 -1.4208  0.1825  0.0191
   65SAPC  H15R 5339   2.376   3.114   7.786  0.2635  0.8107 -0.8983
   65SAPC  C216 5340   2.269   3.254   7.920  0.4504  0.1979 -0.0877
   65SAPC  H16R 5341   2.196   3.338   7.910  1.4785  1.2904  1.1793
   65SAPC  H16S 5342   2.343   3.288   7.996  0.2263 -2.2717  1.3519
   65SAPC  C217 5343   2.191   3.145   7.997  0.4162 -0.1378 -0.3132
   65SAPC  H17R 5344   2.256   3.056   8.007  1.8247  0.6133 -2.3199
   65SAPC  H17S 5345   2.108   3.109   7.932  2.0058 -2.6895 -1.0401
   65SAPC  C218 5346   2.134   3.193   8.136  0.5969 -0.3155 -0.0529
   65SAPC  H18R 5347   2.076   3.286   8.121  0.2700 -0.5044  0.0357
   65SAPC  H18S 5348   2.221   3.213   8.203  1.6297  1.9348 -1.9214
   65SAPC  C219 5349   2.057   3.072   8.187 -0.6660  0.2754  0.2607
   65SAPC  H19R 5350   2.119   2.980   8.188 -1.4410 -0.2497  0.4702
   65SAPC  H19S 5351   1.972   3.046   8.120  1.2432 -1.3260 -1.7156
   65SAPC  C220 5352   1.992   3.090   8.324 -0.1822  0.1649 -0.5830
   65SAPC  H20R 5353   1.963   2.991   8.365 -0.0282  0.9033  1.4009
   65SAPC  H20S 5354   1.897   3.147   8.315 -1.3356 -1.0807  2.3218
   65SAPC  H20T 5355   2.056   3.152   8.391  0.0343 -0.7367  0.0518
   65SAPC   C33 5356   2.776   4.062   6.977  0.4550  0.0838 -0.5996
   65SAPC   H3X 5357   2.869   4.118   6.953  0.1935  0.4194 -0.8211
   65SAPC   H3Y 5358   2.795   3.960   6.936  0.6665  0.1914 -0.7750
   65SAPC   C34 5359   2.755   4.030   7.128  0.1096 -0.1207  0.1707
   65SAPC   H4X 5360   2.717   4.125   7.173 -1.5594  0.6445 -2.6128
   65SAPC   H4Y 5361   2.852   4.009   7.178  0.9210  0.0612 -1.2471
   65SAPC   C35 5362   2.658   3.919   7.163 -0.0446 -0.0966 -0.1068
   65SAPC   H5X 5363   2.702   3.822   7.130  0.5310 -0.2895  1.1697
   65SAPC   H5Y 5364   2.558   3.950   7.126 -0.4372 -0.7654  0.3700
   65SAPC   C36 5365   2.637   3.904   7.319 -0.5253 -0.5453 -0.5381
   65SAPC   H6X 5366   2.729   3.872   7.374  0.1894 -0.6852 -1.7839
   65SAPC   H6Y 5367   2.560   3.826   7.335 -1.0050  0.2211  1.2034
   65SAPC   C37 5368   2.579   4.021   7.399 -0.4588  0.3912 -0.2725
   65SAPC   H7X 5369   2.495   4.068   7.343  0.0433 -0.6301 -1.9566
   65SAPC   H7Y 5370   2.660   4.094   7.425  3.0156 -2.5132 -2.0181
   65SAPC   C38 5371   2.515   3.966   7.526  0.1021  0.1126  0.1148
   65SAPC   H8X 5372   2.482   4.054   7.587 -1.5756 -0.2793 -0.1571
   65SAPC   H8Y 5373   2.592   3.928   7.595 -0.0410  0.4760  0.4778
   65SAPC   C39 5374   2.399   3.861   7.506 -0.1943  0.8256  0.2098
   65SAPC   H9X 5375   2.447   3.762   7.489 -1.3214 -0.3736  3.3414
   65SAPC   H9Y 5376   2.347   3.898   7.415 -0.0644 -0.0826 -0.2443
   65SAPC  C310 5377   2.305   3.858   7.619 -0.5687 -0.8115 -0.3885
   65SAPC  H10X 5378   2.214   3.802   7.589 -0.4478 -1.4222  0.3597
   65SAPC  H10Y 5379   2.267   3.956   7.653 -0.8538 -0.6874 -1.0459
   65SAPC  C311 5380   2.362   3.788   7.737 -0.0489  0.9728 -0.4489
   65SAPC  H11X 5381   2.451   3.834   7.785  0.7945 -2.0284  1.1239
   65SAPC  H11Y 5382   2.387   3.689   7.693 -2.0365  0.0027  0.4501
   65SAPC  C312 5383   2.258   3.759   7.850 -0.0836  0.5635  0.0232
   65SAPC  H12X 5384   2.165   3.716   7.807  1.7594 -0.7325 -2.9738
   65SAPC  H12Y 5385   2.234   3.852   7.905 -1.7719 -0.4346  1.0870
   65SAPC  C313 5386   2.315   3.664   7.954  0.2031  0.5367 -0.7240
   65SAPC  H13X 5387   2.418   3.701   7.970 -0.3626  2.6325 -1.6275
   65SAPC  H13Y 5388   2.325   3.556   7.927  0.8486  0.6601 -0.9835
   65SAPC  C314 5389   2.237   3.672   8.086  0.0682  0.0897  0.2824
   65SAPC  H14X 5390   2.129   3.652   8.067 -1.2310  3.2987  3.3080
   65SAPC  H14Y 5391   2.240   3.780   8.111 -1.2470  0.3477 -0.6123
   65SAPC  C315 5392   2.304   3.578   8.192  0.1591 -0.2746  0.5094
   65SAPC  H15X 5393   2.411   3.607   8.201 -0.2211  0.9235  1.5957
   65SAPC  H15Y 5394   2.298   3.473   8.159  0.1189  0.8144 -3.4938
   65SAPC  C316 5395   2.249   3.599   8.335 -0.5262  0.6640 -0.0825
   65SAPC  H16X 5396   2.253   3.709   8.352  2.0340  0.6100  0.0847
   65SAPC  H16Y 5397   2.317   3.545   8.405 -0.3215  0.0335 -0.7558
   65SAPC  C317 5398   2.103   3.560   8.353  0.4086 -0.0078  0.1904
   65SAPC  H17X 5399   2.092   3.458   8.309 -0.8681 -0.0236  0.4885
   65SAPC  H17Y 5400   2.036   3.625   8.293  1.1022  0.4045 -0.1491
   65SAPC  C318 5401   2.067   3.551   8.501 -0.1320  0.4333 -0.2029
   65SAPC  H18X 5402   2.128   3.474   8.553  0.5571  0.4961 -0.8877
   65SAPC  H18Y 5403   1.963   3.518   8.519 -0.3883  0.5770 -1.3418
   65SAPC  H18Z 5404   2.080   3.652   8.544  0.5991 -0.1717  1.0457
   66SAPC     N 5405   5.737   4.645   5.732  0.4295  0.8393  0.1648
   66SAPC   C12 5406   5.848   4.642   5.847  0.3226 -0.4220  0.0566
   66SAPC  H12A 5407   5.928   4.702   5.808 -1.4511  1.0548 -1.4621
   66SAPC  H12B 5408   5.889   4.541   5.847  1.9388  0.2018  0.0826
   66SAPC   C13 5409   5.796   4.621   5.606  0.6275  0.3898 -0.4665
   66SAPC  H13A 5410   5.863   4.697   5.569  1.4286  0.3923  0.9394
   66SAPC  H13B 5411   5.852   4.528   5.609 -0.0169  0.0078  1.6987
   66SAPC  H13C 5412   5.721   4.617   5.528  2.3016 -0.9557 -2.1055
   66SAPC   C14 5413   5.639   4.529   5.745  0.5249  0.2257 -0.8711
   66SAPC  H14A 5414   5.571   4.509   5.664  0.5083 -1.3270 -0.5073
   66SAPC  H14B 5415   5.700   4.441   5.753  1.2246  0.8478  1.7972
   66SAPC  H14C 5416   5.573   4.556   5.827  0.5066  2.5607 -1.5679
   66SAPC   C15 5417   5.650   4.765   5.737  0.5894 -0.1557  0.8929
   66SAPC  H15A 5418   5.585   4.766   5.823 -0.6746  0.3625 -0.0461
   66SAPC  H15B 5419   5.708   4.856   5.743  0.8122 -0.1955 -0.3758
   66SAPC  H15C 5420   5.588   4.764   5.649  2.2840 -0.1092 -0.3591
   66SAPC   C11 5421   5.813   4.683   5.989 -0.8667  0.1343 -0.9771
   66SAPC  H11A 5422   5.778   4.789   5.993  1.6149  0.9864  0.2776
   66SAPC  H11B 5423   5.908   4.677   6.047 -0.8538  0.6158 -0.9451
   66SAPC     P 5424   5.736   4.454   6.104 -0.0300 -0.0853 -0.3192
   66SAPC   O13 5425   5.609   4.387   6.095  0.6136 -0.1319  0.2721
   66SAPC   O14 5426   5.852   4.383   6.047 -0.3261  0.3899  0.6125
   66SAPC   O12 5427   5.719   4.598   6.041  0.3689  0.3097  0.0566
   66SAPC   O11 5428   5.773   4.500   6.248 -0.9463  0.2921 -0.1143
   66SAPC    C1 5429   5.691   4.508   6.362  0.3119 -0.0453  0.5438
   66SAPC    HA 5430   5.641   4.607   6.370  0.7165  0.1427  0.7671
   66SAPC    HB 5431   5.615   4.428   6.355 -1.3223  1.4465  0.5762
   66SAPC    C2 5432   5.775   4.482   6.483 -0.2888 -0.2828 -0.0421
   66SAPC    HS 5433   5.858   4.555   6.476 -0.1843 -0.1027  2.2740
   66SAPC   O21 5434   5.823   4.350   6.484  0.3552  0.9884 -0.5033
   66SAPC   C21 5435   5.948   4.329   6.516  0.0672 -0.1086  1.0926
   66SAPC   O22 5436   6.031   4.411   6.550  0.2624 -0.6621 -0.2432
   66SAPC   C22 5437   5.963   4.182   6.513  0.2892  0.6866  0.3410
   66SAPC   H2R 5438   5.998   4.156   6.410  4.6561  0.6955  1.6310
   66SAPC   H2S 5439   6.057   4.152   6.564  0.1260  0.2242  0.3669
   66SAPC    C3 5440   5.690   4.513   6.611  0.0550  0.5009  0.4817
   66SAPC    HX 5441   5.605   4.442   6.617 -0.4531  0.4267 -4.0597
   66SAPC    HY 5442   5.632   4.605   6.590 -0.8375 -0.5312 -1.9097
   66SAPC   O31 5443   5.763   4.498   6.739  0.3702 -0.3469 -0.0300
   66SAPC   C31 5444   5.822   4.606   6.781 -0.4404  0.1550  0.2937
   66SAPC   O32 5445   5.845   4.706   6.716 -0.1323  0.1481  0.7168
   66SAPC   C32 5446   5.858   4.587   6.931  0.0792 -0.0181  0.4155
   66SAPC   H2X 5447   5.866   4.478   6.950 -0.8135  0.3088  3.0098
   66SAPC   H2Y 5448   5.771   4.619   6.992 -0.6990  1.5386 -1.3976
   66SAPC   C23 5449   5.846   4.093   6.545  0.2125  1.0012 -0.2791
   66SAPC   H3R 5450   5.867   3.991   6.506  0.6672  0.6189  0.8918
   66SAPC   H3S 5451   5.744   4.121   6.512 -0.5017 -1.2831 -0.1760
   66SAPC   C24 5452   5.840   4.051   6.695  0.9897  0.6731  0.0771
   66SAPC   H4R 5453   5.745   3.997   6.717  0.6661  1.6818  1.2755
   66SAPC   H4S 5454   5.825   4.150   6.743  0.1219  1.1514 -1.1236
   66SAPC   C25 5455   5.953   3.976   6.743 -0.7259 -0.6861 -0.2185
   66SAPC   H5R 5456   5.985   3.885   6.690 -1.1467 -0.3947 -1.0004
   66SAPC   C26 5457   6.021   4.032   6.852  0.0383 -0.0847  0.0665
   66SAPC   H6R 5458   6.111   3.979   6.886  1.5171  2.4230  0.2694
   66SAPC   C27 5459   6.001   4.159   6.937  0.1120  0.1356 -0.0403
   66SAPC   H7R 5460   5.925   4.130   7.012 -0.7440  1.6250 -0.3095
   66SAPC   H7S 5461   5.975   4.244   6.870  1.8316 -2.5194 -4.5140
   66SAPC   C28 5462   6.129   4.200   7.003 -0.1735  1.0462  0.2299
   66SAPC   H8R 5463   6.214   4.221   6.937  2.5221 -1.4538  2.6238
   66SAPC   C29 5464   6.147   4.185   7.131 -0.2964  0.1803 -0.4962
   66SAPC   H9R 5465   6.250   4.204   7.165 -0.3338 -0.8207  0.2189
   66SAPC  C210 5466   6.063   4.131   7.240  0.0332 -1.2330  0.2839
   66SAPC  H10R 5467   5.954   4.146   7.219  0.1125 -1.4747 -0.3333
   66SAPC  H10S 5468   6.096   4.192   7.325 -0.8815  1.0711 -0.9281
   66SAPC  C211 5469   6.083   3.988   7.270 -0.1100  0.9382 -0.0668
   66SAPC  H11R 5470   6.087   3.921   7.183 -1.3113  0.9402 -0.1476
   66SAPC  C212 5471   6.059   3.926   7.389 -0.8588  0.0801 -0.4130
   66SAPC  H12R 5472   6.096   3.824   7.404 -4.0810 -1.0284  1.0390
   66SAPC  C213 5473   6.039   4.002   7.516  0.4507  0.4278  0.1027
   66SAPC  H13R 5474   5.935   4.039   7.523 -0.1252 -1.4162  3.7768
   66SAPC  H13S 5475   6.105   4.091   7.527 -0.7243  1.0604  2.6583
   66SAPC  C214 5476   6.064   3.924   7.644 -0.5820 -0.0951 -0.8877
   66SAPC  H14R 5477   5.993   3.840   7.655 -0.7932 -0.0201 -1.5772
   66SAPC  C215 5478   6.172   3.938   7.729 -0.0867  0.2557 -0.7483
   66SAPC  H15R 5479   6.171   3.868   7.814 -0.1587 -0.1760 -1.1018
   66SAPC  C216 5480   6.296   4.024   7.720 -0.6950 -0.0164 -0.0158
   66SAPC  H16R 5481   6.274   4.103   7.795 -0.9537  0.7575 -0.8855
   66SAPC  H16S 5482   6.313   4.067   7.619  2.8415 -2.1495 -0.5292
   66SAPC  C217 5483   6.426   3.951   7.759 -0.3186 -0.1146  0.6583
   66SAPC  H17R 5484   6.508   4.025   7.765  0.4653 -0.7230 -1.5527
   66SAPC  H17S 5485   6.453   3.893   7.668 -1.0094  1.0414 -0.3060
   66SAPC  C218 5486   6.419   3.849   7.875 -0.0460 -0.3779 -0.3055
   66SAPC  H18R 5487   6.359   3.763   7.840 -0.9124  0.1585 -0.1794
   66SAPC  H18S 5488   6.373   3.913   7.954  0.0229 -0.6480 -0.0446
   66SAPC  C219 5489   6.562   3.827   7.934  0.3228  0.3863 -0.5787
   66SAPC  H19R 5490   6.604   3.927   7.959  0.7476 -0.3454  1.8826
   66SAPC  H19S 5491   6.639   3.776   7.872  3.5083  1.0631  2.4992
   66SAPC  C220 5492   6.558   3.744   8.057 -0.8895  0.4491  0.5495
   66SAPC  H20R 5493   6.659   3.729   8.100 -0.5399  0.1384 -0.3534
   66SAPC  H20S 5494   6.521   3.643   8.029  1.6366 -0.4532  0.2671
   66SAPC  H20T 5495   6.492   3.791   8.133 -0.7901  0.4135  0.6569
   66SAPC   C33 5496   5.995   4.649   6.965 -0.4162  0.5853  0.5893
   66SAPC   H3X 5497   5.986   4.758   6.947 -2.2924 -0.0141 -3.2577
   66SAPC   H3Y 5498   6.073   4.625   6.890  0.0316  1.3754  0.7917
   66SAPC   C34 5499   6.060   4.601   7.101 -0.6277 -0.7773  0.0939
   66SAPC   H4X 5500   6.149   4.663   7.126 -1.4011 -0.3013  1.8438
   66SAPC   H4Y 5501   6.097   4.499   7.075 -1.9170 -0.8898 -1.5076
   66SAPC   C35 5502   5.959   4.600   7.216  0.0404  0.4798 -0.6626
   66SAPC   H5X 5503   5.886   4.517   7.215  1.2623 -0.6651  0.9747
   66SAPC   H5Y 5504   5.890   4.688   7.221  0.2255  0.5668  0.6565
   66SAPC   C36 5505   6.024   4.597   7.353  0.0876 -0.4872  0.1732
   66SAPC   H6X 5506   6.107   4.671   7.362 -0.0236 -0.3194 -0.1695
   66SAPC   H6Y 5507   6.052   4.490   7.356  1.6993 -0.0853  0.1570
   66SAPC   C37 5508   5.943   4.619   7.482  0.3592  0.0165 -0.2474
   66SAPC   H7X 5509   5.856   4.551   7.494 -0.4342  0.6935 -1.8858
   66SAPC   H7Y 5510   5.896   4.719   7.462  0.1706 -0.0696 -0.2404
   66SAPC   C38 5511   6.024   4.641   7.605 -0.0182  0.5860  0.2642
   66SAPC   H8X 5512   6.107   4.710   7.579  1.1740 -0.0479  2.2168
   66SAPC   H8Y 5513   6.073   4.545   7.631 -0.5600  0.0811 -0.5226
   66SAPC   C39 5514   5.949   4.707   7.718  0.8529 -0.8118 -0.7081
   66SAPC   H9X 5515   5.857   4.651   7.746 -0.2042  2.1191  2.3867
   66SAPC   H9Y 5516   5.912   4.806   7.684  0.3196 -1.0141 -0.7171
   66SAPC  C310 5517   6.044   4.727   7.837  0.2840 -0.1009  0.1709
   66SAPC  H10X 5518   6.139   4.782   7.816  0.1932 -0.9926 -3.2516
   66SAPC  H10Y 5519   6.078   4.629   7.876  4.4006  0.3352 -1.7578
   66SAPC  C311 5520   5.969   4.789   7.958 -0.3251 -0.7337  0.1626
   66SAPC  H11X 5521   5.860   4.777   7.941 -0.4582 -1.1320  1.2152
   66SAPC  H11Y 5522   5.990   4.898   7.969  3.4596 -1.5165  2.4260
   66SAPC  C312 5523   6.031   4.723   8.083  0.1662  0.1585 -0.3919
   66SAPC  H12X 5524   6.141   4.706   8.079  0.3671  1.1528  0.3819
   66SAPC  H12Y 5525   6.012   4.614   8.084 -1.0562  0.3261 -1.7516
   66SAPC  C313 5526   6.012   4.796   8.219  0.1296 -0.3578 -0.2980
   66SAPC  H13X 5527   5.905   4.786   8.249 -0.3026 -1.6898 -2.1595
   66SAPC  H13Y 5528   6.023   4.907   8.215  0.9624 -0.4436 -0.5282
   66SAPC  C314 5529   6.111   4.751   8.328  0.1960  0.9857 -0.2135
   66SAPC  H14X 5530   6.099   4.791   8.431 -0.4429  0.7036 -0.1753
   66SAPC  H14Y 5531   6.212   4.788   8.300  0.9118 -0.4083  0.4597
   66SAPC  C315 5532   6.117   4.596   8.338  0.3662  0.0960 -0.7269
   66SAPC  H15X 5533   6.203   4.559   8.398  1.0096 -0.5268 -2.0007
   66SAPC  H15Y 5534   6.145   4.556   8.238  1.3322  0.2891 -0.5410
   66SAPC  C316 5535   5.989   4.537   8.399 -0.1146 -0.5183 -0.6016
   66SAPC  H16X 5536   5.903   4.593   8.356 -0.2618 -0.2004  0.0867
   66SAPC  H16Y 5537   5.993   4.563   8.507  1.2072  1.0614 -0.9904
   66SAPC  C317 5538   5.955   4.390   8.370 -0.9309 -0.2066 -0.5152
   66SAPC  H17X 5539   5.959   4.385   8.259 -0.0675 -0.1724 -0.4913
   66SAPC  H17Y 5540   5.851   4.361   8.399 -0.7884  0.1188  0.3240
   66SAPC  C318 5541   6.053   4.293   8.426 -0.2185  0.0411  0.1706
   66SAPC  H18X 5542   6.105   4.325   8.518 -2.8469  1.0303  1.4201
   66SAPC  H18Y 5543   6.134   4.266   8.355 -1.5031 -2.2287 -0.5338
   66SAPC  H18Z 5544   5.998   4.200   8.452 -0.1754  0.1161  0.5265
   67SAPC     N 5545   1.516   4.801   6.395  0.2041 -0.7537  0.1714
   67SAPC   C12 5546   1.507   4.652   6.415 -0.7121 -0.2868  0.5682
   67SAPC  H12A 5547   1.602   4.602   6.414  0.3517  1.5868 -1.4561
   67SAPC  H12B 5548   1.463   4.613   6.325  2.7635 -2.2880 -0.4295
   67SAPC   C13 5549   1.576   4.843   6.264 -0.1133 -0.4020 -0.3286
   67SAPC  H13A 5550   1.516   4.811   6.180 -0.0877 -1.0889 -0.0918
   67SAPC  H13B 5551   1.574   4.951   6.254  1.5488 -0.0619  2.1118
   67SAPC  H13C 5552   1.680   4.816   6.258  0.0386 -1.2238  3.2825
   67SAPC   C14 5553   1.375   4.862   6.392  0.1174 -0.8873  0.3412
   67SAPC  H14A 5554   1.377   4.966   6.363 -0.0705 -0.8130  0.5925
   67SAPC  H14B 5555   1.326   4.819   6.305  2.3881 -0.0613 -1.4575
   67SAPC  H14C 5556   1.319   4.842   6.482  0.0447 -1.3867  0.1849
   67SAPC   C15 5557   1.584   4.869   6.504  0.0154  0.4608  0.2443
   67SAPC  H15A 5558   1.542   4.851   6.601  1.0529  0.8392  0.7752
   67SAPC  H15B 5559   1.683   4.827   6.497 -1.3520 -2.9349 -0.7410
   67SAPC  H15C 5560   1.592   4.974   6.482  1.8292  0.3229  0.0710
   67SAPC   C11 5561   1.426   4.610   6.538 -0.5727  0.0190  0.4481
   67SAPC  H11A 5562   1.330   4.665   6.549 -1.3202 -1.3731  1.2653
   67SAPC  H11B 5563   1.492   4.641   6.621  0.7540 -0.0480 -0.5469
   67SAPC     P 5564   1.321   4.386   6.450 -0.1987  0.0532 -0.0689
   67SAPC   O13 5565   1.183   4.423   6.471  0.7228  0.2366 -0.4224
   67SAPC   O14 5566   1.373   4.403   6.315  0.6262 -0.6534 -0.0193
   67SAPC   O12 5567   1.411   4.467   6.552 -0.3064  0.1991 -0.1927
   67SAPC   O11 5568   1.336   4.229   6.483  0.3869 -0.0992  0.7634
   67SAPC    C1 5569   1.464   4.167   6.485  0.1103  0.2217  0.8863
   67SAPC    HA 5570   1.538   4.234   6.436  1.5941 -1.7200  0.3565
   67SAPC    HB 5571   1.490   4.157   6.593 -0.3538  2.1599  1.2172
   67SAPC    C2 5572   1.473   4.024   6.414 -0.1498  0.2619 -0.0742
   67SAPC    HS 5573   1.434   4.035   6.310  1.4424 -0.5933 -0.7945
   67SAPC   O21 5574   1.388   3.937   6.488 -0.1486  0.5464 -0.0331
   67SAPC   C21 5575   1.256   3.940   6.449  0.4995  0.1082 -0.0055
   67SAPC   O22 5576   1.206   3.985   6.349  0.2347  0.4673 -0.2926
   67SAPC   C22 5577   1.175   3.864   6.545 -0.2589 -0.7123 -0.8597
   67SAPC   H2R 5578   1.087   3.815   6.500 -1.6008  0.0338  0.8277
   67SAPC   H2S 5579   1.242   3.785   6.586  0.2354  1.1117  2.1997
   67SAPC    C3 5580   1.617   3.973   6.418  0.1015  0.2433 -0.5312
   67SAPC    HX 5581   1.678   4.051   6.370 -0.8078 -0.1250 -2.3851
   67SAPC    HY 5582   1.635   3.877   6.365  2.1127  0.3275 -0.0843
   67SAPC   O31 5583   1.657   3.950   6.553  0.1372 -0.3839  0.7974
   67SAPC   C31 5584   1.786   3.929   6.565 -0.2478  0.1041 -0.6956
   67SAPC   O32 5585   1.868   3.902   6.481 -0.0122  0.0101  0.0878
   67SAPC   C32 5586   1.825   3.944   6.713  0.4515  0.1758  0.5794
   67SAPC   H2X 5587   1.763   3.863   6.759 -1.3629  1.4354  0.4658
   67SAPC   H2Y 5588   1.782   4.042   6.741 -1.6312 -0.4066 -0.3418
   67SAPC   C23 5589   1.115   3.955   6.653 -0.6972  0.0921 -0.5517
   67SAPC   H3R 5590   1.023   3.908   6.695 -2.3157  1.7697 -2.0286
   67SAPC   H3S 5591   1.063   4.036   6.598  0.3981  0.3578 -1.2169
   67SAPC   C24 5592   1.209   4.019   6.757 -0.6184  0.2261  0.2392
   67SAPC   H4R 5593   1.151   4.080   6.829  0.6543  0.7446  0.8688
   67SAPC   H4S 5594   1.270   4.091   6.699 -2.8458  0.8203 -1.5097
   67SAPC   C25 5595   1.311   3.921   6.815  0.6714  0.3757 -0.0817
   67SAPC   H5R 5596   1.407   3.912   6.763  2.2866 -2.1967  3.0470
   67SAPC   C26 5597   1.299   3.855   6.930 -0.0300 -0.3362 -0.1019
   67SAPC   H6R 5598   1.378   3.782   6.955 -0.2024 -0.2090  0.8492
   67SAPC   C27 5599   1.178   3.872   7.024  0.3341 -0.2356  0.2513
   67SAPC   H7R 5600   1.179   3.781   7.088  0.7021  1.2498  2.4347
   67SAPC   H7S 5601   1.087   3.879   6.960 -0.1399 -0.4588  0.8923
   67SAPC   C28 5602   1.212   3.993   7.109  0.8454  0.0596  0.0726
   67SAPC   H8R 5603   1.195   4.089   7.058  1.4736 -0.4932 -1.2463
   67SAPC   C29 5604   1.258   3.993   7.234  1.1055 -0.2631  0.0018
   67SAPC   H9R 5605   1.284   4.093   7.273 -0.6349  0.7967 -1.4257
   67SAPC  C210 5606   1.280   3.869   7.320  0.1154  0.1208  0.3484
   67SAPC  H10R 5607   1.253   3.773   7.270  0.7024 -0.5854  1.3328
   67SAPC  H10S 5608   1.197   3.885   7.392 -0.4190 -1.1604  0.0575
   67SAPC  C211 5609   1.426   3.859   7.370  0.2564  0.0864  0.4270
   67SAPC  H11R 5610   1.510   3.845   7.300 -0.1711  2.7938 -0.7581
   67SAPC  C212 5611   1.464   3.895   7.497 -0.0579  0.2046  0.5193
   67SAPC  H12R 5612   1.572   3.897   7.519  0.4472  0.5377 -1.6817
   67SAPC  C213 5613   1.377   3.936   7.616 -0.5365 -0.2986 -0.0358
   67SAPC  H13R 5614   1.392   3.857   7.692  0.4910  0.5837  0.7138
   67SAPC  H13S 5615   1.268   3.934   7.595 -0.5134  2.6903 -0.8898
   67SAPC  C214 5616   1.399   4.080   7.664  0.4058 -0.1953  0.3253
   67SAPC  H14R 5617   1.379   4.143   7.576 -0.6918 -4.1378 -2.5219
   67SAPC  C215 5618   1.464   4.115   7.781  0.3771 -0.4177  0.3135
   67SAPC  H15R 5619   1.451   4.222   7.801 -0.1118 -0.6153  1.0940
   67SAPC  C216 5620   1.521   4.033   7.894 -0.6151  0.5437  0.2108
   67SAPC  H16R 5621   1.631   4.044   7.877 -0.7425  0.5259 -0.6552
   67SAPC  H16S 5622   1.490   3.927   7.892 -1.2428  0.7092 -2.0983
   67SAPC  C217 5623   1.488   4.089   8.027 -0.0401  0.4091 -0.0028
   67SAPC  H17R 5624   1.379   4.086   8.046 -0.5780  1.2573 -2.4875
   67SAPC  H17S 5625   1.521   4.195   8.037 -1.8258  0.8774  1.5307
   67SAPC  C218 5626   1.554   4.000   8.136  1.0434 -0.4749  0.1298
   67SAPC  H18R 5627   1.564   3.898   8.093  2.9928 -0.5654  0.7346
   67SAPC  H18S 5628   1.492   3.989   8.227 -0.2458 -0.1083 -0.6698
   67SAPC  C219 5629   1.701   4.035   8.178  0.2091  0.6805  0.1458
   67SAPC  H19R 5630   1.753   4.051   8.081  2.2824 -4.1411  0.1666
   67SAPC  H19S 5631   1.751   3.945   8.220 -2.3006  0.1639  2.2495
   67SAPC  C220 5632   1.722   4.144   8.274 -0.5302  0.1123  0.0632
   67SAPC  H20R 5633   1.825   4.133   8.315 -0.9223 -1.4287  0.6981
   67SAPC  H20S 5634   1.648   4.121   8.353 -0.1705 -0.9396  0.1077
   67SAPC  H20T 5635   1.701   4.246   8.235 -0.8771 -0.5325 -1.5179
   67SAPC   C33 5636   1.976   3.941   6.734 -0.2207  0.5157 -0.1374
   67SAPC   H3X 5637   2.031   3.995   6.654  1.1277  0.2040  0.5422
   67SAPC   H3Y 5638   2.009   3.836   6.724  3.2954  1.5655 -1.1616
   67SAPC   C34 5639   2.028   3.992   6.870 -0.0040 -0.2935 -0.4768
   67SAPC   H4X 5640   1.980   3.925   6.944  0.2165 -0.5558 -0.5714
   67SAPC   H4Y 5641   1.986   4.095   6.876 -1.0644 -0.5632 -2.5297
   67SAPC   C35 5642   2.184   4.007   6.883  0.0952 -0.9218 -0.8071
   67SAPC   H5X 5643   2.227   4.080   6.811 -0.5162  0.7181  0.4156
   67SAPC   H5Y 5644   2.227   3.910   6.849  4.8342 -0.2329  2.2929
   67SAPC   C36 5645   2.220   4.028   7.035  0.2099 -0.2007 -0.2317
   67SAPC   H6X 5646   2.327   4.051   7.017 -0.0158  1.6255  0.5963
   67SAPC   H6Y 5647   2.194   3.932   7.084  0.0742  0.1391  0.3689
   67SAPC   C37 5648   2.158   4.150   7.097  0.7301 -0.3176  0.4220
   67SAPC   H7X 5649   2.048   4.144   7.112  0.5367  1.5572  0.0330
   67SAPC   H7Y 5650   2.176   4.246   7.044 -0.4667  0.2224  0.9424
   67SAPC   C38 5651   2.216   4.183   7.235  0.0716  0.3449  0.1077
   67SAPC   H8X 5652   2.325   4.162   7.234  0.3238  1.3987  1.5439
   67SAPC   H8Y 5653   2.182   4.099   7.300  2.2305 -1.9640 -1.5353
   67SAPC   C39 5654   2.200   4.326   7.287  0.2055 -0.6804 -0.1417
   67SAPC   H9X 5655   2.090   4.338   7.286  0.2065 -0.5855  0.5107
   67SAPC   H9Y 5656   2.252   4.383   7.207  1.3822 -0.4420  0.7523
   67SAPC  C310 5657   2.276   4.366   7.425  0.2528  0.3740  1.1372
   67SAPC  H10X 5658   2.293   4.476   7.429  2.6780  0.1507 -0.7609
   67SAPC  H10Y 5659   2.375   4.316   7.416  0.3807  0.9223 -0.8300
   67SAPC  C311 5660   2.208   4.300   7.547  1.0806 -0.0081  0.0249
   67SAPC  H11X 5661   2.181   4.201   7.504  1.8642  0.1171 -0.7724
   67SAPC  H11Y 5662   2.115   4.361   7.550  1.4698  0.5347  2.2101
   67SAPC  C312 5663   2.281   4.287   7.678 -0.5905  0.0548 -0.5567
   67SAPC  H12X 5664   2.302   4.387   7.722  0.0415 -0.7432  1.0289
   67SAPC  H12Y 5665   2.385   4.251   7.661 -0.6156  0.5462 -1.8693
   67SAPC  C313 5666   2.195   4.224   7.788 -0.5776  0.5864  1.2256
   67SAPC  H13X 5667   2.174   4.119   7.759  2.1692  0.0251  0.9692
   67SAPC  H13Y 5668   2.104   4.286   7.801 -1.3703 -0.5516  1.1988
   67SAPC  C314 5669   2.266   4.213   7.922  0.7261 -0.4976 -0.1251
   67SAPC  H14X 5670   2.287   4.316   7.958  1.2144  0.5147 -3.0664
   67SAPC  H14Y 5671   2.362   4.159   7.908  0.3313 -1.3974  0.5835
   67SAPC  C315 5672   2.195   4.141   8.031  0.4434 -0.0563  0.2484
   67SAPC  H15X 5673   2.250   4.149   8.127 -1.3921  1.7604  1.2324
   67SAPC  H15Y 5674   2.180   4.034   8.006  0.1295 -0.1833  0.9505
   67SAPC  C316 5675   2.053   4.185   8.063 -0.2807 -0.7031 -0.5311
   67SAPC  H16X 5676   2.026   4.121   8.150  0.2127 -0.9268 -0.5397
   67SAPC  H16Y 5677   1.984   4.167   7.977 -1.0653 -1.1250  0.1682
   67SAPC  C317 5678   2.044   4.335   8.098 -0.0979 -0.1871  0.4817
   67SAPC  H17X 5679   1.941   4.374   8.111 -0.9450 -2.4456  1.0367
   67SAPC  H17Y 5680   2.083   4.395   8.013  0.3081  0.2634  0.9801
   67SAPC  C318 5681   2.121   4.381   8.220  0.6597 -0.1109 -0.2530
   67SAPC  H18X 5682   2.109   4.487   8.250 -0.5189  0.3214 -2.0597
   67SAPC  H18Y 5683   2.230   4.365   8.205  0.5453 -0.1111 -1.2028
   67SAPC  H18Z 5684   2.095   4.309   8.300 -1.7841 -0.8621 -1.5988
   68SAPC     N 5685   0.009   3.400   5.869 -0.3093  0.9424 -0.0995
   68SAPC   C12 5686  -0.131   3.433   5.845  0.4504 -1.1343  0.1442
   68SAPC  H12A 5687  -0.192   3.356   5.799 -0.3481  0.0118 -0.7740
   68SAPC  H12B 5688  -0.145   3.513   5.775 -0.1417 -0.3567  1.1160
   68SAPC   C13 5689   0.077   3.355   5.743  0.1609  0.0987 -0.0253
   68SAPC  H13A 5690   0.018   3.276   5.699 -1.7603  0.7974  1.1292
   68SAPC  H13B 5691   0.095   3.427   5.664 -1.6202 -1.7019 -2.2047
   68SAPC  H13C 5692   0.166   3.299   5.766  0.0348  0.0949  0.4811
   68SAPC   C14 5693   0.100   3.505   5.927  0.3007  0.0092  0.0038
   68SAPC  H14A 5694   0.204   3.474   5.921  0.0380 -0.8389 -0.2522
   68SAPC  H14B 5695   0.084   3.598   5.874 -2.9292 -0.6731 -0.4176
   68SAPC  H14C 5696   0.081   3.529   6.031  1.0351 -1.2302  0.4504
   68SAPC   C15 5697   0.013   3.279   5.970 -0.7020  0.1794  0.3091
   68SAPC  H15A 5698   0.098   3.272   6.036 -1.3483  0.0777  1.1509
   68SAPC  H15B 5699  -0.070   3.283   6.039  0.7993 -1.3510  2.3186
   68SAPC  H15C 5700   0.008   3.187   5.913  0.7317  0.4608 -0.3274
   68SAPC   C11 5701  -0.210   3.483   5.971 -0.4160  0.4729 -0.0470
   68SAPC  H11A 5702  -0.313   3.502   5.933 -1.0041 -3.0729 -0.5352
   68SAPC  H11B 5703  -0.178   3.583   6.009 -1.0798  0.7421 -0.1795
   68SAPC     P 5704  -0.261   3.429   6.214  0.4324 -0.0000  0.3351
   68SAPC   O13 5705  -0.346   3.330   6.276  0.1335 -0.1440 -0.1216
   68SAPC   O14 5706  -0.136   3.447   6.284  0.0977  0.1008 -0.2483
   68SAPC   O12 5707  -0.242   3.387   6.069 -0.2895 -0.2913 -0.6381
   68SAPC   O11 5708  -0.329   3.571   6.213  0.2472 -0.1683  0.6542
   68SAPC    C1 5709  -0.449   3.599   6.279  0.2863 -0.0396 -0.9054
   68SAPC    HA 5710  -0.526   3.654   6.220  0.1530  0.5163 -0.2296
   68SAPC    HB 5711  -0.500   3.505   6.311  0.8964 -0.2073 -0.4128
   68SAPC    C2 5712  -0.414   3.672   6.410 -0.4836  0.0299  0.3770
   68SAPC    HS 5713  -0.337   3.749   6.386 -1.1586  0.4688 -0.4864
   68SAPC   O21 5714  -0.378   3.570   6.507  0.7038 -0.3031  0.4207
   68SAPC   C21 5715  -0.301   3.610   6.607 -0.4815  0.3865  0.4543
   68SAPC   O22 5716  -0.235   3.711   6.603  0.3013 -0.6147  0.2198
   68SAPC   C22 5717  -0.311   3.520   6.726  0.3077  0.0279  0.1663
   68SAPC   H2R 5718  -0.308   3.414   6.691 -0.7702 -0.5182  1.6333
   68SAPC   H2S 5719  -0.225   3.540   6.793 -1.3108  1.0635  2.0207
   68SAPC    C3 5720  -0.538   3.754   6.456 -0.1161  0.3801 -0.2344
   68SAPC    HX 5721  -0.597   3.678   6.513  0.1188  2.7537  3.4987
   68SAPC    HY 5722  -0.603   3.791   6.374  0.1524  0.2518 -0.5030
   68SAPC   O31 5723  -0.504   3.861   6.549  0.7565  0.8713 -0.0874
   68SAPC   C31 5724  -0.459   3.975   6.493 -0.4259 -0.0109  0.1490
   68SAPC   O32 5725  -0.470   4.002   6.377 -0.2469  0.6387 -0.1785
   68SAPC   C32 5726  -0.406   4.061   6.611 -0.0168 -0.1409  0.3639
   68SAPC   H2X 5727  -0.487   4.069   6.686  0.5323 -1.4444  1.1225
   68SAPC   H2Y 5728  -0.388   4.160   6.563 -1.4025  0.6130  1.3378
   68SAPC   C23 5729  -0.448   3.534   6.801  0.3665 -0.4968 -0.6959
   68SAPC   H3R 5730  -0.456   3.450   6.873  2.2405  0.1448  0.3291
   68SAPC   H3S 5731  -0.529   3.533   6.725 -0.4311  0.9553  0.1070
   68SAPC   C24 5732  -0.446   3.673   6.893 -0.6805  0.4666  0.0440
   68SAPC   H4R 5733  -0.435   3.751   6.814 -2.2513  1.5970  0.8920
   68SAPC   H4S 5734  -0.355   3.678   6.957 -0.7053 -2.0558  0.3583
   68SAPC   C25 5735  -0.565   3.706   6.985 -0.1610 -0.2984 -0.6929
   68SAPC   H5R 5736  -0.629   3.791   6.958 -1.0298 -1.2280 -1.6479
   68SAPC   C26 5737  -0.599   3.641   7.097 -0.2306 -0.9903 -0.8573
   68SAPC   H6R 5738  -0.684   3.681   7.154  0.8561 -3.0809  2.5447
   68SAPC   C27 5739  -0.526   3.524   7.155 -1.1107  0.2121  0.0469
   68SAPC   H7R 5740  -0.417   3.545   7.149 -0.6315 -2.4223 -2.9223
   68SAPC   H7S 5741  -0.545   3.435   7.092 -0.4548  1.2286 -1.6640
   68SAPC   C28 5742  -0.565   3.502   7.303  0.2807  0.3190  0.5664
   68SAPC   H8R 5743  -0.658   3.446   7.320 -0.3739  0.8932 -0.9464
   68SAPC   C29 5744  -0.492   3.538   7.411  0.1668  0.1102  0.2366
   68SAPC   H9R 5745  -0.531   3.523   7.513  0.7667 -1.6701  0.2444
   68SAPC  C210 5746  -0.357   3.603   7.405 -0.3693 -0.1808  0.2984
   68SAPC  H10R 5747  -0.355   3.691   7.337 -0.7340  0.7030  1.3978
   68SAPC  H10S 5748  -0.286   3.527   7.367 -0.8217 -0.5317  0.1425
   68SAPC  C211 5749  -0.302   3.658   7.533 -0.7015 -0.0344  1.3437
   68SAPC  H11R 5750  -0.382   3.715   7.583 -1.4171  0.5741 -0.4159
   68SAPC  C212 5751  -0.191   3.629   7.607 -0.0382 -0.4802 -0.1263
   68SAPC  H12R 5752  -0.171   3.692   7.695 -0.5529 -1.4514  0.7065
   68SAPC  C213 5753  -0.094   3.529   7.570 -0.6791  0.0690 -0.4857
   68SAPC  H13R 5754  -0.127   3.468   7.483 -1.8285  1.0085 -0.7300
   68SAPC  H13S 5755  -0.087   3.462   7.659 -1.2948 -1.0193 -1.2201
   68SAPC  C214 5756   0.032   3.602   7.543  0.6324  0.0303 -0.2190
   68SAPC  H14R 5757   0.032   3.649   7.444 -0.1130 -2.5663 -1.5637
   68SAPC  C215 5758   0.135   3.607   7.635  0.7268 -0.5251 -0.3304
   68SAPC  H15R 5759   0.225   3.660   7.599  0.8907 -1.6669 -1.6980
   68SAPC  C216 5760   0.142   3.543   7.771 -0.1126 -0.1357 -0.8979
   68SAPC  H16R 5761   0.188   3.442   7.761 -1.3802 -0.8985  0.5601
   68SAPC  H16S 5762   0.043   3.514   7.812  0.3879 -1.4343 -0.5534
   68SAPC  C217 5763   0.204   3.631   7.881 -0.4221 -0.0755 -0.4003
   68SAPC  H17R 5764   0.162   3.734   7.883  1.7572  0.8609  0.4342
   68SAPC  H17S 5765   0.311   3.647   7.855 -0.5071  1.0165 -0.1327
   68SAPC  C218 5766   0.191   3.586   8.027 -0.2387  0.3261  0.1161
   68SAPC  H18R 5767   0.082   3.574   8.046 -0.4491 -1.3195 -1.7458
   68SAPC  H18S 5768   0.232   3.663   8.095  0.6126 -0.5333  0.6027
   68SAPC  C219 5769   0.255   3.451   8.062  0.4247  0.3391  0.5955
   68SAPC  H19R 5770   0.348   3.436   8.005  0.0079  1.7174 -0.5140
   68SAPC  H19S 5771   0.184   3.373   8.028  2.6199 -0.7155 -1.9535
   68SAPC  C220 5772   0.268   3.427   8.213  0.0441  0.8170 -0.1724
   68SAPC  H20R 5773   0.297   3.321   8.226 -1.6105  0.2050 -1.1199
   68SAPC  H20S 5774   0.171   3.447   8.263 -0.5117  0.3809 -1.0393
   68SAPC  H20T 5775   0.350   3.488   8.256 -0.6507  1.5019  0.2006
   68SAPC   C33 5776  -0.277   4.020   6.676 -0.6433  0.1086  0.2167
   68SAPC   H3X 5777  -0.191   4.014   6.606  0.6812  0.6693  1.7176
   68SAPC   H3Y 5778  -0.287   3.918   6.719  2.6867 -0.6464 -0.5161
   68SAPC   C34 5779  -0.246   4.122   6.789 -0.2707 -0.0010  0.4414
   68SAPC   H4X 5780  -0.318   4.103   6.872 -1.7746  1.7853 -0.3813
   68SAPC   H4Y 5781  -0.262   4.229   6.764 -0.8092  0.4335  2.4319
   68SAPC   C35 5782  -0.112   4.095   6.847 -0.2794  0.3638 -0.4387
   68SAPC   H5X 5783  -0.108   4.170   6.928  2.1458 -0.3876  0.2306
   68SAPC   H5Y 5784  -0.024   4.110   6.780  0.2253  1.8717  0.5177
   68SAPC   C36 5785  -0.089   3.955   6.907 -0.2394 -0.3939  0.1367
   68SAPC   H6X 5786   0.017   3.932   6.929  0.9744  0.2357 -4.1821
   68SAPC   H6Y 5787  -0.115   3.875   6.834  1.7801  0.0643 -1.1624
   68SAPC   C37 5788  -0.160   3.938   7.049  0.8452  0.2667 -0.2278
   68SAPC   H7X 5789  -0.193   3.832   7.050 -0.8878  0.6588  3.8696
   68SAPC   H7Y 5790  -0.243   4.012   7.057  1.6996  1.4151 -1.4843
   68SAPC   C38 5791  -0.075   3.962   7.174  0.2110  0.2051  0.4388
   68SAPC   H8X 5792  -0.049   4.070   7.173 -0.3641  0.3728  1.6790
   68SAPC   H8Y 5793   0.013   3.896   7.165 -1.5011 -1.9545 -2.0740
   68SAPC   C39 5794  -0.158   3.944   7.304 -0.2016 -0.6585  0.1621
   68SAPC   H9X 5795  -0.225   3.858   7.286 -1.6420  0.6091 -0.7469
   68SAPC   H9Y 5796  -0.240   4.018   7.294 -1.3313 -1.8451  0.4738
   68SAPC  C310 5797  -0.070   3.944   7.436  0.0869  0.1616  0.0630
   68SAPC  H10X 5798  -0.002   3.857   7.447 -0.9499 -0.5415  1.1867
   68SAPC  H10Y 5799  -0.126   3.940   7.532  2.7068 -0.3892  1.6401
   68SAPC  C311 5800   0.025   4.063   7.453  0.1138  0.4390 -0.4284
   68SAPC  H11X 5801  -0.045   4.146   7.430 -1.8246 -0.8087  0.6892
   68SAPC  H11Y 5802   0.104   4.058   7.375  2.5688 -2.1233  1.9831
   68SAPC  C312 5803   0.051   4.098   7.607 -0.6145 -0.1676 -0.3048
   68SAPC  H12X 5804  -0.043   4.123   7.660 -1.0169 -0.8657 -0.6726
   68SAPC  H12Y 5805   0.098   4.198   7.603  0.9092 -0.7056  2.3017
   68SAPC  C313 5806   0.134   3.989   7.674 -0.4304  0.0968  0.0560
   68SAPC  H13X 5807   0.212   3.987   7.595 -0.6431  1.0797 -0.1935
   68SAPC  H13Y 5808   0.076   3.895   7.679 -3.3865  1.6735 -1.5263
   68SAPC  C314 5809   0.214   4.029   7.804 -0.4930  0.4686  0.7448
   68SAPC  H14X 5810   0.282   4.109   7.770  0.0863  0.0611  0.9376
   68SAPC  H14Y 5811   0.283   3.946   7.830  0.5866  0.9047 -0.6234
   68SAPC  C315 5812   0.123   4.080   7.917 -0.2738 -0.2710 -0.4449
   68SAPC  H15X 5813   0.063   4.000   7.965 -1.6312  1.0093  0.0592
   68SAPC  H15Y 5814   0.048   4.151   7.876  0.5682 -0.0704 -1.7097
   68SAPC  C316 5815   0.210   4.137   8.029 -0.0464  0.4649 -0.4049
   68SAPC  H16X 5816   0.265   4.212   7.967  1.0481 -0.0073 -0.0283
   68SAPC  H16Y 5817   0.280   4.064   8.074 -0.8016 -0.6351 -0.9656
   68SAPC  C317 5818   0.136   4.212   8.143 -0.5985 -0.6226 -0.4838
   68SAPC  H17X 5819   0.068   4.147   8.202 -1.1104  1.8327  1.8282
   68SAPC  H17Y 5820   0.075   4.292   8.096  0.7755  0.5015 -0.4231
   68SAPC  C318 5821   0.219   4.278   8.253  0.0488 -0.3834 -0.4196
   68SAPC  H18X 5822   0.260   4.196   8.316 -1.3413 -0.6132  0.2281
   68SAPC  H18Y 5823   0.157   4.343   8.318 -0.1974 -0.9489 -0.0808
   68SAPC  H18Z 5824   0.301   4.337   8.207  1.0586 -1.8652 -0.5832
   69SLPC     N 5825   5.481   2.041  11.455  0.2069 -0.4620  0.6081
   69SLPC   C13 5826   5.477   2.140  11.567 -0.6254 -0.6606 -0.6280
   69SLPC  H13A 5827   5.565   2.202  11.554 -0.1806 -0.6595  1.8579
   69SLPC  H13B 5828   5.395   2.209  11.562  0.5867  0.9932  0.7890
   69SLPC  H13C 5829   5.480   2.087  11.662  0.1856  1.9221  0.8932
   69SLPC   C14 5830   5.360   1.948  11.490  0.7556  0.0563 -0.5235
   69SLPC  H14A 5831   5.365   1.911  11.592 -2.4978 -1.2988 -0.7496
   69SLPC  H14B 5832   5.267   2.003  11.489  0.2740 -0.5867 -4.0874
   69SLPC  H14C 5833   5.338   1.870  11.419 -2.9903 -1.3889  1.9382
   69SLPC   C15 5834   5.600   1.963  11.475 -1.3730  0.4231  0.7648
   69SLPC  H15A 5835   5.602   1.877  11.410 -2.3194  0.0066  1.2613
   69SLPC  H15B 5836   5.692   2.020  11.466 -0.5679 -1.2045 -2.8581
   69SLPC  H15C 5837   5.595   1.918  11.574 -1.9872 -0.5244  0.3178
   69SLPC   C12 5838   5.460   2.094  11.310 -1.0428 -0.3783 -0.1500
   69SLPC  H12A 5839   5.543   2.163  11.303 -0.2342 -1.3851 -0.7002
   69SLPC  H12B 5840   5.366   2.147  11.304 -1.8304 -1.9151 -2.5398
   69SLPC   C11 5841   5.462   2.003  11.182 -0.4403  0.0119 -0.7889
   69SLPC  H11A 5842   5.556   1.944  11.177  0.3208  0.7993  2.3637
   69SLPC  H11B 5843   5.452   2.066  11.091 -1.4075 -0.4603 -1.0306
   69SLPC     P 5844   5.219   1.935  11.113 -0.2119  0.2132 -0.1733
   69SLPC   O13 5845   5.138   1.811  11.125 -0.4209 -0.2356 -0.2892
   69SLPC   O14 5846   5.168   2.063  11.174 -0.4313  0.3611  0.4558
   69SLPC   O12 5847   5.360   1.901  11.174  0.0490 -0.1849  0.4835
   69SLPC   O11 5848   5.235   1.956  10.956  0.9878  0.2225 -0.5887
   69SLPC    C1 5849   5.321   1.883  10.875  0.1399 -0.0728 -0.0118
   69SLPC    HA 5850   5.421   1.928  10.890 -0.8936  3.3053 -2.0862
   69SLPC    HB 5851   5.313   1.775  10.900 -4.5818  0.2393  0.7924
   69SLPC    C2 5852   5.282   1.905  10.729  0.5497 -0.5774  0.5716
   69SLPC    HS 5853   5.285   2.015  10.712  0.4200 -0.6744 -0.1240
   69SLPC   O21 5854   5.152   1.850  10.693 -0.2256 -0.1801  0.3817
   69SLPC   C21 5855   5.050   1.937  10.691 -0.5577 -0.4300 -0.6915
   69SLPC   O22 5856   5.065   2.057  10.705 -0.0734  0.5625 -0.7130
   69SLPC   C22 5857   4.925   1.859  10.660  0.4281 -0.4070 -0.3407
   69SLPC   H2R 5858   4.936   1.753  10.690 -0.1599 -0.2343  0.5551
   69SLPC   H2S 5859   4.843   1.899  10.725 -1.0253 -0.9789 -1.7429
   69SLPC    C3 5860   5.394   1.837  10.642 -0.0775 -0.5989  0.8487
   69SLPC    HX 5861   5.402   1.729  10.667  0.1938 -0.4063  1.6031
   69SLPC    HY 5862   5.482   1.901  10.664 -0.1391  0.4846 -1.6382
   69SLPC   O31 5863   5.357   1.842  10.496  0.1394 -0.2053  0.8441
   69SLPC   C31 5864   5.379   1.958  10.439 -0.8825 -0.2616  0.4436
   69SLPC   O32 5865   5.442   2.049  10.497 -0.2088 -0.2979  0.3576
   69SLPC   C32 5866   5.332   1.947  10.291 -0.4470 -0.5170 -0.4047
   69SLPC   H2X 5867   5.324   2.049  10.247  1.3765 -0.6466 -1.1605
   69SLPC   H2Y 5868   5.232   1.900  10.287 -0.7515  0.1830 -1.7529
   69SLPC   C23 5869   4.860   1.883  10.519 -0.2778 -0.2477  0.0458
   69SLPC   H3R 5870   4.842   1.992  10.504 -0.5963 -0.4894 -1.5482
   69SLPC   H3S 5871   4.757   1.841  10.525 -0.5794  0.5609  0.8571
   69SLPC   C24 5872   4.940   1.822  10.401  0.2352  0.4212  0.3647
   69SLPC   H4R 5873   4.905   1.718  10.385 -0.0631  0.6972 -0.8790
   69SLPC   H4S 5874   5.049   1.822  10.424 -0.1414  1.0187  2.3366
   69SLPC   C25 5875   4.909   1.902  10.277 -0.7281 -0.2645 -0.5947
   69SLPC   H5R 5876   4.946   2.006  10.289  0.6001 -0.5804 -1.6674
   69SLPC   H5S 5877   4.799   1.905  10.266 -0.7433 -1.1871 -0.8297
   69SLPC   C26 5878   4.961   1.840  10.153 -0.0122  0.1425  0.5006
   69SLPC   H6R 5879   4.914   1.741  10.135 -0.2990  0.1829  1.0146
   69SLPC   H6S 5880   5.071   1.824  10.151  0.3529  2.3671 -1.7604
   69SLPC   C27 5881   4.929   1.932  10.043 -0.0455 -0.3747  0.1367
   69SLPC   H7R 5882   4.990   2.024  10.056 -1.2748  0.8600 -2.1283
   69SLPC   H7S 5883   4.819   1.946  10.040 -0.1134 -0.9008 -0.0950
   69SLPC   C28 5884   4.961   1.867   9.906  0.1254  0.1607 -0.2321
   69SLPC   H8R 5885   4.898   1.775   9.909  0.9081 -0.4038 -0.6804
   69SLPC   H8S 5886   5.070   1.843   9.901  0.0457 -0.4575  0.6887
   69SLPC   C29 5887   4.922   1.949   9.787  0.4230  0.7936 -0.3071
   69SLPC   H9R 5888   4.828   2.005   9.803  0.8138  1.2857  0.2973
   69SLPC  C210 5889   4.992   1.957   9.668 -0.5334 -0.5604 -0.3558
   69SLPC  H10R 5890   4.951   2.016   9.585 -0.1197 -0.8204 -0.7499
   69SLPC  C211 5891   5.128   1.900   9.627 -0.1707 -0.5223  0.0452
   69SLPC  H11R 5892   5.117   1.832   9.540 -3.5053  1.5545 -1.3678
   69SLPC  H11S 5893   5.183   1.855   9.713 -0.1477  0.9646  0.8517
   69SLPC  C212 5894   5.209   2.018   9.580  0.6011 -0.0931  0.1766
   69SLPC  H12R 5895   5.269   2.063   9.660 -0.3057 -0.4015  1.0576
   69SLPC  C213 5896   5.224   2.072   9.456 -1.0462 -0.2287 -0.5639
   69SLPC  H13R 5897   5.281   2.165   9.442  0.0948 -1.3245 -4.1239
   69SLPC  C214 5898   5.174   2.018   9.328  0.3091  0.0994  0.5179
   69SLPC  H14R 5899   5.181   1.908   9.315 -2.4931 -0.0370 -0.5436
   69SLPC  H14S 5900   5.234   2.059   9.243  0.9407 -1.9354 -0.0709
   69SLPC  C215 5901   5.033   2.060   9.268 -0.0013 -0.0607  0.1692
   69SLPC  H15R 5902   4.960   2.036   9.349  0.2500 -0.7132  0.2092
   69SLPC  H15S 5903   5.002   2.010   9.174 -1.5643  1.0421  0.0753
   69SLPC  C216 5904   5.021   2.213   9.236 -0.5338  0.5265 -0.6350
   69SLPC  H16R 5905   5.123   2.241   9.201  0.5552  1.3394  2.8489
   69SLPC  H16S 5906   5.010   2.283   9.321  0.3528 -0.9415  0.7513
   69SLPC  C217 5907   4.911   2.238   9.129 -0.2615  1.0024 -0.1605
   69SLPC  H17R 5908   4.886   2.345   9.118 -2.0775  0.6007 -0.3826
   69SLPC  H17S 5909   4.820   2.193   9.175  1.3809 -1.3222  1.0256
   69SLPC  C218 5910   4.950   2.172   8.994  1.4066  0.0075 -0.1473
   69SLPC  H18R 5911   5.055   2.187   8.961  1.2644  0.9136 -0.2019
   69SLPC  H18S 5912   4.872   2.205   8.923 -0.0546  0.2494  1.5242
   69SLPC  H18T 5913   4.935   2.062   9.002  1.3153 -0.0700 -1.2047
   69SLPC   C33 5914   5.429   1.858  10.208 -0.3952  0.1818 -0.1879
   69SLPC   H3X 5915   5.407   1.755  10.243  0.7904  0.3842  1.2636
   69SLPC   H3Y 5916   5.534   1.873  10.243 -0.6273 -0.5074  0.8532
   69SLPC   C34 5917   5.423   1.876  10.056 -0.5432 -0.3525 -0.3466
   69SLPC   H4X 5918   5.463   1.972  10.017 -0.1154  0.3913  1.7780
   69SLPC   H4Y 5919   5.316   1.877  10.028 -0.7773  2.2052  0.3909
   69SLPC   C35 5920   5.499   1.769   9.982  0.1568  0.2429  0.3722
   69SLPC   H5X 5921   5.465   1.669  10.016 -1.8435  1.6135  2.7448
   69SLPC   H5Y 5922   5.600   1.769  10.026  0.0442  0.1118  0.6300
   69SLPC   C36 5923   5.514   1.789   9.831 -0.6078  0.8596  0.0748
   69SLPC   H6X 5924   5.590   1.869   9.817  0.5725 -0.4462 -1.2835
   69SLPC   H6Y 5925   5.423   1.825   9.777 -1.9958 -0.4079  1.4666
   69SLPC   C37 5926   5.558   1.663   9.749 -0.1255 -0.0492 -0.1352
   69SLPC   H7X 5927   5.484   1.581   9.758 -1.3117  1.0370  0.3978
   69SLPC   H7Y 5928   5.654   1.625   9.789 -0.1516 -1.0762 -0.9944
   69SLPC   C38 5929   5.573   1.698   9.601  0.3315  0.5271  0.1734
   69SLPC   H8X 5930   5.655   1.772   9.588  0.4291  0.3216 -0.4160
   69SLPC   H8Y 5931   5.474   1.736   9.568  0.3698  1.6863  1.3539
   69SLPC   C39 5932   5.602   1.576   9.521  0.2351  0.3471 -0.1468
   69SLPC   H9X 5933   5.518   1.506   9.540  2.2134 -1.8556  1.0213
   69SLPC   H9Y 5934   5.691   1.514   9.544  0.1556  0.2665 -0.0620
   69SLPC  C310 5935   5.607   1.615   9.373 -0.0040  0.8689  0.8445
   69SLPC  H10X 5936   5.641   1.517   9.336 -1.7546 -0.3379  2.2576
   69SLPC  H10Y 5937   5.682   1.696   9.358  1.2678 -0.1704  1.4135
   69SLPC  C311 5938   5.472   1.625   9.300 -0.2695  0.2263  0.1040
   69SLPC  H11X 5939   5.407   1.702   9.347  0.5588  0.3432  1.1099
   69SLPC  H11Y 5940   5.409   1.535   9.290 -2.5247  1.5886  1.1611
   69SLPC  C312 5941   5.492   1.676   9.158 -0.3085 -0.3653  0.0297
   69SLPC  H12X 5942   5.572   1.617   9.107 -0.8886 -1.8505  0.7786
   69SLPC  H12Y 5943   5.521   1.783   9.161 -1.2863 -0.0055 -1.7489
   69SLPC  C313 5944   5.371   1.679   9.071  0.6488 -0.5848 -0.2149
   69SLPC  H13X 5945   5.322   1.778   9.078  0.7754 -0.5040 -0.4549
   69SLPC  H13Y 5946   5.301   1.594   9.089  0.0354 -0.0638 -0.1152
   69SLPC  C314 5947   5.411   1.655   8.922  0.1231  0.5218 -0.2506
   69SLPC  H14X 5948   5.463   1.557   8.913 -0.7642 -0.5182  3.6797
   69SLPC  H14Y 5949   5.490   1.730   8.898  1.7370 -1.0919 -0.2110
   69SLPC  C315 5950   5.301   1.664   8.818  0.3707  0.0422 -0.2253
   69SLPC  H15X 5951   5.356   1.681   8.723  3.2454  0.5866  1.4206
   69SLPC  H15Y 5952   5.234   1.745   8.854 -1.2827 -0.9203 -1.0234
   69SLPC  C316 5953   5.213   1.538   8.808 -0.8367  0.7631  0.9180
   69SLPC  H16X 5954   5.172   1.532   8.911 -1.5678  1.2781  0.6638
   69SLPC  H16Y 5955   5.273   1.445   8.795  0.6238  1.2007  3.7058
   69SLPC  C317 5956   5.094   1.534   8.714  0.4282 -0.0800  0.1473
   69SLPC  H17X 5957   5.140   1.538   8.613  0.0170 -0.4455 -0.0571
   69SLPC  H17Y 5958   5.049   1.633   8.738 -2.0054 -0.7148 -1.3872
   69SLPC  C318 5959   4.999   1.420   8.744 -0.3122 -0.6268 -0.8328
   69SLPC  H18X 5960   5.044   1.318   8.740  1.5944  0.1240  0.4221
   69SLPC  H18Y 5961   4.905   1.424   8.684 -0.1531  2.2357 -0.9982
   69SLPC  H18Z 5962   4.957   1.425   8.847  1.2342 -1.1954 -0.1529
   70SLPC     N 5963   6.625   0.245  11.341  0.0818 -0.2624 -0.6559
   70SLPC   C13 5964   6.668   0.351  11.441  0.0974 -0.3810  0.1812
   70SLPC  H13A 5965   6.701   0.310  11.535  2.9483 -0.1319 -0.6400
   70SLPC  H13B 5966   6.758   0.395  11.401  1.0816 -1.6207  0.9683
   70SLPC  H13C 5967   6.591   0.427  11.447 -0.3324 -0.1885 -4.1328
   70SLPC   C14 5968   6.513   0.175  11.398  0.3140  0.1394  0.4346
   70SLPC  H14A 5969   6.475   0.102  11.328  0.3918 -1.3740  1.9011
   70SLPC  H14B 5970   6.532   0.150  11.502 -0.5656  2.1044  1.1346
   70SLPC  H14C 5971   6.431   0.245  11.404  0.4706  0.3301  0.3272
   70SLPC   C15 5972   6.737   0.153  11.337  0.0199 -0.1479  0.0673
   70SLPC  H15A 5973   6.833   0.200  11.318 -0.1638  0.0698 -0.3145
   70SLPC  H15B 5974   6.751   0.090  11.425  1.0025 -0.4068 -0.2527
   70SLPC  H15C 5975   6.711   0.079  11.262 -0.3142 -0.2925  0.3242
   70SLPC   C12 5976   6.603   0.306  11.202  0.4904  1.0931 -0.0008
   70SLPC  H12A 5977   6.687   0.366  11.170  3.2525 -1.5545  1.6929
   70SLPC  H12B 5978   6.517   0.370  11.205  0.7755  1.5448 -0.9769
   70SLPC   C11 5979   6.568   0.205  11.080 -0.0894 -0.0646  0.3025
   70SLPC  H11A 5980   6.539   0.267  10.993  0.8647 -1.1878 -0.8503
   70SLPC  H11B 5981   6.489   0.133  11.111  0.8480 -1.3517 -0.2067
   70SLPC     P 5982   6.802   0.176  10.976 -0.2292  0.1414  0.2923
   70SLPC   O13 5983   6.827   0.315  11.018 -0.0653  0.1823 -0.1209
   70SLPC   O14 5984   6.913   0.085  11.007  0.5951 -0.5496  0.1877
   70SLPC   O12 5985   6.676   0.117  11.052 -0.2032 -0.5450  0.0798
   70SLPC   O11 5986   6.757   0.174  10.823  0.2612 -0.2381 -0.0100
   70SLPC    C1 5987   6.710   0.049  10.770 -0.1135  0.2759  0.1806
   70SLPC    HA 5988   6.741   0.047  10.663 -1.2287 -0.3476 -0.1473
   70SLPC    HB 5989   6.764  -0.037  10.814 -0.1929 -0.3508 -0.9059
   70SLPC    C2 5990   6.553   0.026  10.776  0.1861 -0.0312 -0.0119
   70SLPC    HS 5991   6.525   0.011  10.883 -2.0664 -0.1706 -0.5612
   70SLPC   O21 5992   6.524  -0.092  10.700 -0.0593  0.4109  0.2171
   70SLPC   C21 5993   6.521  -0.207  10.758 -0.2979  0.1840 -0.8180
   70SLPC   O22 5994   6.540  -0.221  10.881 -0.3716 -0.2654  0.1339
   70SLPC   C22 5995   6.528  -0.309  10.647 -0.3437  0.2837  0.8052
   70SLPC   H2R 5996   6.567  -0.405  10.687 -0.4934  0.1562  0.6478
   70SLPC   H2S 5997   6.421  -0.319  10.618 -0.1572  0.6942 -0.0261
   70SLPC    C3 5998   6.476   0.147  10.718  0.1239  0.6028  0.8667
   70SLPC    HX 5999   6.495   0.236  10.781  0.8278  1.9405 -1.1351
   70SLPC    HY 6000   6.371   0.116  10.736  0.5613 -1.9957 -0.4621
   70SLPC   O31 6001   6.514   0.162  10.580 -0.0830  0.1261 -0.0030
   70SLPC   C31 6002   6.446   0.082  10.482 -1.2046  0.1653  0.9954
   70SLPC   O32 6003   6.351   0.013  10.503  0.4749 -0.1854  0.4716
   70SLPC   C32 6004   6.511   0.114  10.352  0.1335  0.5094 -0.3499
   70SLPC   H2X 6005   6.612   0.069  10.357  0.9670  2.3376  0.1654
   70SLPC   H2Y 6006   6.514   0.225  10.343  2.9611  0.4142 -1.4976
   70SLPC   C23 6007   6.622  -0.278  10.529  0.2758 -0.0324 -0.0900
   70SLPC   H3R 6008   6.728  -0.281  10.561 -0.4510 -1.3691  2.4837
   70SLPC   H3S 6009   6.605  -0.173  10.497  1.0877 -0.0216 -0.5052
   70SLPC   C24 6010   6.594  -0.373  10.414  0.4676 -0.8591 -0.1284
   70SLPC   H4R 6011   6.485  -0.382  10.395  0.2834  2.2175 -1.1001
   70SLPC   H4S 6012   6.624  -0.480  10.426  0.1046 -0.9960 -0.4061
   70SLPC   C25 6013   6.656  -0.311  10.283 -0.4574  0.3064 -1.1890
   70SLPC   H5R 6014   6.758  -0.272  10.304 -1.9874  4.0007  0.3919
   70SLPC   H5S 6015   6.584  -0.234  10.247 -0.6344  1.2243  0.9476
   70SLPC   C26 6016   6.670  -0.426  10.186  0.5025  0.2115  0.1496
   70SLPC   H6R 6017   6.571  -0.477  10.175 -0.3961  2.0281 -0.5238
   70SLPC   H6S 6018   6.740  -0.492  10.243 -0.3387  0.0360  1.0144
   70SLPC   C27 6019   6.718  -0.387  10.048  0.6270 -0.4052 -0.4048
   70SLPC   H7R 6020   6.822  -0.350  10.041  1.4797 -2.1807  1.7916
   70SLPC   H7S 6021   6.652  -0.301  10.020  1.2127 -0.3278 -1.5705
   70SLPC   C28 6022   6.724  -0.500   9.951  0.4408  0.5261  0.0698
   70SLPC   H8R 6023   6.771  -0.461   9.859  1.7602 -1.8232 -0.3492
   70SLPC   H8S 6024   6.626  -0.540   9.917  0.3089  1.5895 -0.8404
   70SLPC   C29 6025   6.816  -0.613   9.990 -0.1979  0.1179  0.3598
   70SLPC   H9R 6026   6.819  -0.638  10.097  0.4971  0.1122  0.3453
   70SLPC  C210 6027   6.892  -0.688   9.899  0.1732  0.6781 -0.0274
   70SLPC  H10R 6028   6.952  -0.773   9.935 -1.4184  0.2820  1.8631
   70SLPC  C211 6029   6.898  -0.673   9.755 -0.0752 -0.5813  0.2455
   70SLPC  H11R 6030   6.989  -0.731   9.729  0.4488  0.2747  0.1481
   70SLPC  H11S 6031   6.921  -0.565   9.743 -0.9999 -0.4318 -0.3491
   70SLPC  C212 6032   6.771  -0.705   9.678 -0.5138  0.0330 -0.1076
   70SLPC  H12R 6033   6.680  -0.716   9.739  0.2796 -0.5536  1.0131
   70SLPC  C213 6034   6.772  -0.728   9.550 -0.0727  0.8757  0.3250
   70SLPC  H13R 6035   6.677  -0.737   9.496 -0.1261 -0.3720  0.5956
   70SLPC  C214 6036   6.895  -0.720   9.461  0.1588  0.0404 -0.2832
   70SLPC  H14R 6037   6.952  -0.815   9.478 -1.5274 -0.6669  1.7814
   70SLPC  H14S 6038   6.955  -0.634   9.496  0.4398 -0.0099 -0.6396
   70SLPC  C215 6039   6.870  -0.712   9.306  0.4106  0.0094 -0.3290
   70SLPC  H15R 6040   6.975  -0.692   9.276  1.8124 -1.3789  3.0514
   70SLPC  H15S 6041   6.812  -0.620   9.284 -2.2233 -2.2030 -3.4167
   70SLPC  C216 6042   6.798  -0.832   9.240  0.1566 -0.2911 -0.4243
   70SLPC  H16R 6043   6.693  -0.835   9.275  0.4132 -1.5449  0.3349
   70SLPC  H16S 6044   6.834  -0.929   9.281 -1.1173 -0.8765 -0.6626
   70SLPC  C217 6045   6.805  -0.835   9.084  0.5404 -0.0119 -0.8658
   70SLPC  H17R 6046   6.906  -0.841   9.040  1.0910 -0.6921  0.4531
   70SLPC  H17S 6047   6.765  -0.738   9.045 -1.3126 -0.2340  0.3645
   70SLPC  C218 6048   6.700  -0.934   9.028 -0.6132  0.6468 -0.8185
   70SLPC  H18R 6049   6.597  -0.897   9.047 -0.8760  0.0579 -1.0839
   70SLPC  H18S 6050   6.696  -1.037   9.069 -0.4318  0.6582 -0.7673
   70SLPC  H18T 6051   6.699  -0.944   8.918 -2.2673 -1.0347 -0.6905
   70SLPC   C33 6052   6.431   0.058  10.231 -0.2823 -0.1438  0.2044
   70SLPC   H3X 6053   6.322   0.078  10.243  0.0376  0.5874  2.3615
   70SLPC   H3Y 6054   6.462  -0.049  10.235  6.0542  1.2910 -0.7550
   70SLPC   C34 6055   6.494   0.112  10.105  0.4517  0.1450 -0.4252
   70SLPC   H4X 6056   6.596   0.071  10.092  0.0803 -1.4862  1.2841
   70SLPC   H4Y 6057   6.490   0.222  10.092  1.4792  0.4859  1.6793
   70SLPC   C35 6058   6.414   0.052   9.981 -0.1852 -0.4395  0.1936
   70SLPC   H5X 6059   6.309   0.080  10.002 -0.5329 -0.1386 -1.7445
   70SLPC   H5Y 6060   6.422  -0.058   9.995  4.2232 -0.5073 -1.1161
   70SLPC   C36 6061   6.467   0.100   9.845 -0.3616  0.0601 -0.0378
   70SLPC   H6X 6062   6.576   0.078   9.839 -0.4733 -0.4224 -0.3332
   70SLPC   H6Y 6063   6.450   0.209   9.837 -2.0570 -0.2649 -1.4656
   70SLPC   C37 6064   6.388   0.044   9.720  0.1023 -0.4108  0.3466
   70SLPC   H7X 6065   6.280   0.064   9.736 -0.4410 -3.3980  0.8739
   70SLPC   H7Y 6066   6.392  -0.067   9.723 -2.3096 -0.5374  0.6841
   70SLPC   C38 6067   6.439   0.103   9.586 -0.3936  0.2071 -0.5814
   70SLPC   H8X 6068   6.548   0.090   9.575 -0.3082  0.7676 -0.4213
   70SLPC   H8Y 6069   6.421   0.212   9.593  2.6513  0.7932 -0.6376
   70SLPC   C39 6070   6.375   0.031   9.463 -1.0816 -0.2284 -0.6712
   70SLPC   H9X 6071   6.335  -0.068   9.492  2.0050 -0.4488  3.8110
   70SLPC   H9Y 6072   6.465   0.021   9.399 -0.1494  2.3971  0.1200
   70SLPC  C310 6073   6.267   0.108   9.386 -0.2703 -0.5307 -0.3790
   70SLPC  H10X 6074   6.186   0.136   9.456 -0.0348  1.5226 -0.8820
   70SLPC  H10Y 6075   6.233   0.043   9.302 -1.1884 -1.0586  0.3920
   70SLPC  C311 6076   6.314   0.234   9.310  0.5958  0.7207 -0.0191
   70SLPC  H11X 6077   6.397   0.197   9.245  0.8996  0.9454  0.2393
   70SLPC  H11Y 6078   6.349   0.316   9.375 -1.0895  1.5516 -0.1152
   70SLPC  C312 6079   6.211   0.286   9.214  0.8587 -0.0552 -0.1540
   70SLPC  H12X 6080   6.127   0.332   9.271  2.3825  1.4648  0.9915
   70SLPC  H12Y 6081   6.170   0.214   9.140 -1.6329  0.3303  0.7331
   70SLPC  C313 6082   6.272   0.394   9.129  0.2331 -0.1459 -0.3381
   70SLPC  H13X 6083   6.344   0.444   9.198  3.3739 -3.7890 -0.6228
   70SLPC  H13Y 6084   6.196   0.467   9.095  0.1657  0.5891  1.2918
   70SLPC  C314 6085   6.340   0.343   8.997 -0.1436 -0.3760  0.0280
   70SLPC  H14X 6086   6.258   0.314   8.927  0.9935 -0.3240 -1.3770
   70SLPC  H14Y 6087   6.397   0.249   9.011 -0.0456 -0.5410 -1.3801
   70SLPC  C315 6088   6.422   0.444   8.913 -0.6767  0.4566  0.2231
   70SLPC  H15X 6089   6.506   0.477   8.977 -1.0474  0.4600  0.7139
   70SLPC  H15Y 6090   6.362   0.532   8.881 -0.1336  1.1183  0.9675
   70SLPC  C316 6091   6.484   0.370   8.790  0.0477 -0.6069 -0.1620
   70SLPC  H16X 6092   6.409   0.303   8.742  1.7429 -2.2421 -0.6617
   70SLPC  H16Y 6093   6.563   0.306   8.834  1.9738  3.2428  2.5253
   70SLPC  C317 6094   6.545   0.477   8.691 -0.0911 -0.5462  0.5623
   70SLPC  H17X 6095   6.620   0.541   8.744  0.7182  0.2107 -1.3979
   70SLPC  H17Y 6096   6.465   0.543   8.652  2.1812  0.8020 -2.2860
   70SLPC  C318 6097   6.621   0.418   8.576 -0.2268  0.8444 -0.6830
   70SLPC  H18X 6098   6.573   0.322   8.549  0.2495  0.8020 -1.4095
   70SLPC  H18Y 6099   6.723   0.392   8.612  0.3121  2.3609 -1.0468
   70SLPC  H18Z 6100   6.634   0.474   8.481  1.7150  0.3826 -0.7467
   71SLPC     N 6101   0.545   4.748  10.769 -0.0586 -0.7821 -0.4028
   71SLPC   C13 6102   0.499   4.875  10.700  0.2993 -0.2327 -0.0069
   71SLPC  H13A 6103   0.584   4.937  10.677  0.3251 -1.0946 -2.5589
   71SLPC  H13B 6104   0.447   4.852  10.607  0.2705  1.9912 -0.6050
   71SLPC  H13C 6105   0.424   4.921  10.762  0.2129 -1.7847  1.0924
   71SLPC   C14 6106   0.601   4.784  10.906 -0.0801 -0.0064  0.6260
   71SLPC  H14A 6107   0.688   4.846  10.895 -0.4209  0.0346 -3.4470
   71SLPC  H14B 6108   0.532   4.843  10.965 -1.2661  2.2037 -2.6677
   71SLPC  H14C 6109   0.627   4.691  10.953 -1.4740 -0.5633  0.3617
   71SLPC   C15 6110   0.655   4.700  10.684  0.3665  0.6619 -0.3964
   71SLPC  H15A 6111   0.703   4.613  10.727 -0.5552  0.5086  0.3612
   71SLPC  H15B 6112   0.626   4.665  10.586  0.7433 -1.2830  0.1440
   71SLPC  H15C 6113   0.737   4.769  10.674  0.2948  1.0149  1.1805
   71SLPC   C12 6114   0.435   4.645  10.784  0.5529 -0.4017  0.1084
   71SLPC  H12A 6115   0.465   4.561  10.844  0.8256  0.3872  1.1156
   71SLPC  H12B 6116   0.418   4.600  10.688  0.0309  1.0385 -0.5027
   71SLPC   C11 6117   0.299   4.689  10.835 -0.5076 -1.2894  0.1414
   71SLPC  H11A 6118   0.324   4.745  10.928 -0.3640 -0.0838 -0.5973
   71SLPC  H11B 6119   0.244   4.600  10.872 -0.3671 -1.2704  0.3940
   71SLPC     P 6120   0.184   4.734  10.600  0.0161  0.3637  0.0027
   71SLPC   O13 6121   0.266   4.620  10.561 -0.2414  0.1305  0.3292
   71SLPC   O14 6122   0.037   4.719  10.594 -0.2929 -0.2152 -0.0445
   71SLPC   O12 6123   0.226   4.774  10.754  1.2476 -0.1367 -0.0856
   71SLPC   O11 6124   0.231   4.862  10.519  0.1537 -0.1115 -0.9359
   71SLPC    C1 6125   0.210   4.994  10.590 -0.0186  0.2514  0.4106
   71SLPC    HA 6126   0.206   4.995  10.701  2.6462  2.3274  0.6066
   71SLPC    HB 6127   0.308   5.047  10.586  0.7240 -0.6786  3.4792
   71SLPC    C2 6128   0.099   5.075  10.535  0.0713  0.1326 -0.0278
   71SLPC    HS 6129   0.011   5.008  10.549  0.1457  0.0946  0.2681
   71SLPC   O21 6130   0.127   5.106  10.396 -0.4359  0.8301 -0.1262
   71SLPC   C21 6131   0.035   5.072  10.309  0.8392 -0.1128  0.0741
   71SLPC   O22 6132  -0.066   5.009  10.332  0.2762  0.4933 -0.1377
   71SLPC   C22 6133   0.075   5.126  10.165 -0.5488 -0.3124  0.0178
   71SLPC   H2R 6134   0.139   5.216  10.178 -0.9924  0.1020 -0.5966
   71SLPC   H2S 6135   0.143   5.051  10.119  0.1596  2.0556 -3.1474
   71SLPC    C3 6136   0.078   5.202  10.624 -0.6233  0.2402 -0.1460
   71SLPC    HX 6137   0.183   5.224  10.652 -0.3669 -0.6418 -0.3697
   71SLPC    HY 6138   0.025   5.173  10.717  1.7671  1.0080  1.5291
   71SLPC   O31 6139   0.006   5.311  10.561 -0.7659  0.7046  0.0318
   71SLPC   C31 6140   0.064   5.427  10.569 -0.4254 -0.5191  0.0357
   71SLPC   O32 6141   0.161   5.455  10.641 -0.0800 -0.4270 -1.0443
   71SLPC   C32 6142   0.002   5.530  10.483  0.3526 -0.6641  0.6819
   71SLPC   H2X 6143   0.037   5.627  10.523 -0.8810  0.0976  0.0060
   71SLPC   H2Y 6144  -0.108   5.525  10.502  0.3620  0.9923  1.3562
   71SLPC   C23 6145  -0.043   5.147  10.071 -0.2666 -0.4188 -0.1399
   71SLPC   H3R 6146  -0.125   5.206  10.116  1.3204  2.2631 -0.5025
   71SLPC   H3S 6147  -0.085   5.046  10.053  1.8203 -0.9527 -2.7227
   71SLPC   C24 6148   0.008   5.190   9.933 -0.1337 -0.2721 -0.7642
   71SLPC   H4R 6149   0.099   5.130   9.909  0.1257 -0.2954  0.2473
   71SLPC   H4S 6150   0.030   5.299   9.932 -2.5513  0.3417  1.4611
   71SLPC   C25 6151  -0.095   5.160   9.820  0.2557 -0.2064  0.5274
   71SLPC   H5R 6152  -0.197   5.195   9.844 -0.4084 -1.3701 -0.4829
   71SLPC   H5S 6153  -0.100   5.049   9.820 -0.6389 -0.1796  1.4361
   71SLPC   C26 6154  -0.047   5.204   9.676  0.0804  0.0140  0.1578
   71SLPC   H6R 6155   0.050   5.152   9.661  1.3783  2.1281  0.8128
   71SLPC   H6S 6156  -0.021   5.310   9.695  1.5677 -0.0960 -1.0894
   71SLPC   C27 6157  -0.156   5.189   9.561 -0.1153 -0.0734  0.2173
   71SLPC   H7R 6158  -0.211   5.284   9.547 -3.0440 -1.9371 -1.9616
   71SLPC   H7S 6159  -0.218   5.103   9.594 -1.1528 -0.0198 -1.4884
   71SLPC   C28 6160  -0.104   5.143   9.424 -0.5412  0.6086  0.5855
   71SLPC   H8R 6161  -0.055   5.045   9.441 -1.3646  0.0052 -0.3991
   71SLPC   H8S 6162  -0.027   5.217   9.390  1.8217 -1.4056  1.2816
   71SLPC   C29 6163  -0.230   5.121   9.338  0.1359 -0.3490 -0.5502
   71SLPC   H9R 6164  -0.318   5.099   9.400 -0.9880  1.4923 -1.4277
   71SLPC  C210 6165  -0.247   5.140   9.204  0.1411 -0.4797 -0.2074
   71SLPC  H10R 6166  -0.341   5.110   9.154  0.5933 -1.6928 -0.3536
   71SLPC  C211 6167  -0.142   5.205   9.110 -0.0445  0.1500  0.1707
   71SLPC  H11R 6168  -0.058   5.133   9.110 -0.8494 -0.9634 -3.2668
   71SLPC  H11S 6169  -0.119   5.302   9.161  0.0128 -0.2870  0.9845
   71SLPC  C212 6170  -0.194   5.221   8.966 -0.1727 -0.0574  0.1322
   71SLPC  H12R 6171  -0.162   5.149   8.889 -2.2833 -2.9833  1.7810
   71SLPC  C213 6172  -0.275   5.321   8.934 -0.4842  0.0845 -0.5149
   71SLPC  H13R 6173  -0.320   5.327   8.833 -0.6077 -3.7038 -0.8355
   71SLPC  C214 6174  -0.325   5.422   9.034 -0.0276 -0.4069  0.0205
   71SLPC  H14R 6175  -0.242   5.470   9.091 -1.0170  3.0263 -1.1909
   71SLPC  H14S 6176  -0.393   5.376   9.109  0.4756 -0.9824  0.1404
   71SLPC  C215 6177  -0.386   5.553   8.972  1.4091 -0.3551 -0.4473
   71SLPC  H15R 6178  -0.406   5.631   9.050  1.2380 -1.0518  0.2189
   71SLPC  H15S 6179  -0.486   5.525   8.933  0.7674 -0.8436  1.3949
   71SLPC  C216 6180  -0.300   5.609   8.852  0.0196 -0.3295 -0.0842
   71SLPC  H16R 6181  -0.287   5.536   8.769  1.9725  0.7233 -0.7737
   71SLPC  H16S 6182  -0.197   5.612   8.894 -0.2807  0.8067  0.6399
   71SLPC  C217 6183  -0.350   5.742   8.791 -0.1841 -0.2016  0.3963
   71SLPC  H17R 6184  -0.323   5.815   8.871  2.6186 -1.6960  0.9356
   71SLPC  H17S 6185  -0.461   5.740   8.780 -0.3482 -0.3677  1.8709
   71SLPC  C218 6186  -0.286   5.786   8.659  0.3347  0.0422 -0.0926
   71SLPC  H18R 6187  -0.178   5.805   8.675  0.1995 -0.5401  1.7485
   71SLPC  H18S 6188  -0.325   5.878   8.610 -0.1970 -0.4858 -0.6850
   71SLPC  H18T 6189  -0.289   5.703   8.585 -1.2062  1.6949 -1.9956
   71SLPC   C33 6190   0.041   5.528  10.336  0.6893  0.3982  0.0396
   71SLPC   H3X 6191   0.009   5.431  10.292  1.6892 -0.2613  0.7147
   71SLPC   H3Y 6192   0.152   5.529  10.339  0.7387 -0.3527  3.4210
   71SLPC   C34 6193  -0.019   5.645  10.260 -0.5016 -0.3219 -0.0670
   71SLPC   H4X 6194   0.018   5.737  10.309 -0.6961  0.6178 -1.6218
   71SLPC   H4Y 6195  -0.124   5.636  10.295 -0.3317  0.2669  0.6192
   71SLPC   C35 6196   0.000   5.645  10.110 -0.5275 -0.0233  0.4305
   71SLPC   H5X 6197  -0.015   5.548  10.058  2.6342  0.6254 -2.0058
   71SLPC   H5Y 6198   0.108   5.667  10.095 -0.2140 -0.9031  1.2932
   71SLPC   C36 6199  -0.087   5.744  10.038  0.3535  0.8330  0.0359
   71SLPC   H6X 6200  -0.076   5.848  10.077  2.2930  0.7514 -0.1921
   71SLPC   H6Y 6201  -0.193   5.715  10.051  0.1299  1.1126 -1.0490
   71SLPC   C37 6202  -0.063   5.749   9.881  0.2713  0.3407 -0.1625
   71SLPC   H7X 6203   0.046   5.760   9.860  0.2707 -0.7413 -0.7847
   71SLPC   H7Y 6204  -0.121   5.832   9.835 -0.0656  0.6559  0.7963
   71SLPC   C38 6205  -0.133   5.635   9.814 -0.0407  0.4369  1.3770
   71SLPC   H8X 6206  -0.240   5.630   9.845 -0.9380  3.8352 -0.6683
   71SLPC   H8Y 6207  -0.077   5.540   9.831 -1.1988 -0.4440  0.3892
   71SLPC   C39 6208  -0.134   5.653   9.661  0.4605 -0.2116  0.0450
   71SLPC   H9X 6209  -0.157   5.562   9.601 -1.1623  1.0865 -1.4224
   71SLPC   H9Y 6210  -0.050   5.719   9.632 -0.7329  1.5095  0.3383
   71SLPC  C310 6211  -0.260   5.734   9.611  0.2900  0.4448 -0.3486
   71SLPC  H10X 6212  -0.247   5.834   9.656  1.3991 -0.2405  0.9289
   71SLPC  H10Y 6213  -0.353   5.692   9.654 -1.8518  1.0707 -3.9570
   71SLPC  C311 6214  -0.261   5.751   9.462 -0.4641 -1.1699  0.4413
   71SLPC  H11X 6215  -0.262   5.658   9.401  1.4110 -1.2152  0.4237
   71SLPC  H11Y 6216  -0.165   5.795   9.429  0.0590 -2.7806 -0.2915
   71SLPC  C312 6217  -0.394   5.820   9.418 -0.8175  0.6968 -0.4120
   71SLPC  H12X 6218  -0.409   5.914   9.474 -0.3449 -0.1982  1.2678
   71SLPC  H12Y 6219  -0.479   5.752   9.437 -0.1110 -0.2779 -0.6805
   71SLPC  C313 6220  -0.389   5.860   9.274 -0.0686 -0.0568 -1.1050
   71SLPC  H13X 6221  -0.390   5.762   9.223 -1.4437 -1.8248  2.0552
   71SLPC  H13Y 6222  -0.298   5.912   9.237  0.0432 -0.8213 -1.9327
   71SLPC  C314 6223  -0.516   5.939   9.238 -0.1324  0.4563  0.2405
   71SLPC  H14X 6224  -0.528   6.033   9.296  0.4779  0.1160  0.9247
   71SLPC  H14Y 6225  -0.600   5.870   9.260  0.5030 -0.6169 -0.6137
   71SLPC  C315 6226  -0.526   5.973   9.095 -0.4185 -0.0304  0.1581
   71SLPC  H15X 6227  -0.504   5.891   9.023  0.3196  1.3706 -1.2706
   71SLPC  H15Y 6228  -0.440   6.036   9.066  1.1192 -2.4203 -0.7731
   71SLPC  C316 6229  -0.663   6.025   9.041  0.0581 -0.3512  0.2205
   71SLPC  H16X 6230  -0.685   6.129   9.073  0.3715  0.3706 -1.7902
   71SLPC  H16Y 6231  -0.746   5.960   9.076  0.9734 -1.8264 -0.2437
   71SLPC  C317 6232  -0.672   6.033   8.886  0.1574  0.1755  0.0480
   71SLPC  H17X 6233  -0.779   6.029   8.856 -1.1600 -1.4190  4.2063
   71SLPC  H17Y 6234  -0.629   5.937   8.852 -0.7394 -0.1325 -0.2564
   71SLPC  C318 6235  -0.592   6.146   8.826  0.8021 -0.0445 -0.0245
   71SLPC  H18X 6236  -0.494   6.165   8.875  0.8390  1.0323 -0.5083
   71SLPC  H18Y 6237  -0.660   6.233   8.818 -1.3402 -1.4454  1.5644
   71SLPC  H18Z 6238  -0.572   6.125   8.718 -1.1930  0.7128 -0.5862
   72SLPC     N 6239   0.110   2.550  10.975 -0.1037 -0.4453  0.1828
   72SLPC   C13 6240   0.072   2.655  11.081 -0.0042  0.8183  0.1900
   72SLPC  H13A 6241   0.124   2.622  11.170  1.5160  1.9200 -0.2384
   72SLPC  H13B 6242   0.104   2.754  11.054  1.2571  0.9264  1.9111
   72SLPC  H13C 6243  -0.034   2.663  11.099 -0.8104 -2.0088 -2.3911
   72SLPC   C14 6244   0.247   2.578  10.928  0.2358  0.2449 -0.5761
   72SLPC  H14A 6245   0.300   2.497  10.879  1.4071  0.0366  0.9704
   72SLPC  H14B 6246   0.252   2.650  10.848  1.8809 -0.2039 -0.9253
   72SLPC  H14C 6247   0.311   2.606  11.011 -0.4109  1.7549 -0.5609
   72SLPC   C15 6248   0.011   2.558  10.862 -0.3778  0.1905  0.4846
   72SLPC  H15A 6249   0.026   2.656  10.819  0.6565  0.0791  0.5692
   72SLPC  H15B 6250   0.040   2.489  10.784 -0.5843 -0.2817  0.8206
   72SLPC  H15C 6251  -0.090   2.551  10.900 -0.3436 -1.5186  0.3654
   72SLPC   C12 6252   0.100   2.415  11.039 -0.1904  0.0551 -0.2670
   72SLPC  H12A 6253   0.168   2.411  11.123 -1.9922 -0.4571  1.2422
   72SLPC  H12B 6254   0.130   2.346  10.961  0.4150 -0.4190  0.3746
   72SLPC   C11 6255  -0.033   2.371  11.094  0.1992 -0.0001 -0.1721
   72SLPC  H11A 6256  -0.082   2.446  11.160 -1.1070 -0.9055 -0.0868
   72SLPC  H11B 6257  -0.009   2.288  11.164  0.0694 -1.2841 -1.6189
   72SLPC     P 6258  -0.269   2.346  10.993  0.0723 -0.1415 -0.3074
   72SLPC   O13 6259  -0.324   2.314  11.133 -0.5453  0.1178 -0.1195
   72SLPC   O14 6260  -0.295   2.479  10.940  0.1990  0.4395  0.0113
   72SLPC   O12 6261  -0.114   2.321  10.989 -0.4139 -0.3980 -0.0866
   72SLPC   O11 6262  -0.322   2.234  10.893  0.0562 -0.1666  0.3935
   72SLPC    C1 6263  -0.290   2.251  10.754  0.1029 -0.0082  1.0076
   72SLPC    HA 6264  -0.181   2.263  10.735 -0.3609  1.3183 -1.1118
   72SLPC    HB 6265  -0.309   2.149  10.714 -1.8558 -0.3280  2.6161
   72SLPC    C2 6266  -0.382   2.343  10.667  0.0264 -0.1956 -0.4858
   72SLPC    HS 6267  -0.397   2.437  10.724  1.4238  0.8171 -1.7039
   72SLPC   O21 6268  -0.502   2.274  10.637 -0.1514 -0.3732 -0.4317
   72SLPC   C21 6269  -0.604   2.353  10.636  0.5293 -0.0262 -0.2611
   72SLPC   O22 6270  -0.603   2.473  10.655 -0.1301  0.1592 -0.0595
   72SLPC   C22 6271  -0.726   2.267  10.593 -0.3645  0.0647  0.2950
   72SLPC   H2R 6272  -0.694   2.170  10.548 -0.9810  0.2577 -0.5995
   72SLPC   H2S 6273  -0.791   2.250  10.681 -1.0308  0.2896 -0.1388
   72SLPC    C3 6274  -0.308   2.384  10.542 -0.2279 -0.9078  0.8189
   72SLPC    HX 6275  -0.291   2.291  10.484 -1.8364 -0.1571 -0.9778
   72SLPC    HY 6276  -0.208   2.421  10.573 -1.1544  1.5970  1.0166
   72SLPC   O31 6277  -0.378   2.481  10.461  0.0118 -0.1681 -0.0405
   72SLPC   C31 6278  -0.365   2.604  10.503 -0.6409 -0.3379 -0.7544
   72SLPC   O32 6279  -0.301   2.638  10.608  0.5619  0.4991  0.2503
   72SLPC   C32 6280  -0.436   2.700  10.408 -0.0614 -0.3624 -0.1457
   72SLPC   H2X 6281  -0.402   2.801  10.439  3.0137  0.0662 -4.0437
   72SLPC   H2Y 6282  -0.545   2.684  10.416 -0.1828  0.7699  0.7054
   72SLPC   C23 6283  -0.813   2.333  10.481 -0.7007  0.2692 -0.2430
   72SLPC   H3R 6284  -0.851   2.436  10.498  0.4972  1.2564 -2.9587
   72SLPC   H3S 6285  -0.897   2.260  10.484 -0.6506  0.1204  4.2618
   72SLPC   C24 6286  -0.744   2.338  10.344  0.3351 -0.1712  0.1371
   72SLPC   H4R 6287  -0.680   2.247  10.338  3.8532  1.9764  1.5376
   72SLPC   H4S 6288  -0.675   2.422  10.319 -1.0951  1.1720  0.5791
   72SLPC   C25 6289  -0.850   2.349  10.237 -0.0617  0.3654  0.1189
   72SLPC   H5R 6290  -0.920   2.435  10.246 -0.4314  0.2804 -1.7044
   72SLPC   H5S 6291  -0.924   2.266  10.249  0.1855 -0.1996 -1.9850
   72SLPC   C26 6292  -0.799   2.336  10.092 -0.2699 -0.2157 -1.0838
   72SLPC   H6R 6293  -0.762   2.233  10.074  3.2016  0.1520  2.7013
   72SLPC   H6S 6294  -0.714   2.399  10.059 -0.4432  1.0304  0.7347
   72SLPC   C27 6295  -0.907   2.376   9.983  0.3772 -0.0689  0.4452
   72SLPC   H7R 6296  -0.873   2.369   9.877 -1.7249 -0.6844 -0.2404
   72SLPC   H7S 6297  -0.927   2.484  10.003 -0.3418 -0.2464  0.6898
   72SLPC   C28 6298  -1.028   2.296   9.973  0.0418 -0.1484 -0.2993
   72SLPC   H8R 6299  -1.069   2.283  10.075 -0.7779  0.3660 -0.5575
   72SLPC   H8S 6300  -0.997   2.194   9.940  2.4831  0.4565 -0.0769
   72SLPC   C29 6301  -1.138   2.351   9.887 -0.2934  0.1904 -0.5109
   72SLPC   H9R 6302  -1.219   2.399   9.943  1.4176  0.2272  2.0710
   72SLPC  C210 6303  -1.148   2.323   9.755 -0.0210 -0.3759 -0.7334
   72SLPC  H10R 6304  -1.235   2.355   9.695 -0.5413 -2.6538 -1.2916
   72SLPC  C211 6305  -1.042   2.251   9.677  0.1160  0.4908 -0.4326
   72SLPC  H11R 6306  -0.944   2.250   9.729 -1.0081 -2.3044  1.8979
   72SLPC  H11S 6307  -1.023   2.310   9.584 -0.1804 -1.4859 -1.8186
   72SLPC  C212 6308  -1.082   2.111   9.619  0.4070 -0.7092 -0.0581
   72SLPC  H12R 6309  -1.099   2.030   9.691 -1.1969  0.9662  1.5962
   72SLPC  C213 6310  -1.133   2.090   9.492  0.5067 -0.3347 -0.3569
   72SLPC  H13R 6311  -1.170   1.989   9.467 -0.3350 -0.5382  1.5367
   72SLPC  C214 6312  -1.149   2.191   9.386  0.1899  0.5940  0.6990
   72SLPC  H14R 6313  -1.047   2.224   9.356 -0.3560  2.6057  0.9188
   72SLPC  H14S 6314  -1.198   2.282   9.426 -0.4961  0.6990 -0.3487
   72SLPC  C215 6315  -1.218   2.141   9.257  0.3269 -0.0910 -0.0224
   72SLPC  H15R 6316  -1.325   2.120   9.278  0.5184 -1.6375 -0.4290
   72SLPC  H15S 6317  -1.177   2.053   9.202 -2.6705 -1.3433 -0.4441
   72SLPC  C216 6318  -1.241   2.257   9.160 -0.1672 -0.1878 -0.4652
   72SLPC  H16R 6319  -1.141   2.285   9.120 -0.8637  0.2714 -1.9744
   72SLPC  H16S 6320  -1.277   2.349   9.211  0.4939 -1.9685  3.6246
   72SLPC  C217 6321  -1.323   2.227   9.034 -0.0230  0.0082  0.2693
   72SLPC  H17R 6322  -1.411   2.176   9.080 -1.5157  1.7428 -0.5144
   72SLPC  H17S 6323  -1.261   2.150   8.983  1.1763 -0.3010  2.0965
   72SLPC  C218 6324  -1.366   2.330   8.936  0.5548 -0.0857  0.0646
   72SLPC  H18R 6325  -1.282   2.364   8.872  0.8142 -5.0842 -2.8013
   72SLPC  H18S 6326  -1.411   2.414   8.993  1.5716  0.3708  0.2104
   72SLPC  H18T 6327  -1.449   2.288   8.876 -0.4955  0.1744  1.2898
   72SLPC   C33 6328  -0.387   2.696  10.267  0.4568 -0.4315 -0.3252
   72SLPC   H3X 6329  -0.276   2.691  10.257  0.3050 -2.6485 -1.5140
   72SLPC   H3Y 6330  -0.408   2.788  10.208  3.5384 -1.7549 -3.8948
   72SLPC   C34 6331  -0.448   2.580  10.188 -0.1909  0.1267  0.8943
   72SLPC   H4X 6332  -0.556   2.597  10.171 -0.1825 -1.3671 -0.9708
   72SLPC   H4Y 6333  -0.432   2.478  10.229  0.7142  1.0762  3.0666
   72SLPC   C35 6334  -0.396   2.576  10.044  0.1172  0.2017  0.2959
   72SLPC   H5X 6335  -0.286   2.590  10.042 -0.0062  1.2148 -0.6459
   72SLPC   H5Y 6336  -0.430   2.664   9.986  1.1646 -1.7453 -3.6387
   72SLPC   C36 6337  -0.425   2.442   9.973 -0.6343 -0.0742 -0.5570
   72SLPC   H6X 6338  -0.534   2.430   9.990 -0.9836  1.2432 -1.6874
   72SLPC   H6Y 6339  -0.374   2.356  10.021 -1.8812 -0.6015 -0.1301
   72SLPC   C37 6340  -0.394   2.432   9.818  0.0062 -0.4369 -0.1232
   72SLPC   H7X 6341  -0.288   2.449   9.789 -0.2932 -0.2102 -1.1222
   72SLPC   H7Y 6342  -0.448   2.515   9.767 -1.0426 -0.3276  1.1226
   72SLPC   C38 6343  -0.435   2.302   9.757  0.0909  0.4378 -0.0094
   72SLPC   H8X 6344  -0.545   2.291   9.766  0.1953 -1.8026 -0.6446
   72SLPC   H8Y 6345  -0.389   2.219   9.815 -0.5780 -0.5329 -0.8168
   72SLPC   C39 6346  -0.395   2.289   9.608 -0.5182 -0.2150  0.3894
   72SLPC   H9X 6347  -0.421   2.186   9.578  1.7425 -0.7487  0.0558
   72SLPC   H9Y 6348  -0.285   2.302   9.603 -0.4377 -1.1940 -2.0571
   72SLPC  C310 6349  -0.453   2.395   9.515 -0.4264  0.4187 -0.0818
   72SLPC  H10X 6350  -0.401   2.491   9.538 -0.3806  0.1150  1.1654
   72SLPC  H10Y 6351  -0.562   2.397   9.538 -0.8886 -2.1215 -1.6050
   72SLPC  C311 6352  -0.432   2.371   9.365 -0.2183  0.0394  0.4963
   72SLPC  H11X 6353  -0.461   2.266   9.347 -1.7653  0.6809 -1.1028
   72SLPC  H11Y 6354  -0.327   2.389   9.334  0.3342 -0.3824  2.0312
   72SLPC  C312 6355  -0.515   2.464   9.271 -0.9387  0.0429  0.1918
   72SLPC  H12X 6356  -0.622   2.472   9.301 -0.4045  0.1240  2.2651
   72SLPC  H12Y 6357  -0.503   2.412   9.174 -1.3316 -1.8778  1.1344
   72SLPC  C313 6358  -0.468   2.604   9.252  0.2272  0.2158  0.0854
   72SLPC  H13X 6359  -0.363   2.605   9.217  1.0468  0.7940  2.3733
   72SLPC  H13Y 6360  -0.458   2.660   9.347  3.4260 -0.2125  0.1033
   72SLPC  C314 6361  -0.573   2.674   9.165  0.2743 -0.1460  0.1238
   72SLPC  H14X 6362  -0.662   2.678   9.231 -0.1828 -0.8859 -0.4370
   72SLPC  H14Y 6363  -0.602   2.623   9.071 -3.0867 -0.4251  1.1767
   72SLPC  C315 6364  -0.530   2.820   9.136  0.0379 -0.9807 -0.5146
   72SLPC  H15X 6365  -0.435   2.822   9.078  1.3238  2.1654  1.4229
   72SLPC  H15Y 6366  -0.488   2.860   9.231  1.0495 -1.5422 -0.7145
   72SLPC  C316 6367  -0.642   2.904   9.065  0.6234  0.0584  0.0147
   72SLPC  H16X 6368  -0.739   2.878   9.111  1.2865 -1.0445  0.8386
   72SLPC  H16Y 6369  -0.643   2.873   8.958 -1.1418  1.0400 -0.2947
   72SLPC  C317 6370  -0.611   3.059   9.051 -0.1235  0.1205  0.0097
   72SLPC  H17X 6371  -0.580   3.088   9.153 -2.7695 -1.1417  1.2834
   72SLPC  H17Y 6372  -0.707   3.113   9.038 -0.0898  0.0405 -0.6437
   72SLPC  C318 6373  -0.522   3.084   8.923 -0.1238  0.2117 -0.1474
   72SLPC  H18X 6374  -0.496   3.192   8.913 -0.3796  0.1525 -1.7113
   72SLPC  H18Y 6375  -0.556   3.048   8.823  1.0165  0.2670 -0.5777
   72SLPC  H18Z 6376  -0.420   3.046   8.945 -0.9855 -1.6447  0.8267
   73SLPC     N 6377   6.673   1.947  11.098 -0.6542  0.5633  0.0326
   73SLPC   C13 6378   6.809   1.956  11.160 -0.6663 -0.3026 -0.3985
   73SLPC  H13A 6379   6.817   1.870  11.225 -0.4752  1.0881  1.4867
   73SLPC  H13B 6380   6.885   1.943  11.084 -2.4199 -3.0589 -1.8818
   73SLPC  H13C 6381   6.818   2.050  11.213 -0.7168 -0.0126 -0.8916
   73SLPC   C14 6382   6.684   2.006  10.958  0.7967 -0.2571 -0.0391
   73SLPC  H14A 6383   6.737   1.947  10.884 -1.0947  1.0189 -2.5658
   73SLPC  H14B 6384   6.586   2.039  10.926  0.4101  0.6535  1.9187
   73SLPC  H14C 6385   6.729   2.104  10.963 -0.2338  0.1574  1.9038
   73SLPC   C15 6386   6.575   2.029  11.176 -0.2750  0.1533 -0.2783
   73SLPC  H15A 6387   6.564   1.989  11.276 -1.8619 -1.0967 -0.9120
   73SLPC  H15B 6388   6.614   2.129  11.183 -0.2071  0.1120 -0.0517
   73SLPC  H15C 6389   6.478   2.037  11.129  0.8323  0.4216 -2.6537
   73SLPC   C12 6390   6.620   1.807  11.085  0.0208  0.7035  0.8254
   73SLPC  H12A 6391   6.525   1.798  11.034  0.3577  2.8781 -0.2899
   73SLPC  H12B 6392   6.610   1.757  11.180 -1.7898 -1.6291 -0.4722
   73SLPC   C11 6393   6.715   1.705  11.013  0.0370 -0.9300 -0.0524
   73SLPC  H11A 6394   6.802   1.684  11.080 -0.0337  1.4997  0.9065
   73SLPC  H11B 6395   6.741   1.757  10.919 -3.2652 -0.1830 -0.6611
   73SLPC     P 6396   6.688   1.464  10.901 -0.1114 -0.1465  0.2272
   73SLPC   O13 6397   6.832   1.441  10.930 -0.2699 -0.5437  0.6501
   73SLPC   O14 6398   6.605   1.349  10.919 -0.2535  0.0055  0.2885
   73SLPC   O12 6399   6.631   1.585  10.995 -0.7689 -0.1241 -0.5070
   73SLPC   O11 6400   6.660   1.521  10.756 -0.0410 -0.0136  0.0345
   73SLPC    C1 6401   6.538   1.599  10.738  0.0619  0.0313  0.5437
   73SLPC    HA 6402   6.445   1.552  10.779  1.1643 -0.9267  2.0506
   73SLPC    HB 6403   6.556   1.701  10.777  1.6006  0.4987 -1.2744
   73SLPC    C2 6404   6.520   1.603  10.583  0.4419  0.1044 -0.6926
   73SLPC    HS 6405   6.607   1.640  10.525  1.3966 -0.7004  0.1914
   73SLPC   O21 6406   6.405   1.687  10.555 -0.2247 -0.6764 -0.0889
   73SLPC   C21 6407   6.433   1.816  10.555 -0.8936  0.2660 -0.8283
   73SLPC   O22 6408   6.541   1.861  10.580 -0.1318  0.4918 -0.1327
   73SLPC   C22 6409   6.310   1.891  10.526 -0.2061 -0.0840  0.1333
   73SLPC   H2R 6410   6.235   1.821  10.482 -0.7102 -0.3036  1.3004
   73SLPC   H2S 6411   6.275   1.934  10.623 -0.6025 -0.1696  0.0299
   73SLPC    C3 6412   6.494   1.461  10.535  0.5366 -0.3426 -0.0742
   73SLPC    HX 6413   6.411   1.415  10.593  0.4243  0.2477  0.2342
   73SLPC    HY 6414   6.578   1.397  10.569  1.3842 -0.1005 -1.6248
   73SLPC   O31 6415   6.483   1.453  10.393 -0.4801  1.0027 -0.3895
   73SLPC   C31 6416   6.363   1.421  10.354  0.5461 -0.3607 -0.2945
   73SLPC   O32 6417   6.265   1.409  10.428 -0.1051  1.1383  1.1785
   73SLPC   C32 6418   6.375   1.397  10.209 -0.6874  0.3661  0.3577
   73SLPC   H2X 6419   6.396   1.288  10.202 -0.9634  0.2038  1.6944
   73SLPC   H2Y 6420   6.456   1.455  10.159 -0.5463 -1.8173 -2.1356
   73SLPC   C23 6421   6.332   2.004  10.420  0.0119 -0.8887  0.0434
   73SLPC   H3R 6422   6.415   2.070  10.452 -0.0471 -0.9109  0.2422
   73SLPC   H3S 6423   6.245   2.074  10.421 -0.8569 -1.9521  0.1721
   73SLPC   C24 6424   6.348   1.949  10.276  0.7011 -1.1851 -0.6704
   73SLPC   H4R 6425   6.252   1.924  10.227  0.5479 -0.5494 -0.7004
   73SLPC   H4S 6426   6.418   1.863  10.283  1.5545 -0.3915  3.6762
   73SLPC   C25 6427   6.391   2.067  10.184  0.2754 -0.0762  0.6089
   73SLPC   H5R 6428   6.449   2.135  10.251  1.2835 -1.2162  0.9239
   73SLPC   H5S 6429   6.299   2.121  10.152 -0.7527 -2.1986 -0.1843
   73SLPC   C26 6430   6.480   2.030  10.068  0.0274 -0.7046 -0.5671
   73SLPC   H6R 6431   6.575   1.986  10.106  0.9439  1.9741  0.5390
   73SLPC   H6S 6432   6.502   2.121  10.009  1.5440 -2.3547 -2.6893
   73SLPC   C27 6433   6.416   1.914   9.987  0.7708  0.6212  0.5789
   73SLPC   H7R 6434   6.323   1.953   9.940 -0.6353 -2.0159  0.9997
   73SLPC   H7S 6435   6.380   1.826  10.044 -2.7507  0.7125 -1.2667
   73SLPC   C28 6436   6.504   1.873   9.863 -1.5044  0.0672  0.0344
   73SLPC   H8R 6437   6.601   1.840   9.904 -0.1114  2.7232 -0.8927
   73SLPC   H8S 6438   6.533   1.962   9.802 -2.9100  1.0483  0.7171
   73SLPC   C29 6439   6.446   1.760   9.781 -0.0490  0.3847  0.9933
   73SLPC   H9R 6440   6.436   1.663   9.831 -1.8393  1.2052  2.3323
   73SLPC  C210 6441   6.399   1.757   9.653  0.0519 -1.3318 -0.8238
   73SLPC  H10R 6442   6.348   1.668   9.613 -0.2014 -1.0973 -1.0268
   73SLPC  C211 6443   6.407   1.872   9.552 -0.4965 -0.3076  0.1006
   73SLPC  H11R 6444   6.432   1.965   9.607  0.7615 -0.3787 -0.3198
   73SLPC  H11S 6445   6.305   1.884   9.512 -0.4467 -1.2855 -0.3451
   73SLPC  C212 6446   6.495   1.837   9.436 -0.5797 -0.5771  0.3026
   73SLPC  H12R 6447   6.571   1.758   9.449  0.3454 -0.0054 -1.2883
   73SLPC  C213 6448   6.505   1.901   9.319  0.5943 -1.0965 -0.0206
   73SLPC  H13R 6449   6.570   1.862   9.240  1.6645  1.7303 -0.6695
   73SLPC  C214 6450   6.436   2.028   9.275 -0.2058  0.5476 -0.2603
   73SLPC  H14R 6451   6.500   2.111   9.312  0.3958  0.2310 -0.5774
   73SLPC  H14S 6452   6.332   2.042   9.313  0.4559 -1.1306  2.4795
   73SLPC  C215 6453   6.446   2.034   9.122  0.2611  0.0297 -0.8716
   73SLPC  H15R 6454   6.375   1.962   9.077  2.2558 -2.1298 -0.7787
   73SLPC  H15S 6455   6.547   2.005   9.086  0.7161  0.3188  0.1442
   73SLPC  C216 6456   6.419   2.179   9.087 -0.2181  0.1819 -0.0461
   73SLPC  H16R 6457   6.505   2.239   9.125  0.8872  0.0000 -2.1215
   73SLPC  H16S 6458   6.317   2.204   9.122  0.4340  1.4487  1.0716
   73SLPC  C217 6459   6.424   2.215   8.937  0.6802 -0.2565 -0.1278
   73SLPC  H17R 6460   6.351   2.154   8.879 -1.0442  1.7755 -0.2410
   73SLPC  H17S 6461   6.530   2.204   8.906  0.1512  0.2278 -2.3188
   73SLPC  C218 6462   6.393   2.363   8.908 -0.3407  0.0273 -0.2088
   73SLPC  H18R 6463   6.450   2.430   8.975 -2.1423  0.5254  0.8936
   73SLPC  H18S 6464   6.286   2.386   8.927 -0.0627  0.9434  0.3278
   73SLPC  H18T 6465   6.402   2.401   8.803  1.3622 -1.5610 -0.6939
   73SLPC   C33 6466   6.240   1.416  10.136 -0.0840 -0.0011  0.2492
   73SLPC   H3X 6467   6.190   1.511  10.165 -0.0750  0.2931 -0.6562
   73SLPC   H3Y 6468   6.167   1.332  10.145 -1.3622  1.0854  0.2989
   73SLPC   C34 6469   6.250   1.420   9.985  0.5368  0.1023 -0.2101
   73SLPC   H4X 6470   6.271   1.317   9.950 -0.9026 -0.4351  0.4245
   73SLPC   H4Y 6471   6.330   1.492   9.955 -1.7491  2.8532 -0.2031
   73SLPC   C35 6472   6.118   1.458   9.907 -0.0129 -0.0694  0.1046
   73SLPC   H5X 6473   6.108   1.568   9.913 -0.1173  0.2021 -3.2079
   73SLPC   H5Y 6474   6.028   1.407   9.948  0.3901 -0.4240  0.5641
   73SLPC   C36 6475   6.114   1.416   9.758 -0.2617  0.1680  0.2001
   73SLPC   H6X 6476   6.090   1.308   9.741  0.8241 -0.0887  0.2346
   73SLPC   H6Y 6477   6.215   1.419   9.712 -0.6818  0.2504 -0.7412
   73SLPC   C37 6478   6.020   1.501   9.674 -0.0966 -0.5498  0.3369
   73SLPC   H7X 6479   6.059   1.604   9.686 -0.0928 -0.7025  1.8030
   73SLPC   H7Y 6480   5.921   1.499   9.725  1.2675  0.4137  3.2913
   73SLPC   C38 6481   6.021   1.460   9.524  0.0624 -0.3599  0.9659
   73SLPC   H8X 6482   5.931   1.396   9.512  0.3383 -1.0748  2.4137
   73SLPC   H8Y 6483   6.108   1.395   9.502 -0.7754 -1.2225  0.1128
   73SLPC   C39 6484   6.022   1.572   9.421 -0.1544 -0.0162  0.1401
   73SLPC   H9X 6485   6.101   1.646   9.447 -0.6242  0.5723 -0.0935
   73SLPC   H9Y 6486   5.927   1.628   9.419  1.5626  3.0938 -0.6902
   73SLPC  C310 6487   6.054   1.525   9.278 -0.0939  0.4170  0.1060
   73SLPC  H10X 6488   5.978   1.454   9.241 -1.5807  1.6002  0.7704
   73SLPC  H10Y 6489   6.152   1.476   9.260 -1.0431 -0.9295 -1.6756
   73SLPC  C311 6490   6.047   1.636   9.177 -0.5819 -0.0657 -0.1704
   73SLPC  H11X 6491   6.125   1.715   9.190  2.7729 -2.6261 -2.7474
   73SLPC  H11Y 6492   5.945   1.680   9.178  0.1055  1.6575 -0.7998
   73SLPC  C312 6493   6.090   1.585   9.041  0.2195 -0.7428  1.2332
   73SLPC  H12X 6494   6.013   1.518   8.998 -2.9890  1.6850  2.7487
   73SLPC  H12Y 6495   6.187   1.534   9.054  1.6012  0.6281 -2.5561
   73SLPC  C313 6496   6.105   1.696   8.934  0.0884 -0.8573  0.2636
   73SLPC  H13X 6497   6.128   1.649   8.836 -1.3872 -0.4314 -0.3035
   73SLPC  H13Y 6498   6.174   1.775   8.972  0.3317 -1.0125  0.1499
   73SLPC  C314 6499   5.970   1.782   8.915 -0.7070 -0.1906 -0.4471
   73SLPC  H14X 6500   5.950   1.846   9.003  1.1839  0.0066 -0.1081
   73SLPC  H14Y 6501   5.885   1.711   8.908 -0.5631 -0.6924  1.9724
   73SLPC  C315 6502   5.993   1.882   8.794 -0.4456  0.2815 -0.0127
   73SLPC  H15X 6503   6.012   1.812   8.710  0.5672 -0.2967  0.6811
   73SLPC  H15Y 6504   6.082   1.942   8.822 -0.2679 -0.4246  0.9946
   73SLPC  C316 6505   5.873   1.968   8.765 -0.6973  0.7895  0.1779
   73SLPC  H16X 6506   5.900   2.039   8.684  0.3431 -0.1573 -0.3363
   73SLPC  H16Y 6507   5.827   2.027   8.847 -2.7605  2.5431 -2.0705
   73SLPC  C317 6508   5.754   1.877   8.708 -0.3789 -0.5155  0.1644
   73SLPC  H17X 6509   5.721   1.808   8.789  2.1330  0.7960  2.5029
   73SLPC  H17Y 6510   5.797   1.812   8.629 -1.8168 -0.4655 -0.6954
   73SLPC  C318 6511   5.640   1.968   8.640  0.5307  0.2194 -0.2795
   73SLPC  H18X 6512   5.565   1.906   8.586  0.5298  0.3994 -0.4874
   73SLPC  H18Y 6513   5.696   2.036   8.572  1.2127  0.6026  0.6403
   73SLPC  H18Z 6514   5.595   2.031   8.719 -0.0967 -0.6947  0.1047
   74SLPC     N 6515   1.143   4.714  10.844  0.0083  0.3682 -0.8018
   74SLPC   C13 6516   1.103   4.821  10.943  0.4974  0.1488  0.5769
   74SLPC  H13A 6517   1.036   4.785  11.019  0.4537 -0.9780  0.0250
   74SLPC  H13B 6518   1.184   4.869  10.996  0.2832  1.5724 -0.3215
   74SLPC  H13C 6519   1.062   4.910  10.897 -1.9545 -1.5660 -0.7564
   74SLPC   C14 6520   1.201   4.603  10.929  0.2595 -0.3822 -0.1112
   74SLPC  H14A 6521   1.212   4.517  10.865  2.2637 -0.4780  0.2841
   74SLPC  H14B 6522   1.294   4.637  10.973  0.0586  1.6745 -1.1298
   74SLPC  H14C 6523   1.144   4.578  11.017  0.5747  0.0739  0.2289
   74SLPC   C15 6524   1.244   4.764  10.752  0.1040 -0.4390 -0.3831
   74SLPC  H15A 6525   1.335   4.770  10.811  0.7052  0.2473 -1.3504
   74SLPC  H15B 6526   1.268   4.685  10.683  1.9257 -0.2458 -0.0451
   74SLPC  H15C 6527   1.229   4.860  10.703  1.2602 -0.1525 -0.2139
   74SLPC   C12 6528   1.020   4.670  10.760  0.6863 -0.3481 -0.0531
   74SLPC  H12A 6529   0.992   4.756  10.700 -1.8064 -1.3153 -0.3985
   74SLPC  H12B 6530   0.926   4.663  10.814 -0.3793  3.3304 -1.1246
   74SLPC   C11 6531   1.021   4.552  10.659 -0.3263 -0.5409 -0.0872
   74SLPC  H11A 6532   1.113   4.568  10.600 -1.1683  0.8019 -1.0747
   74SLPC  H11B 6533   0.925   4.552  10.604 -0.4464  1.1569  0.0735
   74SLPC     P 6534   0.912   4.327  10.740  0.1968  0.2952 -0.2771
   74SLPC   O13 6535   0.957   4.197  10.796 -0.2244  0.2304 -0.5807
   74SLPC   O14 6536   0.796   4.402  10.793 -0.4813  0.5091  0.0408
   74SLPC   O12 6537   1.036   4.428  10.739 -0.1685  0.0927  0.1783
   74SLPC   O11 6538   0.890   4.303  10.586  0.7050 -0.1348 -0.2459
   74SLPC    C1 6539   0.995   4.270  10.500  0.8568 -0.4304 -0.4237
   74SLPC    HA 6540   1.070   4.351  10.516  2.2180 -2.0918  2.6505
   74SLPC    HB 6541   1.047   4.175  10.524  4.1404  1.4233  0.4991
   74SLPC    C2 6542   0.945   4.261  10.354 -0.5538  0.3618 -0.1076
   74SLPC    HS 6543   0.905   4.360  10.322  0.7691  0.5931 -1.1668
   74SLPC   O21 6544   0.844   4.158  10.344 -0.2298 -0.0917  0.0768
   74SLPC   C21 6545   0.727   4.189  10.377  0.4441 -0.1308  0.3710
   74SLPC   O22 6546   0.681   4.300  10.398 -0.0838  0.1457  0.3906
   74SLPC   C22 6547   0.639   4.060  10.385 -0.3250 -0.2051 -0.0859
   74SLPC   H2R 6548   0.688   3.989  10.315  2.4155 -0.2863  1.7430
   74SLPC   H2S 6549   0.671   4.018  10.483 -1.3783  0.4681  0.5654
   74SLPC    C3 6550   1.063   4.228  10.254  0.1178  0.1302 -0.5741
   74SLPC    HX 6551   1.099   4.123  10.253 -1.3743 -0.4171 -1.7778
   74SLPC    HY 6552   1.150   4.282  10.297 -2.2917  2.4889  1.7018
   74SLPC   O31 6553   1.016   4.267  10.121 -0.5199  0.2491  0.0130
   74SLPC   C31 6554   1.111   4.252  10.028 -0.0293 -0.0299  0.9743
   74SLPC   O32 6555   1.229   4.245  10.048  0.0921  0.5039  0.0164
   74SLPC   C32 6556   1.053   4.257   9.888  0.8841  0.8868  0.8780
   74SLPC   H2X 6557   0.945   4.277   9.905  0.5562 -1.0957  1.3759
   74SLPC   H2Y 6558   1.071   4.153   9.852 -0.0282  1.0013  0.0658
   74SLPC   C23 6559   0.489   4.098  10.381  0.4733  0.2160  0.0753
   74SLPC   H3R 6560   0.463   4.165  10.465 -0.2482 -0.3230  0.2929
   74SLPC   H3S 6561   0.428   4.006  10.389  1.6196 -0.6549 -0.7744
   74SLPC   C24 6562   0.445   4.161  10.255  0.8565 -0.4995  0.7734
   74SLPC   H4R 6563   0.515   4.245  10.238  2.2197 -1.7060  0.2162
   74SLPC   H4S 6564   0.341   4.200  10.254  0.6992 -0.8766 -1.0808
   74SLPC   C25 6565   0.475   4.081  10.126  1.0218  0.3031  0.1569
   74SLPC   H5R 6566   0.405   3.995  10.126 -1.3673  1.8512  5.0962
   74SLPC   H5S 6567   0.579   4.042  10.125  0.9849 -0.1113  3.0372
   74SLPC   C26 6568   0.446   4.172  10.000  0.9611  0.1540 -0.4845
   74SLPC   H6R 6569   0.524   4.252   9.996  0.3541  0.8443  0.9049
   74SLPC   H6S 6570   0.352   4.231  10.003  0.6166 -0.2435 -2.2382
   74SLPC   C27 6571   0.439   4.086   9.873  0.3225  0.6794 -0.2516
   74SLPC   H7R 6572   0.404   4.154   9.792  0.7355 -1.6950 -2.5365
   74SLPC   H7S 6573   0.360   4.009   9.887  1.5102 -1.5290 -4.2648
   74SLPC   C28 6574   0.572   4.004   9.839  0.6378 -0.8338  0.4715
   74SLPC   H8R 6575   0.556   3.941   9.749  0.2238  1.0488 -0.8209
   74SLPC   H8S 6576   0.584   3.932   9.923 -2.1001 -1.8021  0.1176
   74SLPC   C29 6577   0.692   4.095   9.825 -0.1858  0.0617 -0.3306
   74SLPC   H9R 6578   0.737   4.119   9.922 -1.4284  0.0504  0.2673
   74SLPC  C210 6579   0.740   4.131   9.701 -0.6096 -0.6003 -1.0686
   74SLPC  H10R 6580   0.835   4.187   9.705  0.3076 -2.1167 -0.2874
   74SLPC  C211 6581   0.691   4.103   9.562 -1.1189 -0.5439  0.3145
   74SLPC  H11R 6582   0.615   4.022   9.569 -1.4818 -0.3430 -0.9059
   74SLPC  H11S 6583   0.774   4.059   9.502  0.7945  2.2345  0.7802
   74SLPC  C212 6584   0.625   4.217   9.498  0.0646  0.4412 -0.1389
   74SLPC  H12R 6585   0.542   4.256   9.559 -1.0290 -3.6560  1.2931
   74SLPC  C213 6586   0.649   4.251   9.371 -0.3937 -0.0062  0.3262
   74SLPC  H13R 6587   0.582   4.327   9.330 -0.6787 -0.5710 -0.2789
   74SLPC  C214 6588   0.736   4.190   9.267 -0.6719 -0.3973  0.0347
   74SLPC  H14R 6589   0.834   4.163   9.312 -1.5081 -0.8048  1.6919
   74SLPC  H14S 6590   0.779   4.261   9.194  0.1764 -0.0821  0.8216
   74SLPC  C215 6591   0.670   4.068   9.209 -0.6460 -0.0463  0.5053
   74SLPC  H15R 6592   0.643   3.992   9.285  2.4133 -1.7295  0.0771
   74SLPC  H15S 6593   0.733   4.013   9.135 -2.0375  1.2603 -1.7843
   74SLPC  C216 6594   0.541   4.102   9.126 -0.1058  0.0511 -0.7859
   74SLPC  H16R 6595   0.564   4.192   9.065  0.3752 -0.5147 -1.4573
   74SLPC  H16S 6596   0.462   4.127   9.199 -1.0935 -3.9114 -0.2444
   74SLPC  C217 6597   0.513   3.978   9.041  0.4992  0.4967  0.0904
   74SLPC  H17R 6598   0.497   3.894   9.111 -0.5594  3.0579  3.2068
   74SLPC  H17S 6599   0.598   3.952   8.975  1.2184  1.7785  0.4692
   74SLPC  C218 6600   0.394   3.996   8.952  0.0608  0.7384 -0.0373
   74SLPC  H18R 6601   0.393   4.100   8.913  1.1716  0.4694 -0.8414
   74SLPC  H18S 6602   0.296   3.995   9.005  1.3929  1.9170  2.6542
   74SLPC  H18T 6603   0.386   3.923   8.869  1.1113 -1.6271  1.8228
   74SLPC   C33 6604   1.118   4.349   9.783 -0.0083 -0.1337  0.0085
   74SLPC   H3X 6605   1.227   4.330   9.770 -0.1090 -0.4065 -0.4474
   74SLPC   H3Y 6606   1.107   4.451   9.826 -1.0986 -0.5229  0.6728
   74SLPC   C34 6607   1.060   4.341   9.644 -0.2571  0.2224 -0.2857
   74SLPC   H4X 6608   0.953   4.371   9.649 -0.1463  0.9575 -1.7053
   74SLPC   H4Y 6609   1.080   4.238   9.608 -0.2007  0.2185 -0.2431
   74SLPC   C35 6610   1.135   4.432   9.556 -0.1095 -0.6214  0.3962
   74SLPC   H5X 6611   1.245   4.420   9.557  0.3581  2.7460 -0.0717
   74SLPC   H5Y 6612   1.123   4.537   9.589  1.6824 -0.0265 -0.7054
   74SLPC   C36 6613   1.087   4.409   9.413 -0.0633 -0.4137  0.1522
   74SLPC   H6X 6614   0.977   4.428   9.409 -0.2005 -1.0399  0.7821
   74SLPC   H6Y 6615   1.107   4.301   9.397 -0.9293 -0.5858  0.1799
   74SLPC   C37 6616   1.162   4.493   9.304 -0.3830 -0.1513  0.3026
   74SLPC   H7X 6617   1.267   4.456   9.299  0.8994  3.1166  0.9565
   74SLPC   H7Y 6618   1.155   4.599   9.336 -1.3756  0.0943 -0.6874
   74SLPC   C38 6619   1.089   4.495   9.167 -0.4869  0.2996  0.0600
   74SLPC   H8X 6620   0.997   4.557   9.171  0.0147  1.0926 -0.4577
   74SLPC   H8Y 6621   1.066   4.394   9.126  0.6520 -0.8368  2.0436
   74SLPC   C39 6622   1.175   4.564   9.063  0.3681  0.1338  0.5274
   74SLPC   H9X 6623   1.265   4.505   9.036  0.8883  0.9258  0.4806
   74SLPC   H9Y 6624   1.216   4.658   9.106 -1.5507  0.8786  0.8491
   74SLPC  C310 6625   1.104   4.603   8.929 -0.1497  0.3178  0.2668
   74SLPC  H10X 6626   1.017   4.658   8.970  0.8307  0.6706  1.9998
   74SLPC  H10Y 6627   1.067   4.508   8.884  0.3227 -0.3145  1.1782
   74SLPC  C311 6628   1.182   4.688   8.823 -0.2005 -0.0107  0.0660
   74SLPC  H11X 6629   1.270   4.626   8.794 -1.0100 -1.1950  0.1017
   74SLPC  H11Y 6630   1.226   4.780   8.867 -2.2188  1.0804 -0.0479
   74SLPC  C312 6631   1.098   4.739   8.707 -0.4163 -0.4221  0.7093
   74SLPC  H12X 6632   1.154   4.830   8.678 -2.3007  0.4504 -0.3944
   74SLPC  H12Y 6633   0.994   4.770   8.733  0.2450  3.0286 -0.2191
   74SLPC  C313 6634   1.100   4.638   8.589 -0.1838  0.2885  0.5154
   74SLPC  H13X 6635   1.037   4.549   8.610  0.6083 -0.9208 -1.8157
   74SLPC  H13Y 6636   1.203   4.604   8.564 -0.4105  0.3989 -0.6579
   74SLPC  C314 6637   1.037   4.696   8.460 -0.4292 -0.5281  0.0170
   74SLPC  H14X 6638   1.108   4.777   8.434 -0.5305 -0.1852  0.7796
   74SLPC  H14Y 6639   0.938   4.742   8.483  1.1234  1.1663  4.3044
   74SLPC  C315 6640   1.020   4.596   8.337  0.1075 -0.3841  0.5718
   74SLPC  H15X 6641   0.973   4.661   8.261  0.0181 -0.3367  0.6682
   74SLPC  H15Y 6642   0.947   4.518   8.368 -0.1358  0.2016  1.5229
   74SLPC  C316 6643   1.145   4.519   8.292 -0.6171 -0.5220 -0.6594
   74SLPC  H16X 6644   1.192   4.463   8.376 -1.6264  0.2125  0.4312
   74SLPC  H16Y 6645   1.225   4.590   8.264  0.1750 -0.2247  2.1111
   74SLPC  C317 6646   1.129   4.447   8.162  0.5051  0.0817 -0.0533
   74SLPC  H17X 6647   1.209   4.379   8.127 -1.7619 -1.3141 -2.9241
   74SLPC  H17Y 6648   1.132   4.526   8.084  0.3385  0.7467  0.6019
   74SLPC  C318 6649   0.992   4.378   8.147  0.1477  0.3427  0.6122
   74SLPC  H18X 6650   0.992   4.332   8.046  1.4552 -3.4453  2.1549
   74SLPC  H18Y 6651   0.906   4.447   8.162 -0.4420 -1.0163  4.5127
   74SLPC  H18Z 6652   0.991   4.292   8.217  2.5690 -0.4914 -0.2521
   75SLPC     N 6653   3.803   0.588   6.203  0.1186 -0.5351 -0.6508
   75SLPC   C13 6654   3.672   0.616   6.139 -0.0999 -0.6725 -0.1784
   75SLPC  H13A 6655   3.679   0.686   6.056  1.2645  0.5715  0.9338
   75SLPC  H13B 6656   3.627   0.524   6.106 -1.0231 -0.2124 -0.2388
   75SLPC  H13C 6657   3.613   0.673   6.209  0.9016 -0.1784  0.2771
   75SLPC   C14 6658   3.856   0.727   6.237 -0.2605 -0.1308  0.1838
   75SLPC  H14A 6659   3.806   0.782   6.315 -3.2122  1.1267 -2.3437
   75SLPC  H14B 6660   3.956   0.726   6.277 -0.7435 -2.2119  1.4856
   75SLPC  H14C 6661   3.842   0.798   6.156 -1.2698  1.4860  1.7052
   75SLPC   C15 6662   3.891   0.525   6.104 -0.5377 -0.3229  0.1788
   75SLPC  H15A 6663   3.847   0.439   6.056 -1.0025 -0.8400  1.4801
   75SLPC  H15B 6664   3.929   0.585   6.022 -0.4335 -0.4640  0.1232
   75SLPC  H15C 6665   3.978   0.493   6.159  0.3580  2.7956  0.7722
   75SLPC   C12 6666   3.783   0.499   6.329  0.4260 -0.7468 -0.1351
   75SLPC  H12A 6667   3.777   0.398   6.292  3.3281 -1.9221  2.2230
   75SLPC  H12B 6668   3.693   0.532   6.381  0.8320 -0.3147  0.3079
   75SLPC   C11 6669   3.898   0.488   6.423 -0.4639  0.1059  0.1881
   75SLPC  H11A 6670   3.870   0.437   6.518 -0.2284 -0.2715  0.0581
   75SLPC  H11B 6671   3.931   0.590   6.450  3.0850 -0.2228 -2.1416
   75SLPC     P 6672   4.020   0.267   6.394 -0.3509 -0.3791 -0.3314
   75SLPC   O13 6673   3.884   0.209   6.405 -0.5055  0.0648 -0.2196
   75SLPC   O14 6674   4.104   0.204   6.289  0.4860  0.1251  0.2142
   75SLPC   O12 6675   4.007   0.419   6.354  0.2197  0.0398 -0.4994
   75SLPC   O11 6676   4.094   0.272   6.531  0.6001 -0.7345 -0.3006
   75SLPC    C1 6677   4.215   0.341   6.552  0.0224 -0.5257 -0.1637
   75SLPC    HA 6678   4.276   0.340   6.460 -1.8514  0.5434 -1.4728
   75SLPC    HB 6679   4.198   0.448   6.575  0.6216 -0.7063  1.2447
   75SLPC    C2 6680   4.301   0.293   6.674 -0.5770  1.0365 -0.5139
   75SLPC    HS 6681   4.322   0.185   6.663  0.0345  1.2447 -1.5428
   75SLPC   O21 6682   4.219   0.320   6.790 -0.3683  0.0403 -0.3277
   75SLPC   C21 6683   4.227   0.230   6.887  0.4546 -0.3398 -0.1273
   75SLPC   O22 6684   4.298   0.132   6.890  0.1709 -0.5782 -0.1630
   75SLPC   C22 6685   4.123   0.274   6.993 -0.1484  0.4594 -0.6078
   75SLPC   H2R 6686   4.155   0.374   7.029 -1.6576  1.3659 -1.6806
   75SLPC   H2S 6687   4.024   0.285   6.944 -0.5507 -1.1861 -0.2310
   75SLPC    C3 6688   4.445   0.355   6.672  0.2960  0.2304  0.1107
   75SLPC    HX 6689   4.434   0.465   6.659  2.0968  0.2797 -1.5448
   75SLPC    HY 6690   4.504   0.313   6.588 -3.1834  1.2529 -3.1222
   75SLPC   O31 6691   4.503   0.325   6.794 -0.0586  0.1432  0.4232
   75SLPC   C31 6692   4.504   0.413   6.891  0.3195  0.2870 -0.8008
   75SLPC   O32 6693   4.446   0.520   6.896  0.5457  0.2012  0.7491
   75SLPC   C32 6694   4.583   0.366   7.012  0.4526  0.4051 -0.3116
   75SLPC   H2X 6695   4.640   0.454   7.051 -1.5993  0.6003  2.5438
   75SLPC   H2Y 6696   4.657   0.290   6.980  1.3147  1.2729 -0.4265
   75SLPC   C23 6697   4.113   0.173   7.111  0.9145 -0.8444 -0.9090
   75SLPC   H3R 6698   4.210   0.121   7.121  1.5322  0.1415 -1.6251
   75SLPC   H3S 6699   4.038   0.097   7.079 -0.6155  0.3258 -0.2241
   75SLPC   C24 6700   4.065   0.238   7.238  0.1222 -0.5691 -0.1611
   75SLPC   H4R 6701   3.997   0.170   7.294  0.7410 -0.7647  0.3602
   75SLPC   H4S 6702   4.033   0.340   7.209  2.5931  0.3991  0.3473
   75SLPC   C25 6703   4.174   0.270   7.336 -0.4251 -0.6314 -0.2080
   75SLPC   H5R 6704   4.253   0.334   7.291 -0.3801  0.5445  1.4790
   75SLPC   H5S 6705   4.226   0.177   7.366  0.8718 -1.4339 -4.2479
   75SLPC   C26 6706   4.128   0.344   7.469  0.0186  0.0678 -0.5917
   75SLPC   H6R 6707   4.043   0.284   7.508 -0.9990  2.7185  1.6287
   75SLPC   H6S 6708   4.085   0.442   7.441 -2.4867 -0.2853  1.6572
   75SLPC   C27 6709   4.237   0.379   7.575 -0.1758  0.4441  0.6537
   75SLPC   H7R 6710   4.307   0.445   7.520 -1.3058  0.6285 -0.6410
   75SLPC   H7S 6711   4.286   0.287   7.613 -0.8471  1.1266  3.4340
   75SLPC   C28 6712   4.205   0.470   7.693  0.4197  0.8446 -0.4215
   75SLPC   H8R 6713   4.200   0.575   7.657  0.2111  0.9504 -0.0859
   75SLPC   H8S 6714   4.291   0.460   7.761  0.5117  0.8009 -0.5448
   75SLPC   C29 6715   4.081   0.432   7.770  0.0352 -0.2803  0.5262
   75SLPC   H9R 6716   4.006   0.415   7.691 -0.7533  2.3889  0.6130
   75SLPC  C210 6717   4.068   0.427   7.902  0.2533  0.1657 -0.4260
   75SLPC  H10R 6718   3.981   0.382   7.953  2.3088 -1.2958  2.0285
   75SLPC  C211 6719   4.173   0.451   8.009  0.0505 -0.9554 -0.6271
   75SLPC  H11R 6720   4.129   0.480   8.107  1.1972  1.4220 -0.7420
   75SLPC  H11S 6721   4.232   0.541   7.981  2.9840 -2.6150 -0.0982
   75SLPC  C212 6722   4.258   0.335   8.028  0.0842 -0.5427 -0.5425
   75SLPC  H12R 6723   4.217   0.239   7.994  0.1877 -0.9617  0.4752
   75SLPC  C213 6724   4.386   0.348   8.064 -0.2474  0.9400  0.1581
   75SLPC  H13R 6725   4.454   0.263   8.080 -2.2963 -0.7947  0.0937
   75SLPC  C214 6726   4.453   0.471   8.110 -0.2297  0.9483 -0.1441
   75SLPC  H14R 6727   4.372   0.536   8.150  1.1404  3.3005 -0.9656
   75SLPC  H14S 6728   4.496   0.534   8.029 -0.5819  1.8086  0.3222
   75SLPC  C215 6729   4.570   0.436   8.208 -0.9572  0.4428  0.1888
   75SLPC  H15R 6730   4.616   0.532   8.240  0.9692  0.1575 -1.4780
   75SLPC  H15S 6731   4.648   0.384   8.148 -2.5438 -0.7574 -0.8928
   75SLPC  C216 6732   4.534   0.361   8.335  0.1522  0.5592 -0.3000
   75SLPC  H16R 6733   4.507   0.256   8.314  1.6110  0.2171 -0.6229
   75SLPC  H16S 6734   4.460   0.421   8.393 -0.3327  1.1302 -1.4805
   75SLPC  C217 6735   4.650   0.344   8.433 -0.5890  0.0633  0.2213
   75SLPC  H17R 6736   4.705   0.440   8.440  0.9628 -0.8468  1.1765
   75SLPC  H17S 6737   4.723   0.268   8.398 -0.9020 -0.1631  0.0582
   75SLPC  C218 6738   4.616   0.310   8.578 -0.2093 -0.4458 -0.4145
   75SLPC  H18R 6739   4.570   0.401   8.621 -0.5931 -0.1985 -1.3288
   75SLPC  H18S 6740   4.708   0.292   8.638  0.4423 -0.4458 -1.3994
   75SLPC  H18T 6741   4.546   0.225   8.596 -2.3551  1.7014  2.1943
   75SLPC   C33 6742   4.484   0.316   7.121  0.8262 -0.3055  0.3704
   75SLPC   H3X 6743   4.405   0.392   7.135  1.2671  0.7066 -2.0361
   75SLPC   H3Y 6744   4.430   0.228   7.078 -0.3856  0.2959  0.6105
   75SLPC   C34 6745   4.544   0.276   7.252 -0.1257 -0.2629 -0.0369
   75SLPC   H4X 6746   4.637   0.219   7.231 -0.8478 -2.4042  2.1266
   75SLPC   H4Y 6747   4.474   0.206   7.302  1.4017 -1.6888  0.1922
   75SLPC   C35 6748   4.563   0.392   7.349  0.0296 -0.1107  0.2430
   75SLPC   H5X 6749   4.460   0.435   7.357  0.3180  0.8119 -0.6733
   75SLPC   H5Y 6750   4.623   0.481   7.321 -0.3262 -0.2092 -0.8810
   75SLPC   C36 6751   4.615   0.357   7.489  0.2465 -0.3558  0.2042
   75SLPC   H6X 6752   4.716   0.311   7.491  1.1444  1.4130 -1.2502
   75SLPC   H6Y 6753   4.542   0.292   7.542 -1.0955  1.9608  1.3224
   75SLPC   C37 6754   4.616   0.487   7.583 -0.0855  0.0683 -0.8143
   75SLPC   H7X 6755   4.522   0.543   7.564 -0.7328 -0.4707  0.6700
   75SLPC   H7Y 6756   4.707   0.540   7.546  2.5518 -1.3596  2.9489
   75SLPC   C38 6757   4.643   0.452   7.735 -0.1400  0.3683  0.4262
   75SLPC   H8X 6758   4.574   0.381   7.786  1.0503 -0.0687  1.4997
   75SLPC   H8Y 6759   4.625   0.547   7.788  0.0902  1.3309 -1.1578
   75SLPC   C39 6760   4.786   0.384   7.751 -0.1279  0.4042 -0.2096
   75SLPC   H9X 6761   4.862   0.453   7.708  0.2229  0.3584  0.3332
   75SLPC   H9Y 6762   4.777   0.287   7.698  0.3176 -0.1076  0.6361
   75SLPC  C310 6763   4.813   0.351   7.895 -0.0162  0.2897 -0.1109
   75SLPC  H10X 6764   4.740   0.275   7.931 -0.2214 -0.0706 -1.2674
   75SLPC  H10Y 6765   4.804   0.431   7.971  0.5440  0.8232 -0.5960
   75SLPC  C311 6766   4.948   0.278   7.902  0.1737  0.6694 -0.9680
   75SLPC  H11X 6767   5.031   0.352   7.903  0.3685  0.4480  0.0138
   75SLPC  H11Y 6768   4.961   0.218   7.809 -0.8577 -0.1910 -0.5793
   75SLPC  C312 6769   4.966   0.177   8.010 -0.0589 -0.4663  0.2093
   75SLPC  H12X 6770   5.049   0.107   7.987 -2.0945 -3.2161  0.7146
   75SLPC  H12Y 6771   4.880   0.107   8.007  0.4834 -1.1086 -0.8137
   75SLPC  C313 6772   4.976   0.231   8.153  0.2942 -0.1289  0.0862
   75SLPC  H13X 6773   4.936   0.140   8.202 -1.3116  0.4377 -0.1207
   75SLPC  H13Y 6774   4.898   0.309   8.156  0.4661  0.0137  1.9274
   75SLPC  C314 6775   5.116   0.252   8.204 -0.5772  0.3523  0.4441
   75SLPC  H14X 6776   5.171   0.298   8.119  0.9389 -4.3598 -1.5056
   75SLPC  H14Y 6777   5.154   0.148   8.219  2.4456  1.2379 -0.4101
   75SLPC  C315 6778   5.121   0.338   8.339  0.2969  0.3660 -0.0966
   75SLPC  H15X 6779   5.064   0.432   8.323 -0.6018 -0.4433 -2.0063
   75SLPC  H15Y 6780   5.224   0.365   8.370  0.7407 -1.2625 -0.0466
   75SLPC  C316 6781   5.049   0.259   8.441  0.1460  0.3370 -0.4376
   75SLPC  H16X 6782   5.087   0.154   8.437 -0.8080 -0.0981  1.1537
   75SLPC  H16Y 6783   4.940   0.260   8.420  0.0124 -2.5346 -0.3426
   75SLPC  C317 6784   5.079   0.322   8.580 -0.7642  0.0412  0.4999
   75SLPC  H17X 6785   5.189   0.325   8.588 -0.5859 -0.2826 -1.4353
   75SLPC  H17Y 6786   5.049   0.253   8.662  1.7715  0.2812  1.7042
   75SLPC  C318 6787   5.015   0.460   8.604 -0.1294 -0.5420  0.3004
   75SLPC  H18X 6788   5.069   0.543   8.551 -0.3805 -0.0171  0.8517
   75SLPC  H18Y 6789   5.033   0.491   8.710 -0.9146  4.4055 -0.7492
   75SLPC  H18Z 6790   4.908   0.453   8.577 -0.3308 -0.9719  1.1671
   76SLPC     N 6791   0.448   5.451   6.144 -0.5895 -0.9538 -0.6055
   76SLPC   C13 6792   0.403   5.599   6.146  0.1382  0.3692  0.0306
   76SLPC  H13A 6793   0.472   5.668   6.193  2.2584 -1.9272  0.4984
   76SLPC  H13B 6794   0.386   5.643   6.048 -0.9427  2.4309  1.0643
   76SLPC  H13C 6795   0.312   5.607   6.204  1.4091  0.5402  2.0916
   76SLPC   C14 6796   0.583   5.447   6.073 -0.1087  0.5737 -0.6423
   76SLPC  H14A 6797   0.611   5.343   6.072 -0.3338  0.4936  0.3546
   76SLPC  H14B 6798   0.568   5.483   5.972  1.0718 -0.6106 -1.2654
   76SLPC  H14C 6799   0.645   5.511   6.134  0.9831  0.2674 -1.4171
   76SLPC   C15 6800   0.360   5.363   6.068 -0.6527 -0.8514  0.7733
   76SLPC  H15A 6801   0.259   5.382   6.102 -1.5527  2.3280 -2.8338
   76SLPC  H15B 6802   0.360   5.380   5.961  1.5326 -0.1431  0.8453
   76SLPC  H15C 6803   0.400   5.263   6.069  1.8182 -0.0882 -2.7901
   76SLPC   C12 6804   0.468   5.399   6.287  0.2642 -0.5053 -0.7399
   76SLPC  H12A 6805   0.544   5.458   6.335 -0.4890  0.9532 -1.2746
   76SLPC  H12B 6806   0.481   5.292   6.278 -1.1994 -0.8029  0.2640
   76SLPC   C11 6807   0.351   5.395   6.390  0.2371  0.6643  0.2819
   76SLPC  H11A 6808   0.385   5.338   6.479  0.1209 -0.6783 -0.5057
   76SLPC  H11B 6809   0.263   5.345   6.345  1.4493  1.1740 -2.8904
   76SLPC     P 6810   0.409   5.591   6.549  0.0538  0.1480 -0.0768
   76SLPC   O13 6811   0.543   5.603   6.497  0.5887  0.5560 -0.0789
   76SLPC   O14 6812   0.339   5.715   6.589 -0.1205 -0.6821 -0.0213
   76SLPC   O12 6813   0.314   5.528   6.434  0.4071  0.3934  0.0593
   76SLPC   O11 6814   0.416   5.504   6.677 -0.2244 -0.4972  0.4386
   76SLPC    C1 6815   0.293   5.445   6.725  0.0897  0.3471  0.2588
   76SLPC    HA 6816   0.219   5.415   6.649  0.5390  2.5267 -1.1445
   76SLPC    HB 6817   0.338   5.353   6.767  2.4642  0.8731 -0.9752
   76SLPC    C2 6818   0.226   5.533   6.830 -0.4751 -0.1905  0.0266
   76SLPC    HS 6819   0.202   5.634   6.790  0.3835  0.3700  0.8802
   76SLPC   O21 6820   0.306   5.542   6.944  0.0914 -0.6514 -0.5105
   76SLPC   C21 6821   0.267   5.633   7.030 -0.0509  0.0744 -0.1875
   76SLPC   O22 6822   0.192   5.724   7.005  0.9277 -0.1992  0.4311
   76SLPC   C22 6823   0.346   5.622   7.164 -1.3155  0.4095  0.3126
   76SLPC   H2R 6824   0.393   5.522   7.159 -0.1869  0.9754 -1.2850
   76SLPC   H2S 6825   0.417   5.708   7.167  2.7919 -2.6339 -0.1871
   76SLPC    C3 6826   0.085   5.465   6.863 -0.0728  0.9943  0.0801
   76SLPC    HX 6827   0.020   5.456   6.774  0.8700  1.6427 -0.7007
   76SLPC    HY 6828   0.026   5.532   6.928  0.8929  0.7141  1.2778
   76SLPC   O31 6829   0.111   5.336   6.930  1.0128 -0.7497  0.2489
   76SLPC   C31 6830   0.004   5.258   6.924 -0.8782  0.5172  1.2944
   76SLPC   O32 6831  -0.102   5.291   6.872 -0.3304 -0.1108 -0.9899
   76SLPC   C32 6832   0.038   5.129   7.005 -0.2689 -0.1174  0.0495
   76SLPC   H2X 6833   0.113   5.077   6.943 -1.1625  0.9581 -2.0519
   76SLPC   H2Y 6834  -0.059   5.076   7.020 -1.2752  1.8629  0.9175
   76SLPC   C23 6835   0.252   5.623   7.282  0.3046 -0.2010 -1.0925
   76SLPC   H3R 6836   0.167   5.552   7.269  0.3600 -0.1358 -1.8088
   76SLPC   H3S 6837   0.213   5.725   7.299 -2.1114 -0.7121 -3.0483
   76SLPC   C24 6838   0.325   5.585   7.417 -0.3032  0.1537  0.3587
   76SLPC   H4R 6839   0.378   5.488   7.411 -0.7506 -0.0550 -0.5091
   76SLPC   H4S 6840   0.247   5.576   7.495 -1.1319  0.7027 -0.3859
   76SLPC   C25 6841   0.433   5.681   7.453 -0.1777 -0.1912 -0.3203
   76SLPC   H5R 6842   0.382   5.778   7.472 -2.5754 -1.3738 -0.3728
   76SLPC   H5S 6843   0.503   5.691   7.367 -0.4802  1.2994 -0.4250
   76SLPC   C26 6844   0.502   5.651   7.589 -0.6640 -0.0922  0.1709
   76SLPC   H6R 6845   0.592   5.716   7.602  1.1769 -2.2440 -0.9629
   76SLPC   H6S 6846   0.541   5.548   7.573 -0.0615  0.2330 -0.5472
   76SLPC   C27 6847   0.411   5.662   7.712  0.8679  0.1003  0.0882
   76SLPC   H7R 6848   0.339   5.578   7.714  1.6744 -0.5928  0.4998
   76SLPC   H7S 6849   0.345   5.750   7.694 -1.2225 -1.2648  0.7490
   76SLPC   C28 6850   0.489   5.691   7.845 -0.1561  0.3126 -1.0946
   76SLPC   H8R 6851   0.552   5.781   7.827  0.4103 -0.2156 -1.8242
   76SLPC   H8S 6852   0.414   5.706   7.925  0.4068 -0.4835 -0.4112
   76SLPC   C29 6853   0.556   5.566   7.888  0.3964  0.8407 -0.0878
   76SLPC   H9R 6854   0.621   5.510   7.820 -1.7411  0.2259 -1.7330
   76SLPC  C210 6855   0.545   5.519   8.009  0.2955  0.0239 -0.3139
   76SLPC  H10R 6856   0.599   5.428   8.037 -0.9636 -0.8807 -0.7270
   76SLPC  C211 6857   0.468   5.585   8.129 -0.0147  0.1486  0.6494
   76SLPC  H11R 6858   0.362   5.602   8.100  0.0138 -1.7237 -0.6689
   76SLPC  H11S 6859   0.519   5.681   8.155  0.3907  0.5482 -1.4378
   76SLPC  C212 6860   0.477   5.498   8.250  0.0254  0.3036 -0.9169
   76SLPC  H12R 6861   0.414   5.409   8.234  0.0575  0.2877 -0.9540
   76SLPC  C213 6862   0.549   5.514   8.364  0.4437  0.4443  0.1349
   76SLPC  H13R 6863   0.550   5.428   8.431  0.1693  1.1111  1.0103
   76SLPC  C214 6864   0.633   5.636   8.404  0.1747 -0.3104 -0.1947
   76SLPC  H14R 6865   0.596   5.670   8.503 -1.5789 -1.1365 -0.5313
   76SLPC  H14S 6866   0.608   5.718   8.334  0.0803 -0.9221 -0.8938
   76SLPC  C215 6867   0.785   5.614   8.404  0.1520  0.3914 -0.1039
   76SLPC  H15R 6868   0.826   5.560   8.315  1.8050  2.3336 -0.5964
   76SLPC  H15S 6869   0.810   5.562   8.499 -2.3454  1.2021  1.0813
   76SLPC  C216 6870   0.854   5.749   8.408 -0.5664 -0.4097 -0.4799
   76SLPC  H16R 6871   0.813   5.805   8.322 -0.9952 -1.0059 -0.6744
   76SLPC  H16S 6872   0.964   5.744   8.390 -0.5867 -0.2890 -0.6412
   76SLPC  C217 6873   0.842   5.828   8.543 -0.5110  0.5058  0.5114
   76SLPC  H17R 6874   0.738   5.814   8.579 -1.6332  0.2305 -2.5886
   76SLPC  H17S 6875   0.844   5.934   8.510 -0.4939  0.3934  0.1568
   76SLPC  C218 6876   0.956   5.802   8.640  0.7144  0.8545 -0.9273
   76SLPC  H18R 6877   1.052   5.827   8.589  0.2335  1.6464 -1.4666
   76SLPC  H18S 6878   0.959   5.694   8.664 -1.8802  0.9815  0.2406
   76SLPC  H18T 6879   0.951   5.867   8.730  1.0081  0.3642 -0.5529
   76SLPC   C33 6880   0.103   5.149   7.144 -0.1501  0.9681  0.4030
   76SLPC   H3X 6881   0.046   5.219   7.209  1.4420  0.9251  1.9235
   76SLPC   H3Y 6882   0.191   5.216   7.139  0.4941  0.1562  0.5892
   76SLPC   C34 6883   0.136   5.017   7.218 -0.6821 -0.5379  0.0316
   76SLPC   H4X 6884   0.243   4.984   7.216 -0.9382 -1.4207  0.3766
   76SLPC   H4Y 6885   0.099   4.927   7.164 -0.7965  0.2121 -1.1749
   76SLPC   C35 6886   0.100   5.025   7.370  0.2454  0.1630 -0.1739
   76SLPC   H5X 6887  -0.009   5.012   7.386  0.6207 -1.1845  1.5785
   76SLPC   H5Y 6888   0.143   5.116   7.416  1.2560 -1.4551  2.3082
   76SLPC   C36 6889   0.169   4.914   7.448  0.7700 -0.2977 -0.3200
   76SLPC   H6X 6890   0.276   4.941   7.436  0.3793  0.8439 -1.3910
   76SLPC   H6Y 6891   0.146   4.815   7.403 -0.9837  0.1179 -0.3852
   76SLPC   C37 6892   0.115   4.922   7.588  0.1907 -0.4630 -0.1669
   76SLPC   H7X 6893   0.007   4.896   7.579  0.0433  0.3224 -0.7609
   76SLPC   H7Y 6894   0.138   5.023   7.627  1.2595 -0.6762 -0.2252
   76SLPC   C38 6895   0.175   4.817   7.678  0.0157 -0.0956  0.0327
   76SLPC   H8X 6896   0.166   4.722   7.620  0.9253  1.0618 -2.0733
   76SLPC   H8Y 6897   0.102   4.797   7.760  0.8449 -0.6464  0.6583
   76SLPC   C39 6898   0.323   4.845   7.718  0.5547  0.4275 -0.2360
   76SLPC   H9X 6899   0.307   4.944   7.766 -0.5457 -0.1240  0.5832
   76SLPC   H9Y 6900   0.388   4.841   7.629 -0.0641 -0.6321 -0.6572
   76SLPC  C310 6901   0.391   4.747   7.810  0.2039  0.1172  0.1522
   76SLPC  H10X 6902   0.498   4.776   7.814 -0.1116  1.5009 -0.8474
   76SLPC  H10Y 6903   0.388   4.642   7.771 -2.2099 -0.0788  0.6849
   76SLPC  C311 6904   0.335   4.761   7.956 -0.2451 -0.1468 -0.0285
   76SLPC  H11X 6905   0.239   4.817   7.955  0.1132  0.6195  2.2613
   76SLPC  H11Y 6906   0.407   4.830   8.005  2.1207 -2.1518 -0.4995
   76SLPC  C312 6907   0.330   4.627   8.024  0.1556 -0.2393 -0.2191
   76SLPC  H12X 6908   0.415   4.558   8.006  0.6446  0.1360  0.5900
   76SLPC  H12Y 6909   0.241   4.580   7.976 -0.2356  0.1150  0.1555
   76SLPC  C313 6910   0.284   4.651   8.169 -0.2021  0.3198 -0.3502
   76SLPC  H13X 6911   0.237   4.553   8.187  0.1255  0.5554  2.0706
   76SLPC  H13Y 6912   0.200   4.721   8.183 -0.4899 -0.4776  2.3625
   76SLPC  C314 6913   0.400   4.674   8.263 -0.5246 -0.3285  0.0986
   76SLPC  H14X 6914   0.360   4.713   8.359  1.1311  1.0461  0.2874
   76SLPC  H14Y 6915   0.462   4.754   8.216  0.3293 -1.4604 -0.7375
   76SLPC  C315 6916   0.486   4.545   8.291  0.9774  0.4851  0.4003
   76SLPC  H15X 6917   0.531   4.507   8.197  0.5630 -0.5643  0.6223
   76SLPC  H15Y 6918   0.419   4.464   8.324  0.9696  0.2614 -0.1561
   76SLPC  C316 6919   0.594   4.555   8.395 -0.2903  0.1493  0.0390
   76SLPC  H16X 6920   0.636   4.658   8.386  0.9205 -0.2359  0.9626
   76SLPC  H16Y 6921   0.686   4.496   8.376  0.3856  0.7819  1.1727
   76SLPC  C317 6922   0.547   4.531   8.534  0.2511  0.5647 -0.4949
   76SLPC  H17X 6923   0.514   4.426   8.546 -1.0856  1.0610  0.4722
   76SLPC  H17Y 6924   0.447   4.578   8.537 -0.4849 -0.8678  2.9224
   76SLPC  C318 6925   0.635   4.587   8.653 -0.1297 -0.1820  0.4488
   76SLPC  H18X 6926   0.717   4.512   8.661  1.0261  0.9695 -0.3423
   76SLPC  H18Y 6927   0.572   4.577   8.745  0.4469  1.6082  1.0734
   76SLPC  H18Z 6928   0.660   4.688   8.616 -0.8498 -0.5861 -1.2494
   77SLPC     N 6929   2.496   5.697   6.352  0.3194  0.0613  0.1567
   77SLPC   C13 6930   2.600   5.760   6.258 -0.1698  0.7968  0.3677
   77SLPC  H13A 6931   2.559   5.800   6.166 -0.8247 -1.8064 -0.5515
   77SLPC  H13B 6932   2.641   5.846   6.309  2.0177  0.9064 -1.4068
   77SLPC  H13C 6933   2.676   5.687   6.235 -0.7045  0.7742 -1.4552
   77SLPC   C14 6934   2.572   5.650   6.473 -0.3748  0.3527  0.3343
   77SLPC  H14A 6935   2.649   5.579   6.448  1.1970  1.4240  1.8487
   77SLPC  H14B 6936   2.625   5.731   6.521 -0.2591  0.3309  0.2401
   77SLPC  H14C 6937   2.494   5.611   6.537 -0.0004  0.4771  0.8744
   77SLPC   C15 6938   2.437   5.582   6.284  0.0978 -0.1817  0.6270
   77SLPC  H15A 6939   2.372   5.533   6.354  0.9718 -0.1125  1.5058
   77SLPC  H15B 6940   2.378   5.601   6.196  0.8052 -3.9281 -0.8618
   77SLPC  H15C 6941   2.505   5.499   6.271  1.2442  0.4096  2.4186
   77SLPC   C12 6942   2.390   5.796   6.389 -0.1515 -0.1509  0.0073
   77SLPC  H12A 6943   2.310   5.752   6.446 -1.2030  1.1226 -0.4332
   77SLPC  H12B 6944   2.340   5.841   6.304  0.6947  2.1715  0.6590
   77SLPC   C11 6945   2.440   5.924   6.472 -0.2294  0.2888 -0.5684
   77SLPC  H11A 6946   2.461   5.884   6.573 -0.1586  0.5413 -0.4828
   77SLPC  H11B 6947   2.355   5.993   6.490  0.7798  1.2838  0.5817
   77SLPC     P 6948   2.648   6.085   6.488 -0.1593  0.3901  0.2373
   77SLPC   O13 6949   2.775   6.086   6.409 -0.1371 -0.7696  0.7243
   77SLPC   O14 6950   2.575   6.210   6.491  0.1649  0.8985 -0.3894
   77SLPC   O12 6951   2.552   5.987   6.405 -0.1984 -0.6188  0.3034
   77SLPC   O11 6952   2.652   6.026   6.629 -0.6393  0.2228  0.4560
   77SLPC    C1 6953   2.755   5.940   6.672  0.3826  0.5533  0.0070
   77SLPC    HA 6954   2.747   5.840   6.624  0.8692  0.2569  0.5233
   77SLPC    HB 6955   2.858   5.976   6.652  1.6176 -1.8221  1.5591
   77SLPC    C2 6956   2.744   5.915   6.822 -0.2370  0.4067 -0.7823
   77SLPC    HS 6957   2.802   5.827   6.855 -0.1878  0.7609  0.1127
   77SLPC   O21 6958   2.605   5.898   6.864 -0.4804  0.2766  0.3659
   77SLPC   C21 6959   2.565   5.768   6.856 -0.2963  0.0917 -0.0874
   77SLPC   O22 6960   2.634   5.677   6.818  1.1241 -0.0704  0.4484
   77SLPC   C22 6961   2.426   5.755   6.903 -0.5990 -0.1812 -0.0529
   77SLPC   H2R 6962   2.366   5.820   6.835  0.0037 -0.1923 -0.6040
   77SLPC   H2S 6963   2.385   5.654   6.879  0.7977 -0.6824 -0.4005
   77SLPC    C3 6964   2.796   6.046   6.894 -0.2800  0.0848 -0.2818
   77SLPC    HX 6965   2.732   6.115   6.835  0.9093  2.1320  0.6919
   77SLPC    HY 6966   2.903   6.069   6.871  0.3673 -2.9601 -0.7879
   77SLPC   O31 6967   2.781   6.043   7.037  0.7635  0.2148 -0.1020
   77SLPC   C31 6968   2.661   6.077   7.089 -0.4106 -0.0957  0.5188
   77SLPC   O32 6969   2.568   6.126   7.024 -0.3606  0.6453  0.4883
   77SLPC   C32 6970   2.650   6.013   7.228  0.7593  1.1348  0.3660
   77SLPC   H2X 6971   2.724   6.067   7.291 -1.2510  1.6756  2.4042
   77SLPC   H2Y 6972   2.674   5.907   7.207 -1.5104  0.7077 -0.3278
   77SLPC   C23 6973   2.400   5.797   7.045 -0.0504  0.1437 -0.5157
   77SLPC   H3R 6974   2.291   5.795   7.068  0.2197 -3.4052  1.0987
   77SLPC   H3S 6975   2.432   5.903   7.059  0.5314 -0.0234 -0.5507
   77SLPC   C24 6976   2.462   5.701   7.150  0.3783  0.0791  0.4950
   77SLPC   H4R 6977   2.447   5.750   7.248 -1.0552  1.8390 -0.5406
   77SLPC   H4S 6978   2.573   5.704   7.138  0.4116  0.2049  0.8339
   77SLPC   C25 6979   2.410   5.563   7.150  0.5355  0.7210 -0.2240
   77SLPC   H5R 6980   2.419   5.514   7.051  0.1158  1.0260 -0.4162
   77SLPC   H5S 6981   2.301   5.563   7.171  0.6039 -0.5870  0.2537
   77SLPC   C26 6982   2.482   5.468   7.246  0.4173 -0.3664  0.1931
   77SLPC   H6R 6983   2.592   5.480   7.238  0.8020 -3.9115 -2.3433
   77SLPC   H6S 6984   2.478   5.363   7.212  1.0086 -0.6743  1.0527
   77SLPC   C27 6985   2.438   5.498   7.389  0.1093  1.0747 -0.5087
   77SLPC   H7R 6986   2.332   5.524   7.407  0.3052  0.6221  1.6280
   77SLPC   H7S 6987   2.487   5.589   7.430 -1.6215  1.9146 -0.2112
   77SLPC   C28 6988   2.459   5.373   7.479  0.6128 -0.5642  0.8663
   77SLPC   H8R 6989   2.421   5.277   7.438 -3.2613  1.0416  0.2486
   77SLPC   H8S 6990   2.397   5.381   7.570 -0.7756 -0.3395 -0.0685
   77SLPC   C29 6991   2.597   5.335   7.515  0.0159  0.7093  0.1616
   77SLPC   H9R 6992   2.671   5.333   7.433 -0.6770  1.0104 -0.4784
   77SLPC  C210 6993   2.645   5.300   7.636  0.2849 -0.5260 -0.0837
   77SLPC  H10R 6994   2.755   5.291   7.638  0.4782  0.3188 -2.6997
   77SLPC  C211 6995   2.577   5.298   7.770  0.2571  0.3373  0.3787
   77SLPC  H11R 6996   2.494   5.371   7.767 -0.1140 -0.0878  0.0291
   77SLPC  H11S 6997   2.663   5.323   7.835 -1.3557  0.1536  2.7302
   77SLPC  C212 6998   2.527   5.158   7.814 -0.3101 -0.2401  0.4640
   77SLPC  H12R 6999   2.600   5.081   7.840  1.3520  1.0422 -0.2684
   77SLPC  C213 7000   2.400   5.119   7.813 -0.2375 -0.2638  0.0630
   77SLPC  H13R 7001   2.401   5.009   7.825  1.7327 -0.4082 -0.8675
   77SLPC  C214 7002   2.276   5.195   7.769  0.5251 -0.7024  0.7639
   77SLPC  H14R 7003   2.229   5.157   7.676  2.1972  1.1846 -0.9551
   77SLPC  H14S 7004   2.299   5.299   7.738  1.0461 -0.8212  0.7408
   77SLPC  C215 7005   2.168   5.192   7.882 -0.3564 -0.5082 -0.4052
   77SLPC  H15R 7006   2.122   5.091   7.889 -0.0076 -0.6917 -0.7241
   77SLPC  H15S 7007   2.094   5.267   7.847 -1.2460  0.3097  2.8931
   77SLPC  C216 7008   2.221   5.244   8.020  0.2498  0.0704  0.1947
   77SLPC  H16R 7009   2.285   5.332   7.995 -0.3256  0.0147 -1.5758
   77SLPC  H16S 7010   2.288   5.166   8.061 -0.5496  0.5983  2.7105
   77SLPC  C217 7011   2.121   5.265   8.122 -0.3880 -0.4438  1.0791
   77SLPC  H17R 7012   2.185   5.285   8.210  0.1766  0.0633  0.5630
   77SLPC  H17S 7013   2.058   5.176   8.143 -2.1545  0.1318 -1.2715
   77SLPC  C218 7014   2.032   5.384   8.114 -0.2369 -0.2770  0.2407
   77SLPC  H18R 7015   1.964   5.384   8.026 -0.9016  0.5220  0.7377
   77SLPC  H18S 7016   2.087   5.481   8.114 -1.8650  0.7083  1.3800
   77SLPC  H18T 7017   1.954   5.383   8.194 -0.5090 -0.4966 -0.0271
   77SLPC   C33 7018   2.516   6.033   7.299  0.4958 -0.2776  0.1961
   77SLPC   H3X 7019   2.439   5.969   7.250  1.0469 -0.2670 -0.7101
   77SLPC   H3Y 7020   2.483   6.139   7.289  0.0049 -0.4158  0.3218
   77SLPC   C34 7021   2.519   6.000   7.457 -0.1060  0.6307  0.4504
   77SLPC   H4X 7022   2.450   6.071   7.507 -1.0763 -0.5152  0.7711
   77SLPC   H4Y 7023   2.617   6.022   7.504  0.0396 -0.5358  0.7041
   77SLPC   C35 7024   2.469   5.863   7.487 -0.1402  0.5995  0.0793
   77SLPC   H5X 7025   2.541   5.786   7.453 -0.7512  0.8476 -1.8950
   77SLPC   H5Y 7026   2.369   5.848   7.439  0.0001  0.0718 -0.0587
   77SLPC   C36 7027   2.431   5.838   7.634  1.0330  0.0742 -0.2566
   77SLPC   H6X 7028   2.331   5.886   7.648  1.7344  1.8388 -0.9491
   77SLPC   H6Y 7029   2.504   5.892   7.698 -0.3743  0.6075  0.9598
   77SLPC   C37 7030   2.419   5.690   7.675  0.3354 -0.2771  0.4521
   77SLPC   H7X 7031   2.518   5.640   7.664  1.3894  2.2241 -3.0514
   77SLPC   H7Y 7032   2.344   5.637   7.614 -0.5323  0.7741  0.5767
   77SLPC   C38 7033   2.379   5.667   7.826 -0.2424 -0.3220  0.3615
   77SLPC   H8X 7034   2.415   5.563   7.844 -0.4451 -1.0786 -2.9818
   77SLPC   H8Y 7035   2.269   5.662   7.842 -0.2175  0.3331  0.7618
   77SLPC   C39 7036   2.453   5.751   7.924 -0.2962  0.0324  0.0158
   77SLPC   H9X 7037   2.448   5.861   7.906 -0.3919 -0.1291 -0.9833
   77SLPC   H9Y 7038   2.556   5.710   7.914 -0.9323 -1.5583 -0.2385
   77SLPC  C310 7039   2.421   5.721   8.076  0.3094 -0.2231  1.3993
   77SLPC  H10X 7040   2.498   5.786   8.123 -0.7111  1.4202  0.8839
   77SLPC  H10Y 7041   2.443   5.613   8.088 -0.7185 -0.7944 -1.2793
   77SLPC  C311 7042   2.294   5.778   8.122  0.2779  0.1716  0.4055
   77SLPC  H11X 7043   2.206   5.742   8.065  1.1217  1.0617 -1.5559
   77SLPC  H11Y 7044   2.296   5.888   8.106 -0.1656  0.4646  2.1312
   77SLPC  C312 7045   2.279   5.749   8.274 -0.3412  0.4704  0.3739
   77SLPC  H12X 7046   2.208   5.826   8.312  0.0481  0.3211  1.4382
   77SLPC  H12Y 7047   2.380   5.768   8.316 -0.4862 -1.7966  1.8914
   77SLPC  C313 7048   2.236   5.607   8.307 -0.5663 -0.5242  0.6825
   77SLPC  H13X 7049   2.288   5.529   8.247  3.3075  1.7737  0.6782
   77SLPC  H13Y 7050   2.130   5.616   8.275 -0.0709  2.3207 -0.4322
   77SLPC  C314 7051   2.249   5.580   8.459  0.4147  0.3674 -0.0198
   77SLPC  H14X 7052   2.359   5.572   8.478 -0.0615 -1.1704  2.5962
   77SLPC  H14Y 7053   2.212   5.476   8.474  0.2362  0.4260 -0.0548
   77SLPC  C315 7054   2.186   5.677   8.555  1.1733  0.4273  0.1718
   77SLPC  H15X 7055   2.078   5.654   8.545  0.7713  0.9381  2.5930
   77SLPC  H15Y 7056   2.200   5.783   8.525  0.8080  0.4314  0.0085
   77SLPC  C316 7057   2.242   5.645   8.696  0.4315 -0.1939 -1.0890
   77SLPC  H16X 7058   2.351   5.663   8.681  0.0532  2.0592 -1.5003
   77SLPC  H16Y 7059   2.220   5.538   8.711 -0.1532  0.0550 -0.1104
   77SLPC  C317 7060   2.158   5.710   8.805 -0.5002 -0.7930 -0.6988
   77SLPC  H17X 7061   2.048   5.709   8.789 -0.8102  0.6550  1.0840
   77SLPC  H17Y 7062   2.173   5.819   8.792 -0.6107 -1.0522 -3.7424
   77SLPC  C318 7063   2.202   5.659   8.947 -0.2506 -0.4091  0.6321
   77SLPC  H18X 7064   2.125   5.675   9.025 -0.6270  0.8507  0.0334
   77SLPC  H18Y 7065   2.290   5.719   8.979 -0.0393  0.9852 -2.2235
   77SLPC  H18Z 7066   2.229   5.552   8.940 -1.3531 -0.6516 -0.3527
   78SLPC     N 7067   4.080   4.571   6.251 -0.2924  0.0869 -0.2679
   78SLPC   C13 7068   4.005   4.490   6.349  0.0236  0.0705 -0.4803
   78SLPC  H13A 7069   3.910   4.535   6.372 -0.1166 -0.7308  0.5584
   78SLPC  H13B 7070   3.990   4.388   6.317  0.3868 -1.0496  2.5797
   78SLPC  H13C 7071   4.053   4.495   6.446  2.1189  0.2569 -1.4688
   78SLPC   C14 7072   4.021   4.549   6.110  0.3420 -0.3934 -0.2189
   78SLPC  H14A 7073   4.074   4.610   6.039  3.4288  0.9386  2.9244
   78SLPC  H14B 7074   4.002   4.447   6.080  1.6341 -0.6031 -0.4034
   78SLPC  H14C 7075   3.924   4.596   6.118  0.3672 -0.4600  0.6112
   78SLPC   C15 7076   4.224   4.529   6.252 -0.5441  0.5036 -0.1757
   78SLPC  H15A 7077   4.229   4.421   6.259  0.4321  0.5752  0.3027
   78SLPC  H15B 7078   4.277   4.569   6.167 -0.3248 -0.3192 -0.4358
   78SLPC  H15C 7079   4.276   4.573   6.335  0.3577  1.1178 -1.0498
   78SLPC   C12 7080   4.073   4.711   6.301 -0.3424  0.1496  0.4869
   78SLPC  H12A 7081   4.123   4.723   6.397  0.5110 -0.0540  0.0822
   78SLPC  H12B 7082   3.971   4.737   6.321 -0.9835 -1.7195 -0.1614
   78SLPC   C11 7083   4.123   4.822   6.206 -0.0720 -0.3167 -0.6127
   78SLPC  H11A 7084   4.076   4.919   6.232  1.1938  0.3025 -0.5326
   78SLPC  H11B 7085   4.088   4.809   6.101  0.1249  4.1128 -1.4373
   78SLPC     P 7086   4.353   4.909   6.303  0.1648 -0.4381 -0.1441
   78SLPC   O13 7087   4.493   4.861   6.301 -0.1992  0.2736  0.4076
   78SLPC   O14 7088   4.338   5.060   6.278  0.1367  0.1191  0.0714
   78SLPC   O12 7089   4.265   4.828   6.198 -0.4412 -0.2353  0.8697
   78SLPC   O11 7090   4.293   4.875   6.444  0.4525  0.1333 -0.3513
   78SLPC    C1 7091   4.238   4.964   6.532  0.8683  0.4362 -0.1649
   78SLPC    HA 7092   4.212   5.058   6.478 -1.3228  0.5724  1.0143
   78SLPC    HB 7093   4.146   4.927   6.582 -0.5677  1.7272 -1.7222
   78SLPC    C2 7094   4.330   5.003   6.654  0.1602  0.0500  0.3389
   78SLPC    HS 7095   4.430   5.031   6.617 -0.5361  1.4365 -0.5357
   78SLPC   O21 7096   4.329   4.888   6.739  0.0605 -0.1201  0.0526
   78SLPC   C21 7097   4.435   4.851   6.794 -0.0593 -0.3025 -0.7457
   78SLPC   O22 7098   4.550   4.881   6.769  0.0692  0.2849  0.8070
   78SLPC   C22 7099   4.391   4.764   6.913 -0.1752  0.5001  0.0943
   78SLPC   H2R 7100   4.300   4.706   6.889  0.4036 -0.7336  0.7746
   78SLPC   H2S 7101   4.479   4.697   6.922 -0.7616 -0.3504 -0.3606
   78SLPC    C3 7102   4.280   5.128   6.728 -0.6156 -0.1170 -0.4384
   78SLPC    HX 7103   4.175   5.119   6.762 -1.0307  0.8479 -1.3891
   78SLPC    HY 7104   4.277   5.212   6.656  1.7927  1.2735  0.9679
   78SLPC   O31 7105   4.374   5.164   6.842  0.8121 -0.1165  0.3974
   78SLPC   C31 7106   4.458   5.260   6.820  0.2828  0.1144  0.7204
   78SLPC   O32 7107   4.483   5.321   6.716  0.2586 -0.4307  0.4432
   78SLPC   C32 7108   4.530   5.291   6.954 -0.2982 -0.3173  0.6303
   78SLPC   H2X 7109   4.527   5.209   7.028 -1.7039 -1.4585 -0.6270
   78SLPC   H2Y 7110   4.478   5.381   6.994  0.2662  1.0775 -1.5549
   78SLPC   C23 7111   4.353   4.851   7.035  0.2862  0.4844  0.3464
   78SLPC   H3R 7112   4.279   4.796   7.097 -0.1588  0.6375 -0.0477
   78SLPC   H3S 7113   4.303   4.943   6.998  2.4714  1.2060 -0.9957
   78SLPC   C24 7114   4.473   4.892   7.111  0.7764  0.3994 -0.4200
   78SLPC   H4R 7115   4.548   4.933   7.040 -0.2373 -1.8141 -2.9574
   78SLPC   H4S 7116   4.520   4.799   7.149  1.3054  1.3800  1.4384
   78SLPC   C25 7117   4.452   4.999   7.222 -0.3901  0.3966 -0.0808
   78SLPC   H5R 7118   4.395   5.083   7.177 -1.8874 -0.0289  0.9257
   78SLPC   H5S 7119   4.548   5.048   7.251 -0.2633  1.7460 -2.5405
   78SLPC   C26 7120   4.362   4.953   7.335  0.1045 -0.0058 -0.0771
   78SLPC   H6R 7121   4.371   4.850   7.374 -1.6942 -0.2991 -0.3741
   78SLPC   H6S 7122   4.255   4.956   7.305 -0.1773 -1.6942  0.6335
   78SLPC   C27 7123   4.375   5.048   7.457 -0.1824 -0.6702 -0.4512
   78SLPC   H7R 7124   4.279   5.043   7.513 -1.4338 -2.8387 -2.5710
   78SLPC   H7S 7125   4.387   5.153   7.424  0.4516 -0.0304  1.6616
   78SLPC   C28 7126   4.478   4.995   7.556 -0.2253 -0.1518  0.3161
   78SLPC   H8R 7127   4.573   4.958   7.512 -0.9652 -1.7769  0.0521
   78SLPC   H8S 7128   4.436   4.907   7.610  2.0016  0.7790  3.9587
   78SLPC   C29 7129   4.511   5.103   7.661 -0.6272 -0.2163  0.1044
   78SLPC   H9R 7130   4.549   5.200   7.628 -0.3924 -0.4480 -0.3065
   78SLPC  C210 7131   4.519   5.091   7.796 -0.7906 -0.1234  0.0160
   78SLPC  H10R 7132   4.565   5.173   7.852 -0.2640 -0.3411 -0.0912
   78SLPC  C211 7133   4.479   4.961   7.869  0.9039  0.0271 -0.6418
   78SLPC  H11R 7134   4.567   4.896   7.887  0.4677 -0.6775 -1.0354
   78SLPC  H11S 7135   4.407   4.894   7.818 -0.0544  0.7064 -0.2166
   78SLPC  C212 7136   4.418   4.999   8.001 -0.4361  0.0295  0.4888
   78SLPC  H12R 7137   4.321   5.047   7.987 -0.0042  1.2005  1.3320
   78SLPC  C213 7138   4.471   5.002   8.122 -0.0750 -0.7621  0.6245
   78SLPC  H13R 7139   4.407   5.031   8.207 -0.9626 -2.0152  0.4123
   78SLPC  C214 7140   4.612   4.964   8.161  0.2161  0.4585  0.1531
   78SLPC  H14R 7141   4.667   5.057   8.188  1.7223 -0.3123 -0.1330
   78SLPC  H14S 7142   4.672   4.921   8.078  0.1546  2.4823 -1.0197
   78SLPC  C215 7143   4.623   4.858   8.273  0.4639  0.6562  0.5427
   78SLPC  H15R 7144   4.725   4.813   8.276 -0.1677 -0.7930  1.5170
   78SLPC  H15S 7145   4.554   4.782   8.230  0.7547  1.0789 -0.7054
   78SLPC  C216 7146   4.585   4.916   8.406 -0.6539 -0.1075 -0.1857
   78SLPC  H16R 7147   4.478   4.948   8.406 -0.0258  2.2377  1.5027
   78SLPC  H16S 7148   4.645   5.008   8.423 -0.2730 -0.3940  0.0383
   78SLPC  C217 7149   4.616   4.814   8.516  0.2122  0.0683 -0.4305
   78SLPC  H17R 7150   4.724   4.788   8.521 -0.0740 -1.1463 -0.2650
   78SLPC  H17S 7151   4.564   4.718   8.494 -1.6060  0.1424  2.9011
   78SLPC  C218 7152   4.572   4.877   8.652 -0.6470  0.5425 -0.6370
   78SLPC  H18R 7153   4.650   4.952   8.677 -0.8141  0.8303 -0.9718
   78SLPC  H18S 7154   4.583   4.796   8.728  4.8138  0.5248 -1.0116
   78SLPC  H18T 7155   4.469   4.918   8.649 -1.7118 -1.2790  3.6566
   78SLPC   C33 7156   4.686   5.305   6.923  0.2571 -0.1929  0.0350
   78SLPC   H3X 7157   4.698   5.412   6.894 -0.5689  0.2829  1.3582
   78SLPC   H3Y 7158   4.706   5.230   6.844 -1.4078 -0.8206  0.1798
   78SLPC   C34 7159   4.776   5.279   7.042 -0.6304  0.0258  0.6416
   78SLPC   H4X 7160   4.883   5.288   7.014 -1.0027  1.5050 -0.4286
   78SLPC   H4Y 7161   4.763   5.169   7.054  3.9595 -0.9876 -1.5208
   78SLPC   C35 7162   4.751   5.359   7.170 -0.0465 -0.6201  0.1620
   78SLPC   H5X 7163   4.643   5.362   7.194  0.0054  2.8530  0.4476
   78SLPC   H5Y 7164   4.779   5.465   7.159  1.2173 -0.6239  2.5501
   78SLPC   C36 7165   4.826   5.304   7.289 -0.1788  0.3546 -0.3169
   78SLPC   H6X 7166   4.935   5.322   7.277 -0.0443 -1.0678 -1.4759
   78SLPC   H6Y 7167   4.820   5.193   7.290  0.6288  0.2660  2.0249
   78SLPC   C37 7168   4.762   5.355   7.414  0.2725 -0.5942 -0.0875
   78SLPC   H7X 7169   4.656   5.325   7.428  0.0840  1.2087  3.4866
   78SLPC   H7Y 7170   4.765   5.466   7.421 -1.2144 -0.5082 -0.5658
   78SLPC   C38 7171   4.836   5.309   7.546  0.3764  1.1816 -0.0323
   78SLPC   H8X 7172   4.945   5.327   7.534  0.2130  1.7701 -0.7375
   78SLPC   H8Y 7173   4.819   5.199   7.552 -0.4654  1.0620 -3.0084
   78SLPC   C39 7174   4.786   5.368   7.681 -0.4731 -0.1745 -0.1446
   78SLPC   H9X 7175   4.682   5.339   7.711 -0.2876  0.1866  0.9141
   78SLPC   H9Y 7176   4.800   5.478   7.672  1.4650 -0.0664  2.6657
   78SLPC  C310 7177   4.876   5.342   7.796 -0.5684  1.2908  0.0123
   78SLPC  H10X 7178   4.979   5.382   7.784 -0.6675  2.0579  1.5053
   78SLPC  H10Y 7179   4.883   5.233   7.814 -1.2593  0.9769 -1.4326
   78SLPC  C311 7180   4.821   5.401   7.939 -0.4443  0.3735  0.6314
   78SLPC  H11X 7181   4.713   5.396   7.963 -0.3266 -2.6818  0.8173
   78SLPC  H11Y 7182   4.857   5.506   7.948 -1.7895  0.8789  0.4058
   78SLPC  C312 7183   4.880   5.315   8.052 -0.0762  0.5046 -0.0682
   78SLPC  H12X 7184   4.990   5.309   8.037  0.1144  0.2405  1.2946
   78SLPC  H12Y 7185   4.829   5.219   8.031  2.5015 -0.6839 -1.3550
   78SLPC  C313 7186   4.839   5.378   8.189  0.0686 -0.7904  0.1760
   78SLPC  H13X 7187   4.730   5.398   8.185  0.1648  0.7814  3.1431
   78SLPC  H13Y 7188   4.888   5.478   8.192 -0.0789 -0.6451 -1.3726
   78SLPC  C314 7189   4.872   5.298   8.315  0.2182 -0.3153 -0.8951
   78SLPC  H14X 7190   4.982   5.288   8.317  0.6023  2.9459 -0.0556
   78SLPC  H14Y 7191   4.832   5.194   8.321 -0.7145  0.0744  0.1634
   78SLPC  C315 7192   4.817   5.370   8.443  0.4406  0.1394 -0.2194
   78SLPC  H15X 7193   4.707   5.388   8.437  0.9114  3.2572 -1.5360
   78SLPC  H15Y 7194   4.873   5.463   8.466 -0.4333  0.7731 -0.5836
   78SLPC  C316 7195   4.846   5.277   8.567 -0.0478 -0.7810  0.0460
   78SLPC  H16X 7196   4.955   5.278   8.591 -0.0281 -0.0998 -0.0396
   78SLPC  H16Y 7197   4.814   5.172   8.553  1.5575 -1.2061 -0.7117
   78SLPC  C317 7198   4.772   5.326   8.697 -0.5083 -0.7977 -0.3201
   78SLPC  H17X 7199   4.662   5.337   8.682 -0.9381  1.2875  3.1388
   78SLPC  H17Y 7200   4.800   5.433   8.702  2.7744 -1.4749 -1.5027
   78SLPC  C318 7201   4.796   5.249   8.825  0.0097  0.5137 -0.4245
   78SLPC  H18X 7202   4.903   5.226   8.844 -0.0578 -0.5987 -1.2963
   78SLPC  H18Y 7203   4.746   5.153   8.802 -0.7998  0.4391  1.4915
   78SLPC  H18Z 7204   4.756   5.304   8.913 -0.1025  0.3885 -0.3954
   79SLPC     N 7205   0.818   0.308   6.191  0.1510 -0.1676  0.2940
   79SLPC   C13 7206   0.962   0.329   6.225  0.3569 -0.3717  0.5199
   79SLPC  H13A 7207   1.034   0.276   6.164 -0.0968  0.9876 -1.3028
   79SLPC  H13B 7208   0.982   0.436   6.224 -0.8975 -0.1209 -0.7659
   79SLPC  H13C 7209   0.970   0.294   6.327 -0.7275 -2.2476  0.0071
   79SLPC   C14 7210   0.783   0.168   6.230 -0.3425 -0.1279 -0.5967
   79SLPC  H14A 7211   0.868   0.120   6.183  0.7221  1.0710  0.0501
   79SLPC  H14B 7212   0.801   0.154   6.336  2.1569  1.0638 -0.7981
   79SLPC  H14C 7213   0.693   0.124   6.190 -1.3125  1.5143 -0.3046
   79SLPC   C15 7214   0.797   0.311   6.046  0.1927 -0.7104  0.8444
   79SLPC  H15A 7215   0.850   0.234   5.992  0.9367  0.9653 -0.9020
   79SLPC  H15B 7216   0.694   0.293   6.018 -0.0317 -1.2325  1.9450
   79SLPC  H15C 7217   0.814   0.403   5.993 -2.4576 -1.0569 -0.8333
   79SLPC   C12 7218   0.733   0.406   6.261  1.4088 -0.6473 -0.2911
   79SLPC  H12A 7219   0.754   0.405   6.367 -0.5480 -1.6077  0.1470
   79SLPC  H12B 7220   0.631   0.373   6.245 -0.1784  4.0988 -1.6836
   79SLPC   C11 7221   0.724   0.558   6.218  0.3382  0.1525  0.0656
   79SLPC  H11A 7222   0.646   0.616   6.272  0.4804  0.7366 -0.3409
   79SLPC  H11B 7223   0.685   0.575   6.115 -0.1658  0.9433  0.3722
   79SLPC     P 7224   0.886   0.710   6.356  0.0047  0.1107  1.0929
   79SLPC   O13 7225   1.032   0.748   6.355 -0.5444 -0.0689  0.0561
   79SLPC   O14 7226   0.786   0.823   6.350 -0.1234  0.2075  0.0429
   79SLPC   O12 7227   0.854   0.613   6.236 -0.5033  0.5286  0.9847
   79SLPC   O11 7228   0.850   0.613   6.474 -0.0349 -0.2234  0.1387
   79SLPC    C1 7229   0.939   0.514   6.518  0.6470  0.1912  0.7654
   79SLPC    HA 7230   0.876   0.423   6.520  3.0024 -1.5289  1.5065
   79SLPC    HB 7231   1.030   0.492   6.457  0.9674  0.5630  1.1075
   79SLPC    C2 7232   0.996   0.547   6.653  0.3144 -0.0583 -0.0006
   79SLPC    HS 7233   1.079   0.476   6.675 -1.6456 -1.6979  2.7428
   79SLPC   O21 7234   0.901   0.534   6.764  0.3516 -0.3559  0.2071
   79SLPC   C21 7235   0.864   0.411   6.798 -0.7618 -0.0521 -0.2314
   79SLPC   O22 7236   0.908   0.310   6.738  0.3409  0.0168  0.0200
   79SLPC   C22 7237   0.769   0.412   6.924 -0.3053 -0.2061  0.2078
   79SLPC   H2R 7238   0.680   0.475   6.902 -1.3137 -1.0718  1.6059
   79SLPC   H2S 7239   0.740   0.307   6.945  3.1294 -1.2904  0.2395
   79SLPC    C3 7240   1.053   0.694   6.660  0.1917  0.7979 -0.5887
   79SLPC    HX 7241   0.964   0.760   6.653  0.3390  1.0012 -0.5683
   79SLPC    HY 7242   1.121   0.709   6.573 -1.8968  4.3662 -1.8024
   79SLPC   O31 7243   1.120   0.708   6.786 -0.1115  0.3775  0.0095
   79SLPC   C31 7244   1.064   0.777   6.893  0.1019  0.2293 -0.5676
   79SLPC   O32 7245   0.968   0.849   6.873  0.4444 -0.0177  0.1218
   79SLPC   C32 7246   1.143   0.754   7.017 -0.1377 -0.1424  0.2859
   79SLPC   H2X 7247   1.251   0.751   6.992 -0.2521  0.0836 -0.2563
   79SLPC   H2Y 7248   1.103   0.660   7.061 -1.1774 -0.0798 -0.4916
   79SLPC   C23 7249   0.841   0.468   7.050 -0.3179 -0.6088  0.3257
   79SLPC   H3R 7250   0.765   0.472   7.131  0.4614  0.2049  1.0251
   79SLPC   H3S 7251   0.879   0.572   7.041 -2.3756  0.2231  0.8435
   79SLPC   C24 7252   0.946   0.364   7.092 -0.6564 -0.3609 -0.2911
   79SLPC   H4R 7253   1.014   0.337   7.008  0.5748  0.1283  0.5084
   79SLPC   H4S 7254   0.898   0.272   7.131 -1.1920  0.2636  0.5635
   79SLPC   C25 7255   1.037   0.421   7.215  0.3297  1.0385  0.1466
   79SLPC   H5R 7256   1.115   0.488   7.173  0.6918 -0.3086 -1.4561
   79SLPC   H5S 7257   1.089   0.325   7.238  0.4917  1.1580  0.2776
   79SLPC   C26 7258   0.960   0.485   7.327  0.4957 -0.2923  0.5478
   79SLPC   H6R 7259   0.881   0.410   7.347 -0.4495  0.5256 -0.0372
   79SLPC   H6S 7260   0.899   0.568   7.287 -0.7309 -1.5595 -0.3017
   79SLPC   C27 7261   1.038   0.517   7.456  0.1835 -0.2601 -0.6821
   79SLPC   H7R 7262   0.977   0.568   7.533 -0.9709 -2.2615 -0.1810
   79SLPC   H7S 7263   1.129   0.572   7.424 -1.1826  0.5122 -3.5119
   79SLPC   C28 7264   1.090   0.390   7.527  0.5574  0.1961  0.6054
   79SLPC   H8R 7265   1.147   0.329   7.454 -1.0259 -0.6395  0.0224
   79SLPC   H8S 7266   1.009   0.321   7.555  0.1987  0.8250  1.1420
   79SLPC   C29 7267   1.173   0.422   7.644 -0.3001  0.0891  0.7889
   79SLPC   H9R 7268   1.263   0.474   7.610 -1.0830 -0.4121 -2.3656
   79SLPC  C210 7269   1.147   0.386   7.776 -1.2174  0.0193  0.4885
   79SLPC  H10R 7270   1.213   0.429   7.854 -3.2163  0.6857  1.8813
   79SLPC  C211 7271   1.030   0.315   7.824  0.5704  0.4466 -0.1817
   79SLPC  H11R 7272   0.973   0.273   7.738  2.0601 -1.6589 -0.2158
   79SLPC  H11S 7273   0.963   0.386   7.876 -0.9279  0.0542 -1.4889
   79SLPC  C212 7274   1.075   0.210   7.919  0.2008 -0.1259 -0.4849
   79SLPC  H12R 7275   1.140   0.136   7.868 -0.1567  0.9643 -2.6481
   79SLPC  C213 7276   1.042   0.190   8.053 -0.5548 -0.6248 -0.1077
   79SLPC  H13R 7277   1.089   0.113   8.117  0.6448  0.8576  0.8723
   79SLPC  C214 7278   0.946   0.278   8.128  0.2925 -0.6788  0.5391
   79SLPC  H14R 7279   0.858   0.286   8.061  0.7468  0.1852  0.0266
   79SLPC  H14S 7280   0.993   0.375   8.156 -0.6133 -0.2070  0.4675
   79SLPC  C215 7281   0.911   0.202   8.261 -0.7365 -0.0398 -0.2338
   79SLPC  H15R 7282   0.867   0.105   8.231 -1.8531  0.4864 -0.3645
   79SLPC  H15S 7283   0.830   0.257   8.314 -1.0348 -1.4997  0.8961
   79SLPC  C216 7284   1.032   0.205   8.360 -0.0003  0.3799 -0.3455
   79SLPC  H16R 7285   1.012   0.282   8.439  0.5805 -0.7552  0.9475
   79SLPC  H16S 7286   1.129   0.237   8.318  1.1353  2.9312  3.6031
   79SLPC  C217 7287   1.048   0.061   8.423 -0.4736 -0.2259 -0.1215
   79SLPC  H17R 7288   1.054  -0.010   8.339 -0.3332  0.3871 -0.6390
   79SLPC  H17S 7289   0.962   0.045   8.492 -0.3924  0.5393  0.1692
   79SLPC  C218 7290   1.185   0.050   8.497  0.2947  0.2614 -0.3009
   79SLPC  H18R 7291   1.185  -0.033   8.571  1.7499 -0.5273 -1.1434
   79SLPC  H18S 7292   1.185   0.135   8.569 -0.1760  1.7775 -2.0255
   79SLPC  H18T 7293   1.281   0.061   8.442  0.0194  1.0190 -0.6411
   79SLPC   C33 7294   1.125   0.876   7.114 -0.4272  0.0566 -0.2135
   79SLPC   H3X 7295   1.017   0.903   7.115 -0.7192 -1.0406 -0.8113
   79SLPC   H3Y 7296   1.184   0.964   7.079  0.4952 -0.6315 -0.4152
   79SLPC   C34 7297   1.164   0.848   7.261  0.4909  0.6196  0.4890
   79SLPC   H4X 7298   1.145   0.743   7.291 -0.8663  0.5395 -0.6007
   79SLPC   H4Y 7299   1.098   0.907   7.327 -1.9322 -1.3889  0.0066
   79SLPC   C35 7300   1.300   0.895   7.294 -0.4180  0.5304 -0.4910
   79SLPC   H5X 7301   1.305   1.005   7.307 -1.2486  0.6308 -0.9321
   79SLPC   H5Y 7302   1.365   0.873   7.206 -1.0630 -0.1608 -0.8161
   79SLPC   C36 7303   1.378   0.822   7.406  0.0277  0.2888 -0.7569
   79SLPC   H6X 7304   1.476   0.873   7.419 -0.6826  1.0014  3.1965
   79SLPC   H6Y 7305   1.379   0.711   7.401  0.7153  0.0489  2.3416
   79SLPC   C37 7306   1.320   0.856   7.546  1.3155  0.1366  0.7655
   79SLPC   H7X 7307   1.216   0.817   7.544  1.6221 -0.6829 -1.1983
   79SLPC   H7Y 7308   1.314   0.967   7.556  0.5933  0.2609 -0.6847
   79SLPC   C38 7309   1.401   0.793   7.653  0.1867 -0.0769 -0.2375
   79SLPC   H8X 7310   1.506   0.828   7.653 -0.2009  1.1693 -1.2234
   79SLPC   H8Y 7311   1.399   0.683   7.639 -1.9537  0.1478 -2.4132
   79SLPC   C39 7312   1.328   0.815   7.786  0.6762 -0.2254  0.1391
   79SLPC   H9X 7313   1.221   0.785   7.783 -0.0147  1.9803  0.9243
   79SLPC   H9Y 7314   1.325   0.923   7.813  0.4954 -0.3421  0.5800
   79SLPC  C310 7315   1.393   0.725   7.895 -0.6175  0.0196 -0.6892
   79SLPC  H10X 7316   1.493   0.764   7.920 -0.8876 -0.1440  0.7231
   79SLPC  H10Y 7317   1.412   0.629   7.843  2.1490  0.7854 -1.2470
   79SLPC  C311 7318   1.307   0.700   8.020 -0.5760 -0.4529  0.3173
   79SLPC  H11X 7319   1.199   0.684   7.997 -0.6208  1.7849 -1.3743
   79SLPC  H11Y 7320   1.303   0.800   8.067 -1.3918 -0.7160  0.8135
   79SLPC  C312 7321   1.366   0.593   8.112  0.2856 -0.2139 -0.3327
   79SLPC  H12X 7322   1.476   0.599   8.126  0.0010  1.1558  1.7705
   79SLPC  H12Y 7323   1.338   0.494   8.069  1.2146 -1.8699  2.5940
   79SLPC  C313 7324   1.306   0.606   8.249  0.3533 -0.4434 -0.3281
   79SLPC  H13X 7325   1.199   0.577   8.249 -0.7921  3.3247 -1.1292
   79SLPC  H13Y 7326   1.318   0.706   8.295 -1.9862  0.1738 -0.9716
   79SLPC  C314 7327   1.368   0.501   8.349  0.0144 -0.0686 -0.8402
   79SLPC  H14X 7328   1.472   0.528   8.375 -1.0249  3.9880 -0.2131
   79SLPC  H14Y 7329   1.366   0.399   8.306 -1.6348 -1.2085  1.7233
   79SLPC  C315 7330   1.292   0.504   8.489 -0.5407  0.4107 -0.0241
   79SLPC  H15X 7331   1.190   0.465   8.472  0.3152 -2.1172  0.1923
   79SLPC  H15Y 7332   1.284   0.605   8.536 -0.1173  1.3855 -1.9734
   79SLPC  C316 7333   1.355   0.420   8.596 -0.3906  0.7062 -0.7395
   79SLPC  H16X 7334   1.381   0.315   8.571 -0.6109 -0.1051  2.0519
   79SLPC  H16Y 7335   1.282   0.410   8.680  0.3170  2.0211  0.0677
   79SLPC  C317 7336   1.482   0.480   8.657 -0.0999 -0.6584  0.6324
   79SLPC  H17X 7337   1.467   0.583   8.695 -0.5859 -0.7199  0.6201
   79SLPC  H17Y 7338   1.566   0.477   8.584  0.2937  0.0362  1.0595
   79SLPC  C318 7339   1.524   0.400   8.778 -0.1204  0.1574  0.1236
   79SLPC  H18X 7340   1.554   0.297   8.752  0.6502 -0.6115  3.5367
   79SLPC  H18Y 7341   1.438   0.375   8.845  0.8128 -0.5004  1.1141
   79SLPC  H18Z 7342   1.603   0.453   8.837 -1.7270  2.2155  0.5532
   80SLPC     N 7343   3.747   5.988   6.156  0.2281  0.3432  0.4909
   80SLPC   C13 7344   3.888   5.938   6.127 -0.1531  0.0145 -0.0279
   80SLPC  H13A 7345   3.952   5.948   6.213 -0.8050 -1.3151  0.6488
   80SLPC  H13B 7346   3.889   5.838   6.086 -1.5687  0.6327 -1.7055
   80SLPC  H13C 7347   3.926   5.991   6.041 -1.0083 -1.1148 -1.1476
   80SLPC   C14 7348   3.672   5.969   6.025  0.0964  0.7466  0.1373
   80SLPC  H14A 7349   3.713   6.028   5.944  0.2433  0.9536  0.3644
   80SLPC  H14B 7350   3.668   5.864   5.998  0.5893  0.0731  2.4946
   80SLPC  H14C 7351   3.570   6.006   6.028  0.5194  2.0977 -1.0395
   80SLPC   C15 7352   3.744   6.131   6.182  1.1707  0.1958 -1.0522
   80SLPC  H15A 7353   3.777   6.145   6.284  0.3099  0.1257 -0.7568
   80SLPC  H15B 7354   3.809   6.190   6.120  1.2494  1.3496  0.0653
   80SLPC  H15C 7355   3.646   6.175   6.172  0.1814 -1.2208  1.3563
   80SLPC   C12 7356   3.676   5.903   6.264  0.4733 -0.2400 -1.0641
   80SLPC  H12A 7357   3.676   5.801   6.229 -0.2243 -1.4153  2.0455
   80SLPC  H12B 7358   3.570   5.924   6.274  0.6099  0.4862 -1.0990
   80SLPC   C11 7359   3.744   5.891   6.404  0.3088  0.1629  0.4020
   80SLPC  H11A 7360   3.677   5.829   6.467 -1.6814  1.1223 -0.6525
   80SLPC  H11B 7361   3.760   5.994   6.444  0.1423  1.0062 -1.6047
   80SLPC     P 7362   3.896   5.676   6.415  0.0045  0.4421 -0.5459
   80SLPC   O13 7363   3.771   5.614   6.465  0.0839 -0.1223 -0.4398
   80SLPC   O14 7364   3.936   5.623   6.286 -0.9286  0.3420  0.3062
   80SLPC   O12 7365   3.875   5.832   6.400  0.0227 -0.4009  0.2410
   80SLPC   O11 7366   4.021   5.649   6.509  0.2539  0.0280  0.2523
   80SLPC    C1 7367   4.076   5.764   6.572 -0.0202  0.2035  0.2211
   80SLPC    HA 7368   4.147   5.817   6.505  0.6556 -1.5631 -0.5052
   80SLPC    HB 7369   3.990   5.823   6.611  0.1767  0.3409  0.4493
   80SLPC    C2 7370   4.156   5.729   6.702 -0.1590 -0.4158 -0.0385
   80SLPC    HS 7371   4.260   5.711   6.668 -0.6361  0.1779 -1.9174
   80SLPC   O21 7372   4.105   5.606   6.747 -0.2434  0.0344 -0.0053
   80SLPC   C21 7373   4.170   5.544   6.847 -0.7844 -0.0012 -0.2402
   80SLPC   O22 7374   4.278   5.576   6.890 -0.3587 -0.2992  0.5331
   80SLPC   C22 7375   4.094   5.429   6.904  0.5421 -0.0431 -0.0152
   80SLPC   H2R 7376   3.988   5.455   6.921  0.7008  1.0814 -0.6920
   80SLPC   H2S 7377   4.092   5.346   6.830 -2.5242 -1.0752  1.0797
   80SLPC    C3 7378   4.141   5.844   6.804  0.4280 -0.5171 -0.0230
   80SLPC    HX 7379   4.201   5.924   6.755 -0.1311  1.1197  1.8887
   80SLPC    HY 7380   4.196   5.817   6.896 -1.6538 -2.3721  0.7735
   80SLPC   O31 7381   3.997   5.886   6.823 -0.0067  0.3672  0.1440
   80SLPC   C31 7382   3.934   5.813   6.911  0.4234  0.0657 -0.0240
   80SLPC   O32 7383   3.991   5.721   6.976 -0.9288  0.2530 -0.8391
   80SLPC   C32 7384   3.792   5.862   6.928  0.3650 -0.4141  0.1276
   80SLPC   H2X 7385   3.730   5.771   6.940 -3.8845  2.1918 -0.2094
   80SLPC   H2Y 7386   3.755   5.908   6.834  0.3040  2.1215  1.3078
   80SLPC   C23 7387   4.154   5.366   7.039  0.2879  0.2532 -0.0474
   80SLPC   H3R 7388   4.262   5.349   7.022  0.2142 -0.6308  0.3299
   80SLPC   H3S 7389   4.102   5.269   7.052 -1.0843  1.0223  0.4009
   80SLPC   C24 7390   4.132   5.450   7.161  0.5706 -0.4033 -0.6247
   80SLPC   H4R 7391   4.031   5.441   7.206  0.7695  0.3356  0.0094
   80SLPC   H4S 7392   4.150   5.554   7.125  1.6608 -0.6225 -0.7546
   80SLPC   C25 7393   4.247   5.423   7.265 -0.3230 -0.3982  0.6361
   80SLPC   H5R 7394   4.342   5.453   7.216 -1.5767 -1.3055 -2.5815
   80SLPC   H5S 7395   4.263   5.315   7.285  0.5523 -0.1553  1.2858
   80SLPC   C26 7396   4.238   5.510   7.393 -0.3395 -0.1379  0.4869
   80SLPC   H6R 7397   4.131   5.513   7.424 -0.4090  3.0617  0.2666
   80SLPC   H6S 7398   4.260   5.614   7.361 -1.3482  0.1711  0.7447
   80SLPC   C27 7399   4.336   5.474   7.506 -0.1605  0.2115  0.1033
   80SLPC   H7R 7400   4.389   5.557   7.556  0.8863  1.0809 -2.2919
   80SLPC   H7S 7401   4.411   5.411   7.453 -0.9861  0.3731 -1.3112
   80SLPC   C28 7402   4.285   5.385   7.616 -0.0170  0.1436  0.6401
   80SLPC   H8R 7403   4.367   5.338   7.675  0.2418 -0.9311 -0.5466
   80SLPC   H8S 7404   4.227   5.306   7.565 -1.8229  0.9535  1.3633
   80SLPC   C29 7405   4.185   5.448   7.709  0.1302  0.8695  0.1081
   80SLPC   H9R 7406   4.091   5.455   7.651  0.1401 -2.1349 -0.4432
   80SLPC  C210 7407   4.197   5.483   7.838 -0.3187  0.2272 -0.3378
   80SLPC  H10R 7408   4.111   5.535   7.882  0.0160 -0.3662  1.0494
   80SLPC  C211 7409   4.325   5.467   7.918  0.1819  0.2112  0.0968
   80SLPC  H11R 7410   4.416   5.473   7.855 -0.0622  0.8918 -0.2039
   80SLPC  H11S 7411   4.334   5.362   7.953  2.3598  0.0918 -0.6667
   80SLPC  C212 7412   4.346   5.575   8.019  0.4125  0.6938  0.6772
   80SLPC  H12R 7413   4.364   5.670   7.966  0.4760 -0.9737 -2.5695
   80SLPC  C213 7414   4.331   5.564   8.152  0.1466  0.3830  0.6539
   80SLPC  H13R 7415   4.345   5.650   8.219  1.3837  0.0052  0.8994
   80SLPC  C214 7416   4.300   5.436   8.227  0.0173  0.3514  0.0385
   80SLPC  H14R 7417   4.331   5.350   8.164  0.9452  1.1141 -0.5823
   80SLPC  H14S 7418   4.191   5.423   8.246 -0.4543  2.0570 -1.2146
   80SLPC  C215 7419   4.365   5.419   8.366  0.1065 -0.4301 -0.3152
   80SLPC  H15R 7420   4.392   5.513   8.419 -1.2028 -0.9083  1.2791
   80SLPC  H15S 7421   4.463   5.370   8.347  1.4168  1.4687  1.1059
   80SLPC  C216 7422   4.274   5.341   8.466  0.2168  0.1363  0.1888
   80SLPC  H16R 7423   4.212   5.268   8.410 -2.8750  1.5660  1.5066
   80SLPC  H16S 7424   4.200   5.415   8.503  2.3271  2.4801 -0.0394
   80SLPC  C217 7425   4.341   5.286   8.597 -0.3579  0.0583  0.7494
   80SLPC  H17R 7426   4.435   5.237   8.566 -0.7078 -0.1005 -0.1005
   80SLPC  H17S 7427   4.280   5.205   8.642  0.4259 -0.2305  1.2895
   80SLPC  C218 7428   4.382   5.394   8.698 -0.1844  0.1232 -0.2199
   80SLPC  H18R 7429   4.410   5.349   8.795 -1.7895  0.4714  0.4344
   80SLPC  H18S 7430   4.307   5.474   8.720 -1.7547 -1.7010  1.4973
   80SLPC  H18T 7431   4.460   5.456   8.650  0.7675  0.2592  1.4613
   80SLPC   C33 7432   3.778   5.968   7.041  0.2380  0.0379  0.2218
   80SLPC   H3X 7433   3.806   6.071   7.009  0.4487  0.0074  0.3058
   80SLPC   H3Y 7434   3.847   5.951   7.126  0.7273  2.2022  0.3402
   80SLPC   C34 7435   3.628   5.988   7.076 -0.5511  1.0025 -0.3081
   80SLPC   H4X 7436   3.586   5.886   7.086  0.9972 -0.0052 -3.0280
   80SLPC   H4Y 7437   3.576   6.032   6.989 -0.2636  0.9168 -0.5253
   80SLPC   C35 7438   3.600   6.087   7.191 -0.0274  0.8857  0.5865
   80SLPC   H5X 7439   3.494   6.117   7.185 -0.7827 -1.7589 -2.8146
   80SLPC   H5Y 7440   3.674   6.170   7.181  1.8219 -0.7143  0.4141
   80SLPC   C36 7441   3.627   6.009   7.322 -0.9431  0.2134 -0.2386
   80SLPC   H6X 7442   3.736   5.991   7.319 -1.2077 -1.4774 -0.3948
   80SLPC   H6Y 7443   3.572   5.912   7.321 -0.9398  0.1639  1.3888
   80SLPC   C37 7444   3.587   6.095   7.445  0.7920  0.4943  0.1497
   80SLPC   H7X 7445   3.479   6.119   7.435  0.3196 -1.1755  0.9279
   80SLPC   H7Y 7446   3.645   6.190   7.450 -0.2247  1.1366  0.0676
   80SLPC   C38 7447   3.616   6.019   7.573  0.1087 -0.4698  0.4772
   80SLPC   H8X 7448   3.724   5.998   7.586  0.1545  0.5809  2.0060
   80SLPC   H8Y 7449   3.556   5.925   7.567  0.8754 -0.8748 -1.2720
   80SLPC   C39 7450   3.553   6.102   7.686  0.1554 -0.4811 -0.4669
   80SLPC   H9X 7451   3.448   6.129   7.664 -0.5899 -0.7528  2.3461
   80SLPC   H9Y 7452   3.613   6.194   7.702 -0.4195 -0.2958  0.6910
   80SLPC  C310 7453   3.566   6.026   7.814 -0.7971 -0.8389  0.4875
   80SLPC  H10X 7454   3.669   5.986   7.827 -0.7906  0.0138  4.1528
   80SLPC  H10Y 7455   3.509   5.931   7.806  0.4529 -1.4748 -1.6437
   80SLPC  C311 7456   3.532   6.109   7.940 -0.5272  0.1676  0.3039
   80SLPC  H11X 7457   3.437   6.167   7.939 -2.6216 -2.8208  3.4390
   80SLPC  H11Y 7458   3.617   6.178   7.957 -1.6568  2.1038 -1.4060
   80SLPC  C312 7459   3.521   6.016   8.065  0.2294 -0.2250  0.1620
   80SLPC  H12X 7460   3.619   5.965   8.076 -0.4316 -1.6361 -0.3119
   80SLPC  H12Y 7461   3.438   5.944   8.054  1.2059 -1.3917  0.3203
   80SLPC  C313 7462   3.506   6.105   8.192  0.2225  0.6883  0.8622
   80SLPC  H13X 7463   3.438   6.192   8.176  1.0917  1.6626  2.1900
   80SLPC  H13Y 7464   3.606   6.150   8.210  0.7406 -0.2103  0.2807
   80SLPC  C314 7465   3.458   6.020   8.315 -0.4472  0.2741  0.3678
   80SLPC  H14X 7466   3.485   5.912   8.307 -2.1538 -0.1507  0.1094
   80SLPC  H14Y 7467   3.348   6.008   8.320 -0.2667 -2.1435 -0.2032
   80SLPC  C315 7468   3.525   6.084   8.446 -0.2140  0.1886  0.4719
   80SLPC  H15X 7469   3.496   6.191   8.457  2.0500  0.8438  0.4792
   80SLPC  H15Y 7470   3.636   6.081   8.445 -0.2151  0.2174  0.2121
   80SLPC  C316 7471   3.481   6.012   8.570  0.3198  1.0198 -0.4293
   80SLPC  H16X 7472   3.510   5.905   8.564  0.1010  0.6959  2.5238
   80SLPC  H16Y 7473   3.370   6.007   8.582  0.2177 -0.0672 -1.6198
   80SLPC  C317 7474   3.542   6.067   8.701  0.1582 -0.2558  0.6154
   80SLPC  H17X 7475   3.489   6.026   8.790  1.6660  0.1084  1.7195
   80SLPC  H17Y 7476   3.526   6.177   8.706 -1.7456 -0.5325  2.5020
   80SLPC  C318 7477   3.693   6.043   8.709 -0.1744 -0.0400 -0.2882
   80SLPC  H18X 7478   3.752   6.122   8.658  2.1583 -1.3457  0.2269
   80SLPC  H18Y 7479   3.720   5.947   8.660  0.5959  0.0337 -0.0166
   80SLPC  H18Z 7480   3.729   6.040   8.814  1.9771  1.7633 -0.9148
   81SAPS     N 7481   4.764   6.647  11.136 -0.5026 -0.3243  0.5418
   81SAPS   HN1 7482   4.713   6.737  11.149 -1.6250 -0.9616  0.6369
   81SAPS   HN2 7483   4.732   6.614  11.042  1.9649  0.1194 -0.5422
   81SAPS   HN3 7484   4.729   6.575  11.202  0.5882 -0.1588  1.3177
   81SAPS   C12 7485   4.914   6.658  11.137  0.0293  0.2849  0.1683
   81SAPS  H12A 7486   4.947   6.680  11.237  0.9739  0.0504 -0.0893
   81SAPS   C13 7487   4.980   6.519  11.107  0.4355 -0.2033  0.0758
   81SAPS  O13A 7488   4.902   6.418  11.132 -0.3943 -0.0126 -0.5756
   81SAPS  O13B 7489   5.099   6.511  11.086 -0.3724 -0.1127  0.6367
   81SAPS   C11 7490   4.964   6.766  11.033 -0.4756  0.5119  0.0448
   81SAPS  H11A 7491   4.940   6.718  10.936 -0.9119  0.0225  0.3911
   81SAPS  H11B 7492   5.074   6.779  11.037 -0.3838  1.2392 -2.7007
   81SAPS     P 7493   4.865   6.978  10.931  0.0694 -0.0620  0.0956
   81SAPS   O13 7494   4.747   6.923  10.862  0.3549 -0.2589 -0.2747
   81SAPS   O14 7495   4.849   7.119  10.970  0.2817  0.1260 -0.1066
   81SAPS   O12 7496   4.895   6.890  11.052  0.1184 -0.2971 -0.3310
   81SAPS   O11 7497   4.988   6.958  10.839  0.3640 -0.0541 -0.2497
   81SAPS    C1 7498   5.060   7.074  10.801 -0.6162 -0.7625  0.4603
   81SAPS    HA 7499   5.085   7.131  10.894 -0.2912 -0.6142  0.2834
   81SAPS    HB 7500   5.155   7.042  10.753 -0.1609  1.6888 -0.4216
   81SAPS    C2 7501   4.988   7.167  10.700 -0.5170  0.0015  0.2006
   81SAPS    HS 7502   4.890   7.198  10.743 -0.0533  1.1319  0.4942
   81SAPS   O21 7503   4.979   7.089  10.579  0.2851 -0.0544  0.2627
   81SAPS   C21 7504   4.864   7.092  10.520 -0.2082 -0.2885  0.0364
   81SAPS   O22 7505   4.765   7.153  10.560  0.0426 -0.4213  0.1822
   81SAPS   C22 7506   4.878   6.994  10.400  0.4274  0.0496 -0.7016
   81SAPS   H2R 7507   4.982   6.961  10.378  0.0112 -1.9532  0.0627
   81SAPS   H2S 7508   4.820   6.906  10.434  0.9718  0.0243  0.1927
   81SAPS    C3 7509   5.069   7.302  10.681 -0.9799  0.1528  0.6821
   81SAPS    HX 7510   5.157   7.261  10.628 -1.8518 -0.4656 -0.3226
   81SAPS    HY 7511   5.112   7.349  10.772  0.9752  1.0312 -0.6268
   81SAPS   O31 7512   5.020   7.404  10.597  1.0124 -0.4336  0.7012
   81SAPS   C31 7513   4.932   7.479  10.661  0.1862 -0.1864 -0.0815
   81SAPS   O32 7514   4.891   7.460  10.774 -0.0112  0.2299 -1.0118
   81SAPS   C32 7515   4.867   7.578  10.566  0.4840 -0.2824  0.3530
   81SAPS   H2X 7516   4.932   7.668  10.566  1.0123 -0.6609  0.0465
   81SAPS   H2Y 7517   4.764   7.590  10.605 -0.9416 -0.6050 -3.0436
   81SAPS   C23 7518   4.792   7.030  10.282 -0.4715  0.3455  0.0001
   81SAPS   H3R 7519   4.823   7.131  10.246  0.8766 -0.1098 -0.1738
   81SAPS   H3S 7520   4.690   7.042  10.323 -0.6085 -0.1843 -0.1761
   81SAPS   C24 7521   4.806   6.941  10.152 -0.4184  0.5636 -0.2919
   81SAPS   H4R 7522   4.900   6.967  10.099  0.9119  1.6674  2.4250
   81SAPS   H4S 7523   4.720   6.970  10.089  0.5287  0.2991 -1.7715
   81SAPS   C25 7524   4.806   6.794  10.177  0.4442 -0.6140 -0.1384
   81SAPS   H5R 7525   4.867   6.779  10.267  2.4016 -1.2085 -1.4928
   81SAPS   C26 7526   4.743   6.696  10.107 -0.0019 -0.5055 -0.3958
   81SAPS   H6R 7527   4.748   6.598  10.157  1.9521  0.9564  2.5728
   81SAPS   C27 7528   4.664   6.719   9.982  0.6219  0.6001  0.9238
   81SAPS   H7R 7529   4.574   6.782  10.002  0.0522  0.8186 -1.9303
   81SAPS   H7S 7530   4.618   6.621   9.957  1.1761  0.9202 -1.6028
   81SAPS   C28 7531   4.728   6.771   9.859  0.1765 -0.0161  0.2024
   81SAPS   H8R 7532   4.778   6.869   9.867  1.3177 -0.3354 -1.9762
   81SAPS   C29 7533   4.727   6.728   9.729 -0.1474  0.7903  0.4321
   81SAPS   H9R 7534   4.768   6.795   9.652 -0.5726  2.0492  1.2601
   81SAPS  C210 7535   4.655   6.609   9.668 -0.6385  0.1858 -0.1457
   81SAPS  H10R 7536   4.556   6.648   9.633 -0.6716 -1.2987 -1.8337
   81SAPS  H10S 7537   4.628   6.534   9.745  1.0158  1.5688  1.8797
   81SAPS  C211 7538   4.719   6.541   9.553 -0.2021  0.5444  0.2884
   81SAPS  H11R 7539   4.681   6.586   9.460 -0.0324 -0.6781 -0.3993
   81SAPS  C212 7540   4.827   6.460   9.548  0.1625 -0.5094  0.5172
   81SAPS  H12R 7541   4.863   6.441   9.446 -0.1500 -0.1128  0.3318
   81SAPS  C213 7542   4.909   6.408   9.672  0.0552 -0.1885  0.4978
   81SAPS  H13R 7543   4.879   6.304   9.696  0.5545 -0.5358 -0.3248
   81SAPS  H13S 7544   4.871   6.463   9.760  0.9272 -1.1629  1.5013
   81SAPS  C214 7545   5.056   6.426   9.654 -0.2945  0.4331  1.4806
   81SAPS  H14R 7546   5.089   6.517   9.705 -0.3409  0.7731  0.9107
   81SAPS  C215 7547   5.151   6.344   9.595  0.6183  0.5050  1.2114
   81SAPS  H15R 7548   5.258   6.369   9.606  1.0810  0.3120 -1.8040
   81SAPS  C216 7549   5.119   6.216   9.513 -0.1727  0.3052  0.2766
   81SAPS  H16R 7550   5.016   6.180   9.532 -0.1503  0.6361  1.0496
   81SAPS  H16S 7551   5.189   6.134   9.539  0.3795  0.0829 -1.7681
   81SAPS  C217 7552   5.137   6.245   9.360  0.2115  0.9675 -0.2405
   81SAPS  H17R 7553   5.236   6.289   9.335  1.3745 -2.5746 -2.7116
   81SAPS  H17S 7554   5.062   6.319   9.326 -0.7456  1.2238  2.2366
   81SAPS  C218 7555   5.121   6.116   9.280  0.2793 -0.7155  0.5219
   81SAPS  H18R 7556   5.018   6.076   9.295 -0.9410  1.4992 -1.1750
   81SAPS  H18S 7557   5.197   6.039   9.304 -0.3381 -0.8932  2.0220
   81SAPS  C219 7558   5.125   6.137   9.128  0.5118 -0.5429  0.1073
   81SAPS  H19R 7559   5.222   6.166   9.082  0.7816 -0.8039  0.5011
   81SAPS  H19S 7560   5.047   6.205   9.088  1.1319 -1.2292 -2.4770
   81SAPS  C220 7561   5.092   5.997   9.076 -0.1663  0.6921  0.5398
   81SAPS  H20R 7562   5.108   5.991   8.967  2.9492  2.6689  0.7681
   81SAPS  H20S 7563   4.987   5.971   9.102 -0.7008  0.5559 -1.6262
   81SAPS  H20T 7564   5.154   5.916   9.120 -0.6008 -0.4706 -0.9060
   81SAPS   C33 7565   4.843   7.521  10.426  0.2614 -0.6102 -0.1023
   81SAPS   H3X 7566   4.833   7.410  10.433 -0.7975 -0.7230 -2.6546
   81SAPS   H3Y 7567   4.923   7.543  10.352  0.0734 -1.2849 -0.5096
   81SAPS   C34 7568   4.717   7.575  10.364  0.1853  0.3209 -0.2620
   81SAPS   H4X 7569   4.722   7.686  10.360 -0.8085  0.3371 -1.6990
   81SAPS   H4Y 7570   4.629   7.547  10.427  0.4520 -0.2788 -0.1500
   81SAPS   C35 7571   4.700   7.526  10.221 -0.0653 -0.7625  0.8644
   81SAPS   H5X 7572   4.709   7.416  10.207  1.5059 -0.3461 -2.1431
   81SAPS   H5Y 7573   4.774   7.580  10.160 -0.4965  1.0765  1.8877
   81SAPS   C36 7574   4.560   7.560  10.170 -1.1903 -0.0050 -0.1221
   81SAPS   H6X 7575   4.553   7.671  10.172  0.2656  0.1018  0.4365
   81SAPS   H6Y 7576   4.479   7.527  10.238 -0.4243 -1.5055  0.1054
   81SAPS   C37 7577   4.547   7.511  10.028 -0.0690  0.0077  0.5134
   81SAPS   H7X 7578   4.542   7.401  10.032 -0.0666 -0.0019  0.2761
   81SAPS   H7Y 7579   4.633   7.545   9.965 -0.1194 -1.2981 -0.2871
   81SAPS   C38 7580   4.421   7.559   9.949  0.0697 -0.3432  0.2053
   81SAPS   H8X 7581   4.417   7.670   9.947  0.8381 -0.2376  2.1721
   81SAPS   H8Y 7582   4.324   7.525   9.990 -0.7609 -0.2406 -1.5818
   81SAPS   C39 7583   4.424   7.512   9.804 -0.2933 -0.4926  0.2975
   81SAPS   H9X 7584   4.420   7.401   9.802  0.5523 -0.5320 -1.4305
   81SAPS   H9Y 7585   4.525   7.531   9.763  0.3333 -0.5681  1.7721
   81SAPS  C310 7586   4.326   7.588   9.713  0.3898  0.2349  0.2468
   81SAPS  H10X 7587   4.363   7.692   9.699 -1.3918  0.9706  0.7273
   81SAPS  H10Y 7588   4.221   7.581   9.749  1.0944  0.4887  2.5193
   81SAPS  C311 7589   4.307   7.506   9.580  0.0736 -0.0768 -0.0762
   81SAPS  H11X 7590   4.248   7.559   9.501 -0.0837  0.0219  0.1056
   81SAPS  H11Y 7591   4.259   7.411   9.610  0.3296 -0.0111  0.5481
   81SAPS  C312 7592   4.429   7.479   9.491 -0.5487 -1.2086 -0.3742
   81SAPS  H12X 7593   4.502   7.427   9.556  0.5947  1.2404  0.3985
   81SAPS  H12Y 7594   4.490   7.568   9.464  0.4496 -2.0651 -1.0630
   81SAPS  C313 7595   4.399   7.393   9.367 -0.0116 -0.0768  0.8208
   81SAPS  H13X 7596   4.322   7.438   9.301  1.4777 -1.8867 -2.4363
   81SAPS  H13Y 7597   4.363   7.294   9.400 -0.1373 -1.5740 -3.2497
   81SAPS  C314 7598   4.525   7.380   9.281  0.1458 -1.0536  0.1549
   81SAPS  H14X 7599   4.609   7.360   9.350  2.2320  1.0065 -1.5848
   81SAPS  H14Y 7600   4.552   7.482   9.245 -1.2095 -0.9888 -0.7429
   81SAPS  C315 7601   4.512   7.278   9.167  1.3079  0.9550 -0.1800
   81SAPS  H15X 7602   4.432   7.306   9.095 -0.7638 -0.7608  1.3406
   81SAPS  H15Y 7603   4.487   7.187   9.225 -0.2607  0.9991 -0.7460
   81SAPS  C316 7604   4.657   7.272   9.102  0.5086  0.2022 -0.1246
   81SAPS  H16X 7605   4.728   7.242   9.181  0.9830  0.5245 -0.4221
   81SAPS  H16Y 7606   4.680   7.370   9.055  1.3061 -0.1750 -0.5398
   81SAPS  C317 7607   4.664   7.168   8.994  0.9013  0.1801 -0.0375
   81SAPS  H17X 7608   4.590   7.180   8.912  3.0863 -0.4227 -2.1826
   81SAPS  H17Y 7609   4.644   7.074   9.050 -0.1994  1.0932  1.1772
   81SAPS  C318 7610   4.793   7.147   8.920 -0.3179 -0.3346  0.8480
   81SAPS  H18X 7611   4.792   7.053   8.862 -0.5802 -1.9320  3.2717
   81SAPS  H18Y 7612   4.886   7.122   8.975 -0.8832 -2.7434  0.8441
   81SAPS  H18Z 7613   4.808   7.236   8.856  0.3784 -0.1941  1.2012
   82SAPS     N 7614   3.598   5.990  11.102 -0.0647  0.1727 -0.0968
   82SAPS   HN1 7615   3.585   6.022  11.200  3.1265  1.8984 -0.1345
   82SAPS   HN2 7616   3.634   6.069  11.045 -1.5946  1.7601  1.0258
   82SAPS   HN3 7617   3.508   5.964  11.055  1.2166 -1.5342 -1.7580
   82SAPS   C12 7618   3.689   5.865  11.081  0.1520 -0.8579  0.1002
   82SAPS  H12A 7619   3.790   5.885  11.113  1.5074 -1.7995 -3.1144
   82SAPS   C13 7620   3.647   5.746  11.175 -0.2618  0.3405  0.0348
   82SAPS  O13A 7621   3.537   5.750  11.237 -0.6837 -0.2932  0.2650
   82SAPS  O13B 7622   3.701   5.636  11.157  0.1325  0.0762 -0.4380
   82SAPS   C11 7623   3.700   5.833  10.931  0.0057  0.2166 -0.0662
   82SAPS  H11A 7624   3.599   5.830  10.883  0.1208  1.9584 -0.4665
   82SAPS  H11B 7625   3.740   5.729  10.922  1.4418  0.4287  2.8529
   82SAPS     P 7626   3.931   5.901  10.831 -0.0526  0.2303  0.3788
   82SAPS   O13 7627   3.989   5.904  10.964  0.0925  0.2571 -0.4081
   82SAPS   O14 7628   3.959   5.780  10.757 -0.4695 -0.3127  0.0671
   82SAPS   O12 7629   3.778   5.923  10.858 -0.0945  0.0023 -0.2128
   82SAPS   O11 7630   3.973   6.030  10.747  0.5179  0.8892  0.1074
   82SAPS    C1 7631   3.875   6.109  10.678 -1.2826  0.8275 -0.1470
   82SAPS    HA 7632   3.772   6.113  10.720 -1.9770 -1.6215 -1.4331
   82SAPS    HB 7633   3.919   6.210  10.663 -1.0823  0.5950 -1.2005
   82SAPS    C2 7634   3.839   6.072  10.529  0.0009  1.0285  0.1768
   82SAPS    HS 7635   3.786   5.975  10.540 -0.3168  1.3109  1.2260
   82SAPS   O21 7636   3.961   6.081  10.461  1.0388  0.3422 -0.0706
   82SAPS   C21 7637   4.006   5.962  10.416  0.0511 -0.2439 -0.4386
   82SAPS   O22 7638   3.952   5.857  10.421  0.6830 -0.2604  0.5662
   82SAPS   C22 7639   4.136   5.978  10.340 -0.0005  0.7254 -0.0117
   82SAPS   H2R 7640   4.150   6.079  10.296 -1.4526  0.4640 -1.1353
   82SAPS   H2S 7641   4.219   5.969  10.413 -0.5966  0.1128  0.5950
   82SAPS    C3 7642   3.744   6.159  10.459 -0.1917 -0.6659  0.5859
   82SAPS    HX 7643   3.790   6.260  10.450  0.4900 -0.6205  3.6568
   82SAPS    HY 7644   3.645   6.177  10.506 -0.7925 -0.3128 -0.7532
   82SAPS   O31 7645   3.727   6.117  10.322 -0.3180 -0.1927  0.6952
   82SAPS   C31 7646   3.642   6.010  10.320 -0.4354  1.0405 -0.3096
   82SAPS   O32 7647   3.562   5.976  10.406 -0.3826  0.3854  1.2103
   82SAPS   C32 7648   3.663   5.935  10.192  0.0235 -0.4565 -0.2304
   82SAPS   H2X 7649   3.715   5.841  10.221 -0.1368 -0.8097 -1.0532
   82SAPS   H2Y 7650   3.732   5.985  10.121  0.2408  2.0255  1.6212
   82SAPS   C23 7651   4.164   5.878  10.229  0.2908  0.4431 -0.2938
   82SAPS   H3R 7652   4.065   5.857  10.181 -1.3086 -0.1007  2.9847
   82SAPS   H3S 7653   4.196   5.780  10.268  0.7326  0.5457 -0.3969
   82SAPS   C24 7654   4.263   5.926  10.128 -0.4919 -0.4836  0.2151
   82SAPS   H4R 7655   4.352   5.958  10.187  0.1720 -1.8733 -0.0017
   82SAPS   H4S 7656   4.211   6.009  10.076  0.8849 -0.4067 -1.1205
   82SAPS   C25 7657   4.303   5.822  10.024  0.1944 -1.2083  0.2624
   82SAPS   H5R 7658   4.355   5.736  10.067  1.3850 -0.1273  1.0590
   82SAPS   C26 7659   4.292   5.838   9.893 -0.2187 -0.0862  0.1056
   82SAPS   H6R 7660   4.299   5.746   9.833  0.7402  0.2851 -0.3637
   82SAPS   C27 7661   4.242   5.964   9.824  0.0755 -0.4181  0.2891
   82SAPS   H7R 7662   4.311   5.980   9.739  1.8053 -2.0050  1.2989
   82SAPS   H7S 7663   4.251   6.060   9.879 -1.3352 -1.2928  2.1817
   82SAPS   C28 7664   4.104   5.953   9.770  0.5220  0.4385  0.1788
   82SAPS   H8R 7665   4.028   5.976   9.846  1.0727  2.7610  0.1095
   82SAPS   C29 7666   4.064   5.940   9.640  0.8013 -0.4977 -0.7059
   82SAPS   H9R 7667   3.957   5.936   9.615  1.1310 -1.7053 -2.0410
   82SAPS  C210 7668   4.152   5.914   9.521  0.0540 -0.4040  0.5575
   82SAPS  H10R 7669   4.250   5.878   9.559  1.6757  3.2120  0.2321
   82SAPS  H10S 7670   4.185   6.008   9.471 -0.9626  0.8613  2.1705
   82SAPS  C211 7671   4.081   5.807   9.438  0.1366 -0.7037  0.1200
   82SAPS  H11R 7672   4.046   5.717   9.491  2.3154 -1.4746  0.3520
   82SAPS  C212 7673   4.064   5.819   9.303  0.3798  0.0098 -0.0595
   82SAPS  H12R 7674   4.017   5.740   9.241 -0.9221 -0.0828  0.9948
   82SAPS  C213 7675   4.109   5.930   9.217  0.1903 -0.3788  0.2616
   82SAPS  H13R 7676   4.214   5.963   9.236  0.6388 -1.1989 -0.7279
   82SAPS  H13S 7677   4.051   6.020   9.247  0.0630 -0.2009 -0.4955
   82SAPS  C214 7678   4.101   5.919   9.070 -0.3870  0.1604 -0.1953
   82SAPS  H14R 7679   4.064   5.824   9.029 -0.1761  0.2315 -0.5640
   82SAPS  C215 7680   4.131   6.016   8.985  0.6675 -0.2912  0.3173
   82SAPS  H15R 7681   4.118   5.995   8.878  2.3379 -1.8213  0.3676
   82SAPS  C216 7682   4.173   6.161   9.008  0.2565  0.2460  0.4103
   82SAPS  H16R 7683   4.275   6.180   8.970  0.1091  2.7145  1.1116
   82SAPS  H16S 7684   4.173   6.188   9.116  2.6513 -0.7215  0.7194
   82SAPS  C217 7685   4.067   6.252   8.951  0.5857  0.2091  0.5219
   82SAPS  H17R 7686   3.967   6.226   8.993  0.3078 -0.8096 -0.7176
   82SAPS  H17S 7687   4.058   6.238   8.842  0.3598  2.9274  0.1113
   82SAPS  C218 7688   4.084   6.398   8.989 -0.5279 -0.0057  0.1913
   82SAPS  H18R 7689   4.116   6.415   9.094  1.1087 -0.1780 -0.2485
   82SAPS  H18S 7690   3.985   6.447   8.975 -0.5037 -0.2003 -0.7313
   82SAPS  C219 7691   4.194   6.478   8.910 -0.6204 -0.2712 -0.3946
   82SAPS  H19R 7692   4.286   6.419   8.892 -0.2207  0.5288 -1.0568
   82SAPS  H19S 7693   4.219   6.567   8.972 -1.7624 -0.4991  0.4375
   82SAPS  C220 7694   4.147   6.551   8.786  0.1731  0.0542  0.4673
   82SAPS  H20R 7695   4.039   6.575   8.788  0.3279  1.9159 -3.4708
   82SAPS  H20S 7696   4.166   6.490   8.695  3.2953  1.9278 -0.3114
   82SAPS  H20T 7697   4.202   6.647   8.774  0.3788 -0.1618 -0.3944
   82SAPS   C33 7698   3.530   5.890  10.127 -0.6834 -0.9399 -0.4727
   82SAPS   H3X 7699   3.466   5.864  10.214  0.8606  1.7267  1.6033
   82SAPS   H3Y 7700   3.559   5.800  10.067 -1.9894 -2.9990  1.7953
   82SAPS   C34 7701   3.467   5.994  10.032  0.1325  1.2769  0.2429
   82SAPS   H4X 7702   3.535   6.017   9.947  1.8720 -2.5302  0.4076
   82SAPS   H4Y 7703   3.458   6.087  10.092 -1.1866 -0.4745  2.9767
   82SAPS   C35 7704   3.323   5.953   9.976 -0.2956  0.3888  0.2350
   82SAPS   H5X 7705   3.275   6.046   9.939 -1.4176 -0.1160  0.3764
   82SAPS   H5Y 7706   3.258   5.914  10.057 -0.5449 -0.4741 -0.3664
   82SAPS   C36 7707   3.337   5.845   9.865 -1.0581 -0.4204  0.0374
   82SAPS   H6X 7708   3.239   5.798   9.842 -0.8063 -2.0611  2.0378
   82SAPS   H6Y 7709   3.396   5.766   9.917 -3.1949 -1.3225  1.2107
   82SAPS   C37 7710   3.374   5.904   9.739 -0.3748 -0.2902  0.3642
   82SAPS   H7X 7711   3.454   5.980   9.752 -1.8934  1.1381  1.8267
   82SAPS   H7Y 7712   3.283   5.945   9.692 -0.6218  0.0998  1.1709
   82SAPS   C38 7713   3.446   5.789   9.653 -0.0099 -0.7965  0.4778
   82SAPS   H8X 7714   3.384   5.697   9.646  2.6716 -2.6053 -1.7106
   82SAPS   H8Y 7715   3.540   5.764   9.706  0.0003  1.1423  1.4640
   82SAPS   C39 7716   3.449   5.838   9.507  0.3884  0.3856  0.2778
   82SAPS   H9X 7717   3.495   5.937   9.491  0.6684  0.0169 -1.4113
   82SAPS   H9Y 7718   3.346   5.845   9.465  0.7693  2.1657 -0.4430
   82SAPS  C310 7719   3.529   5.739   9.419 -0.5051  0.5187 -0.1104
   82SAPS  H10X 7720   3.456   5.656   9.403 -0.6849  0.9300 -1.5559
   82SAPS  H10Y 7721   3.613   5.690   9.473 -0.8828 -1.9058 -1.5963
   82SAPS  C311 7722   3.583   5.797   9.284 -0.0293  0.0323 -0.0088
   82SAPS  H11X 7723   3.622   5.900   9.298 -0.5667  0.2385 -0.0188
   82SAPS  H11Y 7724   3.497   5.798   9.214 -0.8855  0.6639  1.0263
   82SAPS  C312 7725   3.682   5.709   9.222 -0.0114  0.7020 -0.2368
   82SAPS  H12X 7726   3.638   5.608   9.233 -1.6024  1.5385  1.5117
   82SAPS  H12Y 7727   3.779   5.721   9.275 -0.5000 -1.4493  1.2579
   82SAPS  C313 7728   3.709   5.747   9.068 -0.0895  0.3705  0.6098
   82SAPS  H13X 7729   3.749   5.851   9.067  1.3511 -0.0482  3.1560
   82SAPS  H13Y 7730   3.607   5.753   9.025 -1.0558  3.2807  2.9542
   82SAPS  C314 7731   3.801   5.656   9.002 -0.0359  0.1975  0.0103
   82SAPS  H14X 7732   3.769   5.550   9.016  0.1745 -0.1608 -1.9593
   82SAPS  H14Y 7733   3.901   5.663   9.049  0.2486  0.4970 -0.6362
   82SAPS  C315 7734   3.824   5.675   8.851 -0.8218 -0.8532 -0.3611
   82SAPS  H15X 7735   3.865   5.778   8.846 -1.6277 -0.4098  1.5373
   82SAPS  H15Y 7736   3.728   5.664   8.797 -1.9424 -1.3218  1.6459
   82SAPS  C316 7737   3.929   5.578   8.797  0.2453  0.4003 -0.3714
   82SAPS  H16X 7738   3.997   5.556   8.882 -1.2939 -0.2858  0.7302
   82SAPS  H16Y 7739   3.983   5.620   8.710 -0.1958  0.6807 -0.5160
   82SAPS  C317 7740   3.868   5.441   8.755  0.4510 -0.3102 -0.4198
   82SAPS  H17X 7741   3.800   5.463   8.669 -1.2899  0.8273  1.1684
   82SAPS  H17Y 7742   3.800   5.408   8.837  0.3185 -1.5600 -0.9959
   82SAPS  C318 7743   3.961   5.328   8.720  0.1637  0.3896 -0.1542
   82SAPS  H18X 7744   3.911   5.264   8.645  1.1507 -1.2578  0.5329
   82SAPS  H18Y 7745   3.984   5.266   8.809 -1.1177  3.5559  2.6164
   82SAPS  H18Z 7746   4.053   5.363   8.668 -0.8270  1.7172 -1.0708
   83SAPS     N 7747   4.765   0.616  11.007  1.0909  0.0665 -0.3618
   83SAPS   HN1 7748   4.793   0.622  10.907 -2.0674  3.0376 -1.2742
   83SAPS   HN2 7749   4.767   0.515  11.032 -1.5644 -0.0214 -0.1423
   83SAPS   HN3 7750   4.668   0.653  11.009  1.3681  0.7952 -0.2649
   83SAPS   C12 7751   4.858   0.691  11.098  0.2923  0.3776  0.2567
   83SAPS  H12A 7752   4.859   0.794  11.066  1.1000 -0.0132 -1.0738
   83SAPS   C13 7753   4.810   0.682  11.247 -0.3388  0.1123  0.0509
   83SAPS  O13A 7754   4.756   0.575  11.290 -0.4329  0.1927 -0.2376
   83SAPS  O13B 7755   4.827   0.779  11.327  1.1140 -0.0357 -0.2499
   83SAPS   C11 7756   5.001   0.638  11.069 -0.3769  0.0384 -0.6424
   83SAPS  H11A 7757   5.020   0.638  10.960  0.8750  2.3192 -0.4985
   83SAPS  H11B 7758   5.010   0.538  11.117  0.6278  0.7395  0.7075
   83SAPS     P 7759   5.238   0.708  11.126 -0.4218 -0.0962  0.0276
   83SAPS   O13 7760   5.303   0.832  11.173 -0.3036  0.3896 -0.0403
   83SAPS   O14 7761   5.291   0.585  11.183 -0.1055 -0.4524 -0.6461
   83SAPS   O12 7762   5.084   0.722  11.146 -0.3504 -0.4753  0.0702
   83SAPS   O11 7763   5.251   0.707  10.967 -0.2317  0.1092  0.0613
   83SAPS    C1 7764   5.358   0.624  10.915 -0.2466  0.6356 -0.1787
   83SAPS    HA 7765   5.435   0.602  10.992 -0.3621 -0.9672 -0.4911
   83SAPS    HB 7766   5.320   0.527  10.875  2.8083 -0.3837 -0.8625
   83SAPS    C2 7767   5.437   0.697  10.803 -0.8256 -0.3175  0.2976
   83SAPS    HS 7768   5.494   0.779  10.850  0.7155 -0.8592 -0.5506
   83SAPS   O21 7769   5.348   0.752  10.699 -0.0266  0.0756  0.5863
   83SAPS   C21 7770   5.395   0.842  10.622  0.4450 -0.4739 -0.1635
   83SAPS   O22 7771   5.506   0.893  10.640  0.2239  0.1524  0.6253
   83SAPS   C22 7772   5.303   0.854  10.501 -1.0127  0.5714  0.3831
   83SAPS   H2R 7773   5.365   0.808  10.422 -0.6616  1.2785  0.2410
   83SAPS   H2S 7774   5.211   0.793  10.513 -0.2017 -1.0734 -1.2937
   83SAPS    C3 7775   5.541   0.605  10.722 -0.1532 -0.2917 -0.2162
   83SAPS    HX 7776   5.615   0.580  10.802 -0.2882  1.1212  0.3855
   83SAPS    HY 7777   5.595   0.667  10.648 -1.4437  0.9194 -0.1741
   83SAPS   O31 7778   5.478   0.483  10.672  0.3929 -0.4133  0.6460
   83SAPS   C31 7779   5.493   0.472  10.541 -0.1660  0.5923  0.6708
   83SAPS   O32 7780   5.542   0.554  10.466  0.5320  0.2202 -0.0683
   83SAPS   C32 7781   5.420   0.346  10.500 -0.5581 -0.1447 -0.3001
   83SAPS   H2X 7782   5.316   0.344  10.540 -0.1797 -0.6718  0.6842
   83SAPS   H2Y 7783   5.475   0.262  10.548 -1.6898 -1.5643 -1.3684
   83SAPS   C23 7784   5.268   0.993  10.461 -1.0699 -0.1613  1.0796
   83SAPS   H3R 7785   5.349   1.063  10.487 -1.0480 -0.0262  0.6602
   83SAPS   H3S 7786   5.173   1.027  10.508 -0.7131  2.6741 -0.0569
   83SAPS   C24 7787   5.230   1.007  10.312 -0.4274  0.3641  0.6296
   83SAPS   H4R 7788   5.178   1.104  10.318 -1.9092 -0.4095  0.6824
   83SAPS   H4S 7789   5.152   0.930  10.294  0.4868 -0.7561  1.2745
   83SAPS   C25 7790   5.336   1.013  10.201  0.3466  0.3533 -0.1310
   83SAPS   H5R 7791   5.426   1.062  10.241 -0.1032 -0.8791  2.6338
   83SAPS   C26 7792   5.329   0.960  10.079 -0.0606  0.0039 -0.3020
   83SAPS   H6R 7793   5.415   0.967  10.011 -1.5361 -1.6871 -2.4905
   83SAPS   C27 7794   5.213   0.890  10.005 -0.2742 -0.1749  0.2560
   83SAPS   H7R 7795   5.137   0.856  10.078 -2.7933  0.8331 -1.7292
   83SAPS   H7S 7796   5.245   0.796   9.954  0.7814  0.3316 -0.0349
   83SAPS   C28 7797   5.159   0.992   9.911  0.3789 -0.4283 -0.1628
   83SAPS   H8R 7798   5.127   1.084   9.962  1.7902 -1.1285  2.1092
   83SAPS   C29 7799   5.164   0.996   9.778  0.3483 -0.0356 -0.2001
   83SAPS   H9R 7800   5.127   1.081   9.719  0.0023  0.2989  0.4930
   83SAPS  C210 7801   5.226   0.897   9.682 -0.5308 -0.2148  0.0135
   83SAPS  H10R 7802   5.264   0.806   9.734 -1.3817 -0.9686 -0.6527
   83SAPS  H10S 7803   5.315   0.940   9.632 -0.6045  0.5799  0.5529
   83SAPS  C211 7804   5.123   0.856   9.583  0.4261  0.1967 -0.2472
   83SAPS  H11R 7805   5.063   0.766   9.605  0.5881  0.3297  0.7734
   83SAPS  C212 7806   5.103   0.930   9.475  0.4092 -0.2315  0.3075
   83SAPS  H12R 7807   5.028   0.898   9.401 -2.0022  1.4046  1.8661
   83SAPS  C213 7808   5.180   1.052   9.434  0.9533 -0.6604 -0.2239
   83SAPS  H13R 7809   5.265   1.022   9.369  1.2739 -0.1434 -0.0498
   83SAPS  H13S 7810   5.220   1.118   9.514 -0.7572  0.7031 -0.4328
   83SAPS  C214 7811   5.094   1.132   9.338 -0.4923  0.5257  0.6413
   83SAPS  H14R 7812   5.042   1.220   9.377 -0.5163  0.6724  0.2854
   83SAPS  C215 7813   5.079   1.113   9.202 -0.4243  0.9190  0.0426
   83SAPS  H15R 7814   5.023   1.185   9.140 -0.8876 -0.3045 -1.0055
   83SAPS  C216 7815   5.149   1.005   9.121  0.5100  0.3399 -0.4939
   83SAPS  H16R 7816   5.227   0.948   9.177 -2.6871 -2.9991  1.0037
   83SAPS  H16S 7817   5.199   1.044   9.030 -0.0641  0.4715 -0.7576
   83SAPS  C217 7818   5.048   0.896   9.087 -0.0558  0.3006 -0.2852
   83SAPS  H17R 7819   4.964   0.942   9.031  0.7132  2.3493  0.1644
   83SAPS  H17S 7820   4.999   0.855   9.178 -0.9055  1.9536  0.0477
   83SAPS  C218 7821   5.116   0.787   9.001 -0.4247 -0.2425 -0.3424
   83SAPS  H18R 7822   5.185   0.730   9.067  1.0065  0.4293 -1.1904
   83SAPS  H18S 7823   5.186   0.841   8.933  1.6696 -2.1704  0.1484
   83SAPS  C219 7824   5.010   0.703   8.935 -0.0550  0.2081  0.0348
   83SAPS  H19R 7825   4.918   0.681   8.992 -0.1985 -3.5598 -1.3533
   83SAPS  H19S 7826   5.057   0.603   8.924 -1.5158 -0.6355  1.1107
   83SAPS  C220 7827   4.973   0.757   8.790  0.1849 -0.4572 -0.3681
   83SAPS  H20R 7828   5.062   0.769   8.724  0.2500  0.7540 -0.0926
   83SAPS  H20S 7829   4.929   0.858   8.807  2.0688 -0.0475  2.9602
   83SAPS  H20T 7830   4.907   0.687   8.734 -0.4785 -0.4893  0.4388
   83SAPS   C33 7831   5.424   0.318  10.352  0.2115 -0.1498  0.0438
   83SAPS   H3X 7832   5.375   0.218  10.352  0.2533 -0.1879  1.2615
   83SAPS   H3Y 7833   5.529   0.310  10.318 -0.5978  0.7642 -2.9692
   83SAPS   C34 7834   5.336   0.418  10.266 -0.1831 -0.4399 -0.2418
   83SAPS   H4X 7835   5.331   0.378  10.162  0.6727 -0.1843 -0.3855
   83SAPS   H4Y 7836   5.386   0.517  10.264 -0.7779 -0.0902  1.2214
   83SAPS   C35 7837   5.193   0.449  10.318 -1.0332  0.9280 -0.7648
   83SAPS   H5X 7838   5.211   0.496  10.417  1.9678  0.4067 -0.9428
   83SAPS   H5Y 7839   5.146   0.351  10.340  2.8760 -0.6484  1.7316
   83SAPS   C36 7840   5.115   0.545  10.236  0.8009 -0.7874 -0.0080
   83SAPS   H6X 7841   5.178   0.637  10.228 -1.6872  0.9872 -0.5637
   83SAPS   H6Y 7842   5.019   0.563  10.290  2.0931 -1.3164  2.6325
   83SAPS   C37 7843   5.091   0.509  10.087 -0.6097  0.4034 -0.3379
   83SAPS   H7X 7844   5.081   0.399  10.092  1.5833  0.0256 -2.3025
   83SAPS   H7Y 7845   5.185   0.510  10.028 -1.2729  0.1508 -1.4221
   83SAPS   C38 7846   4.978   0.570  10.012  0.1440 -0.0709  1.2181
   83SAPS   H8X 7847   4.980   0.680  10.023  0.5765 -0.1473  2.0137
   83SAPS   H8Y 7848   4.886   0.520  10.050 -1.1930  0.7590 -0.7930
   83SAPS   C39 7849   4.980   0.534   9.859 -0.0368 -0.0471  0.2758
   83SAPS   H9X 7850   4.999   0.424   9.858  0.0014 -0.0831  2.2402
   83SAPS   H9Y 7851   5.045   0.602   9.800  0.3138 -0.9961 -0.4820
   83SAPS  C310 7852   4.838   0.565   9.801 -0.6106  0.2222 -0.2553
   83SAPS  H10X 7853   4.849   0.659   9.743  1.2019 -0.2203 -0.7204
   83SAPS  H10Y 7854   4.776   0.583   9.891 -1.2356 -2.3642 -0.0935
   83SAPS  C311 7855   4.786   0.452   9.716 -0.1353 -0.1658  0.0225
   83SAPS  H11X 7856   4.690   0.488   9.674 -0.1995 -1.4108 -0.9469
   83SAPS  H11Y 7857   4.761   0.363   9.778  0.1960 -0.0856  0.2731
   83SAPS  C312 7858   4.872   0.394   9.606  0.4964  0.4256 -0.2957
   83SAPS  H12X 7859   4.947   0.323   9.648 -1.4297 -1.4084  0.1999
   83SAPS  H12Y 7860   4.928   0.479   9.562  0.8408  0.7339  0.7200
   83SAPS  C313 7861   4.784   0.316   9.505 -0.6720  0.5917 -0.7487
   83SAPS  H13X 7862   4.706   0.376   9.453  1.5418  0.4133 -4.6725
   83SAPS  H13Y 7863   4.728   0.235   9.557 -0.2032  1.2652  0.8540
   83SAPS  C314 7864   4.865   0.251   9.389  0.3297 -0.1094  0.4744
   83SAPS  H14X 7865   4.955   0.205   9.436  2.5389  3.8391  0.5682
   83SAPS  H14Y 7866   4.918   0.317   9.317  1.2989 -0.0377  1.2262
   83SAPS  C315 7867   4.788   0.158   9.297  0.5472  0.5059  0.2857
   83SAPS  H15X 7868   4.700   0.222   9.278  0.9162  0.6681 -0.9227
   83SAPS  H15Y 7869   4.757   0.067   9.353  0.8530 -0.4115 -0.9918
   83SAPS  C316 7870   4.854   0.120   9.163  0.1813  0.1373 -0.2357
   83SAPS  H16X 7871   4.947   0.064   9.187  0.2347 -0.0282 -0.8102
   83SAPS  H16Y 7872   4.875   0.213   9.105  0.2510 -0.9211 -2.0021
   83SAPS  C317 7873   4.762   0.040   9.072  0.3884 -0.5345 -0.3042
   83SAPS  H17X 7874   4.671   0.097   9.041 -0.8841 -1.9178  0.7592
   83SAPS  H17Y 7875   4.723  -0.046   9.131 -0.0631 -0.4176 -0.4225
   83SAPS  C318 7876   4.830  -0.023   8.953  0.5549  0.1915  0.2744
   83SAPS  H18X 7877   4.869   0.055   8.884 -0.3433  1.0000  0.6517
   83SAPS  H18Y 7878   4.757  -0.090   8.902 -2.0394  3.7320 -1.0315
   83SAPS  H18Z 7879   4.914  -0.084   8.992 -0.1203 -0.9294  0.0255
   84SAPS     N 7880   0.522   0.475  11.122 -0.3591  0.2726 -0.6445
   84SAPS   HN1 7881   0.420   0.498  11.117  0.0892  4.2845  2.7458
   84SAPS   HN2 7882   0.574   0.489  11.034 -0.2313  0.3329 -0.5600
   84SAPS   HN3 7883   0.536   0.373  11.137  2.4361  0.5843 -0.6323
   84SAPS   C12 7884   0.589   0.551  11.226 -0.4247 -0.5133 -0.3508
   84SAPS  H12A 7885   0.569   0.654  11.202 -0.4233 -0.7433 -1.3522
   84SAPS   C13 7886   0.532   0.542  11.371  1.0439  0.5577  1.0115
   84SAPS  O13A 7887   0.445   0.453  11.393 -0.3677 -0.3333  0.3972
   84SAPS  O13B 7888   0.558   0.627  11.456  0.4827 -0.0578 -0.2112
   84SAPS   C11 7889   0.740   0.525  11.224 -0.0425  0.6995 -0.2810
   84SAPS  H11A 7890   0.751   0.415  11.240 -0.3376  0.1931 -2.9863
   84SAPS  H11B 7891   0.794   0.572  11.308  0.1335  0.2637 -0.1440
   84SAPS     P 7892   0.864   0.684  11.054  0.4637 -0.1759  0.3254
   84SAPS   O13 7893   0.817   0.807  11.126 -0.2914 -0.1463 -0.2587
   84SAPS   O14 7894   1.005   0.652  11.063 -0.4273  0.2865  0.3787
   84SAPS   O12 7895   0.795   0.556  11.096 -0.0514  0.2577 -0.1582
   84SAPS   O11 7896   0.824   0.680  10.902 -0.0956 -0.5450  0.1700
   84SAPS    C1 7897   0.714   0.765  10.859 -0.0884 -0.4019  0.3524
   84SAPS    HA 7898   0.619   0.724  10.898  1.2520 -1.3210  2.8451
   84SAPS    HB 7899   0.729   0.869  10.894 -0.6447  0.6236 -2.1863
   84SAPS    C2 7900   0.720   0.783  10.711  0.7978  0.1864 -0.2844
   84SAPS    HS 7901   0.653   0.868  10.689 -0.5999 -1.1427 -1.3754
   84SAPS   O21 7902   0.671   0.656  10.655  0.0561 -0.2467  0.0291
   84SAPS   C21 7903   0.574   0.662  10.569 -1.0208  0.1165  0.4908
   84SAPS   O22 7904   0.506   0.759  10.546  0.1636 -0.5055 -0.7004
   84SAPS   C22 7905   0.547   0.529  10.509  0.4241  0.2282  0.0375
   84SAPS   H2R 7906   0.613   0.451  10.552  2.3486 -0.4145 -3.6989
   84SAPS   H2S 7907   0.443   0.494  10.529  0.0521  0.1425 -1.8387
   84SAPS    C3 7908   0.868   0.800  10.655  0.1085 -0.1036 -0.1006
   84SAPS    HX 7909   0.917   0.703  10.680 -0.2381 -0.2952 -0.1526
   84SAPS    HY 7910   0.912   0.879  10.719 -1.5365  1.4458 -0.7957
   84SAPS   O31 7911   0.875   0.823  10.514  0.5792 -0.0859  0.4049
   84SAPS   C31 7912   0.866   0.950  10.477 -0.6003  0.1129  0.2426
   84SAPS   O32 7913   0.888   1.043  10.551  0.0389  0.3402 -0.1363
   84SAPS   C32 7914   0.817   0.957  10.330 -0.4714 -0.5653  0.5682
   84SAPS   H2X 7915   0.886   0.899  10.266  1.4965 -0.8389  2.7816
   84SAPS   H2Y 7916   0.819   1.063  10.299 -0.0100 -0.9026 -0.5823
   84SAPS   C23 7917   0.583   0.532  10.359 -0.1007  1.3475  0.6731
   84SAPS   H3R 7918   0.685   0.575  10.349  0.1246  0.3289 -2.3841
   84SAPS   H3S 7919   0.516   0.597  10.300  2.1855  2.4562 -0.8628
   84SAPS   C24 7920   0.602   0.388  10.292  0.1509  0.6088 -0.3895
   84SAPS   H4R 7921   0.502   0.341  10.293 -0.1082  1.1501  0.6947
   84SAPS   H4S 7922   0.655   0.314  10.357 -1.5511 -0.8840 -0.6117
   84SAPS   C25 7923   0.664   0.383  10.160 -0.2233 -0.6642  0.2529
   84SAPS   H5R 7924   0.771   0.359  10.157 -0.1770 -0.5298 -3.1884
   84SAPS   C26 7925   0.611   0.388  10.035  0.0828  0.8316 -0.6928
   84SAPS   H6R 7926   0.675   0.359   9.951 -1.7581 -2.1962 -1.2197
   84SAPS   C27 7927   0.463   0.407  10.010 -0.2324 -0.1517 -0.0723
   84SAPS   H7R 7928   0.443   0.505   9.961  0.0879 -0.2241 -0.3567
   84SAPS   H7S 7929   0.404   0.404  10.104 -0.7574  1.1040 -0.3398
   84SAPS   C28 7930   0.410   0.284   9.941 -0.4260  0.8337  0.1114
   84SAPS   H8R 7931   0.386   0.206  10.014  1.6428 -0.4863 -0.4990
   84SAPS   C29 7932   0.369   0.285   9.813 -0.4383 -0.0029 -0.2794
   84SAPS   H9R 7933   0.338   0.184   9.784  0.7009 -1.2732  2.5775
   84SAPS  C210 7934   0.365   0.395   9.706 -0.5239  0.5825 -0.1921
   84SAPS  H10R 7935   0.369   0.497   9.752  1.3084  0.3576  0.2160
   84SAPS  H10S 7936   0.261   0.382   9.669 -0.8717 -0.9161  1.1902
   84SAPS  C211 7937   0.460   0.387   9.592 -0.6484 -0.3614 -0.1649
   84SAPS  H11R 7938   0.558   0.344   9.619  0.6922  1.6483 -1.4878
   84SAPS  C212 7939   0.428   0.381   9.462  0.7266  0.6379 -0.2127
   84SAPS  H12R 7940   0.502   0.375   9.380 -0.0257  1.0660 -0.9328
   84SAPS  C213 7941   0.288   0.400   9.414  0.3036  0.4847  0.2452
   84SAPS  H13R 7942   0.283   0.464   9.324 -0.1835  1.5434  1.0053
   84SAPS  H13S 7943   0.219   0.455   9.482 -1.0469 -0.9008  0.0604
   84SAPS  C214 7944   0.231   0.265   9.388 -0.3839 -0.4764 -0.2562
   84SAPS  H14R 7945   0.254   0.187   9.462 -1.5356  0.3681  1.0337
   84SAPS  C215 7946   0.158   0.235   9.279 -0.3201  0.3286  0.1805
   84SAPS  H15R 7947   0.122   0.134   9.256  2.3711 -0.0484 -3.0154
   84SAPS  C216 7948   0.115   0.332   9.176  0.0243 -0.4094 -0.2276
   84SAPS  H16R 7949   0.116   0.441   9.199 -3.2453 -0.4728  0.7521
   84SAPS  H16S 7950   0.004   0.327   9.177 -0.2265  2.5981 -1.5687
   84SAPS  C217 7951   0.168   0.307   9.036 -0.4611 -0.6631  0.0025
   84SAPS  H17R 7952   0.127   0.212   8.993 -1.6306  0.6120 -1.8878
   84SAPS  H17S 7953   0.278   0.297   9.048 -0.0847 -1.1799 -3.0486
   84SAPS  C218 7954   0.154   0.426   8.940  0.3184  0.9926  0.1788
   84SAPS  H18R 7955   0.201   0.508   8.998 -0.2531  0.4021  1.5113
   84SAPS  H18S 7956   0.045   0.445   8.927  0.7376  2.9020 -0.9124
   84SAPS  C219 7957   0.236   0.405   8.816 -0.3709 -0.0561  0.3715
   84SAPS  H19R 7958   0.213   0.305   8.772  0.3659 -1.0462  2.1187
   84SAPS  H19S 7959   0.342   0.380   8.839 -0.6619 -1.7400  0.0551
   84SAPS  C220 7960   0.212   0.517   8.712 -0.4749 -0.0631 -0.5208
   84SAPS  H20R 7961   0.118   0.573   8.732 -0.8315 -0.4382 -1.1023
   84SAPS  H20S 7962   0.213   0.483   8.606  0.8376  0.0878 -0.5695
   84SAPS  H20T 7963   0.300   0.584   8.720  1.6966 -2.4695 -2.4608
   84SAPS   C33 7964   0.670   0.902  10.313 -0.6673  0.1036 -0.5367
   84SAPS   H3X 7965   0.606   0.950  10.390 -3.0544 -1.8399 -1.2209
   84SAPS   H3Y 7966   0.678   0.792  10.316 -1.1913 -0.0463 -2.9902
   84SAPS   C34 7967   0.632   0.912  10.167  0.7587 -0.6775  0.0114
   84SAPS   H4X 7968   0.657   1.012  10.126 -1.3628 -0.5504 -1.1763
   84SAPS   H4Y 7969   0.521   0.905  10.162  0.6492  0.7930 -0.0791
   84SAPS   C35 7970   0.692   0.809  10.070  0.6526 -0.3829  0.0059
   84SAPS   H5X 7971   0.703   0.704  10.107  1.0381 -0.0971  0.7264
   84SAPS   H5Y 7972   0.794   0.842  10.041 -0.3874  3.3042  0.0158
   84SAPS   C36 7973   0.608   0.801   9.936 -0.4559 -0.3332 -0.0207
   84SAPS   H6X 7974   0.598   0.905   9.898  0.2136 -0.3851 -0.3567
   84SAPS   H6Y 7975   0.516   0.744   9.960 -0.0158 -1.3540 -0.6980
   84SAPS   C37 7976   0.680   0.732   9.825  0.6757  0.5624  0.9571
   84SAPS   H7X 7977   0.687   0.622   9.839  0.5222  0.2412 -1.1660
   84SAPS   H7Y 7978   0.780   0.778   9.813  0.2789  1.0955 -0.4652
   84SAPS   C38 7979   0.607   0.762   9.692  0.1488  0.8570 -0.0472
   84SAPS   H8X 7980   0.616   0.871   9.675  3.9190  0.3471 -2.4544
   84SAPS   H8Y 7981   0.503   0.721   9.691  0.4678  0.0061 -1.6819
   84SAPS   C39 7982   0.679   0.686   9.573  0.8247  0.0064 -0.1364
   84SAPS   H9X 7983   0.703   0.583   9.607  3.2895  0.2427 -0.9845
   84SAPS   H9Y 7984   0.769   0.746   9.546  0.6173  0.7541  0.7698
   84SAPS  C310 7985   0.590   0.687   9.452  0.4296  0.2266 -0.2173
   84SAPS  H10X 7986   0.578   0.792   9.419 -0.5280  0.8627  1.9891
   84SAPS  H10Y 7987   0.488   0.648   9.472  1.0829 -1.2257  0.4645
   84SAPS  C311 7988   0.662   0.616   9.334  0.3574 -0.4673  0.4911
   84SAPS  H11X 7989   0.697   0.518   9.372  4.7098  0.2645 -1.0216
   84SAPS  H11Y 7990   0.753   0.677   9.315 -0.6783  1.7014  1.9559
   84SAPS  C312 7991   0.592   0.604   9.196  0.2565 -0.2452 -0.2495
   84SAPS  H12X 7992   0.600   0.698   9.138 -2.2494  0.0863 -0.1723
   84SAPS  H12Y 7993   0.484   0.585   9.214  0.6852  0.6141  5.1263
   84SAPS  C313 7994   0.649   0.498   9.099  0.0339 -1.1291 -0.4838
   84SAPS  H13X 7995   0.638   0.396   9.140 -1.9216 -1.0600 -0.7455
   84SAPS  H13Y 7996   0.754   0.534   9.107 -0.3745 -0.1374  0.9084
   84SAPS  C314 7997   0.599   0.522   8.961  0.1991  0.0722  0.7051
   84SAPS  H14X 7998   0.637   0.607   8.901  1.6399 -0.7167  0.4692
   84SAPS  H14Y 7999   0.489   0.541   8.965  0.3609  0.8078  2.2727
   84SAPS  C315 8000   0.620   0.391   8.875  0.1066  0.4985  0.2752
   84SAPS  H15X 8001   0.574   0.420   8.778  1.7168  3.4653  0.2723
   84SAPS  H15Y 8002   0.583   0.303   8.931  0.5857  1.9042  3.0180
   84SAPS  C316 8003   0.769   0.371   8.842 -0.2416  0.4351  0.2252
   84SAPS  H16X 8004   0.826   0.379   8.937 -1.5134 -1.1565  1.1724
   84SAPS  H16Y 8005   0.812   0.445   8.771 -2.5981  2.5480  0.8361
   84SAPS  C317 8006   0.803   0.229   8.774  0.4445 -0.0384 -0.5620
   84SAPS  H17X 8007   0.747   0.238   8.678 -1.8906  1.0249  0.7903
   84SAPS  H17Y 8008   0.762   0.140   8.825  1.5147  0.0030  0.3869
   84SAPS  C318 8009   0.951   0.204   8.753 -0.2785 -0.5412 -0.8707
   84SAPS  H18X 8010   0.943   0.106   8.702 -0.8741 -0.9035 -0.1143
   84SAPS  H18Y 8011   1.008   0.199   8.849  1.0336  0.6049 -1.5572
   84SAPS  H18Z 8012   0.989   0.282   8.684 -3.2756  1.6082 -0.3034
   85SAPS     N 8013   3.781   2.027  11.451 -0.6711 -0.0216  0.5812
   85SAPS   HN1 8014   3.680   2.017  11.474 -0.6289 -0.4727  0.5762
   85SAPS   HN2 8015   3.832   1.975  11.525  0.6660  1.2714  0.5969
   85SAPS   HN3 8016   3.815   2.124  11.439 -2.1834  0.6041  1.1098
   85SAPS   C12 8017   3.783   1.938  11.327 -1.2325  0.3208 -0.1783
   85SAPS  H12A 8018   3.881   1.893  11.326 -1.3031  0.1671 -0.3268
   85SAPS   C13 8019   3.695   1.809  11.339  0.3071 -0.2048  0.0258
   85SAPS  O13A 8020   3.609   1.802  11.428  0.0586 -0.0108 -0.2174
   85SAPS  O13B 8021   3.706   1.720  11.256 -0.3403 -0.0239 -0.4859
   85SAPS   C11 8022   3.754   2.016  11.198  0.6984 -0.0640 -0.0412
   85SAPS  H11A 8023   3.656   2.067  11.209  0.7160  0.4239 -1.8836
   85SAPS  H11B 8024   3.737   1.942  11.117 -1.9122 -0.3143  0.6426
   85SAPS     P 8025   3.992   2.087  11.114 -0.2181 -0.1164  0.2196
   85SAPS   O13 8026   4.060   2.210  11.063 -0.1296  0.3884 -0.1229
   85SAPS   O14 8027   4.070   2.012  11.219  0.1359 -0.5235 -0.0557
   85SAPS   O12 8028   3.844   2.122  11.168  0.2917 -0.0626  0.2235
   85SAPS   O11 8029   3.964   1.998  10.992 -0.5911  0.5944  0.1270
   85SAPS    C1 8030   4.058   1.903  10.947  0.2339 -0.2223 -0.0371
   85SAPS    HA 8031   4.153   1.895  11.002 -0.0044  0.3005  0.4605
   85SAPS    HB 8032   4.000   1.808  10.953  4.1365 -2.9034 -1.1989
   85SAPS    C2 8033   4.096   1.925  10.798 -0.0975 -0.4496 -0.4176
   85SAPS    HS 8034   4.154   1.838  10.760  0.3054 -0.5067  0.3281
   85SAPS   O21 8035   4.172   2.044  10.767 -0.1835 -0.0179  0.2105
   85SAPS   C21 8036   4.295   2.054  10.827  0.5482 -0.1916  0.6945
   85SAPS   O22 8037   4.344   1.971  10.902  0.5451 -0.5372  0.0713
   85SAPS   C22 8038   4.364   2.179  10.764 -0.0842  1.1243 -0.4137
   85SAPS   H2R 8039   4.295   2.229  10.693 -0.0741 -0.7129 -1.8028
   85SAPS   H2S 8040   4.383   2.251  10.846 -0.4406  0.9064 -0.1364
   85SAPS    C3 8041   3.965   1.931  10.710  0.0673  0.4065 -0.0164
   85SAPS    HX 8042   3.905   2.024  10.719  0.4095  0.8906 -2.2022
   85SAPS    HY 8043   3.903   1.846  10.746  1.2153 -0.6643 -0.4936
   85SAPS   O31 8044   4.005   1.918  10.570  0.4908  0.0389  0.1662
   85SAPS   C31 8045   4.024   2.032  10.502  0.4995  0.2007  0.1117
   85SAPS   O32 8046   3.989   2.143  10.546 -0.0576 -0.0713  0.9318
   85SAPS   C32 8047   4.082   2.008  10.366 -0.3585 -0.6195 -0.4666
   85SAPS   H2X 8048   4.072   1.898  10.351 -2.5608 -0.8475  1.9472
   85SAPS   H2Y 8049   4.189   2.038  10.358  0.2859 -2.4465  0.5329
   85SAPS   C23 8050   4.488   2.130  10.689 -0.4105  0.7538 -0.2938
   85SAPS   H3R 8051   4.465   2.059  10.607  0.4558 -0.1030  0.1889
   85SAPS   H3S 8052   4.554   2.066  10.751  2.1017  1.9236 -1.6180
   85SAPS   C24 8053   4.579   2.252  10.645  0.3789  0.0958  0.4984
   85SAPS   H4R 8054   4.680   2.214  10.619 -0.2428 -0.0452 -1.8859
   85SAPS   H4S 8055   4.611   2.307  10.736 -0.7876  1.5231  0.0803
   85SAPS   C25 8056   4.512   2.342  10.546 -0.2568 -0.4789 -0.0962
   85SAPS   H5R 8057   4.482   2.442  10.582  0.6069 -0.2257 -0.0493
   85SAPS   C26 8058   4.510   2.326  10.416  0.1773 -0.1474  0.0566
   85SAPS   H6R 8059   4.464   2.410  10.361 -0.1592 -0.7836 -0.6564
   85SAPS   C27 8060   4.568   2.212  10.338 -0.0012 -0.2960  1.0006
   85SAPS   H7R 8061   4.486   2.144  10.307  0.3679  0.3433 -1.5342
   85SAPS   H7S 8062   4.638   2.145  10.393 -2.1205 -2.1920  1.5569
   85SAPS   C28 8063   4.649   2.263  10.215 -0.0431  0.0545  0.0764
   85SAPS   H8R 8064   4.757   2.243  10.214  0.4782  2.4092  0.8955
   85SAPS   C29 8065   4.599   2.294  10.089  0.4655  0.1305 -1.1962
   85SAPS   H9R 8066   4.669   2.320  10.009  2.0549  0.6749  0.3198
   85SAPS  C210 8067   4.448   2.307  10.055 -0.7048  0.4970 -0.1335
   85SAPS  H10R 8068   4.395   2.345  10.145  0.4010 -0.4574  0.9785
   85SAPS  H10S 8069   4.415   2.204  10.026  0.5768 -1.0203  3.2468
   85SAPS  C211 8070   4.429   2.406   9.949  0.0841  0.0730  0.0624
   85SAPS  H11R 8071   4.398   2.504   9.987  1.1161  1.4139 -2.2992
   85SAPS  C212 8072   4.440   2.386   9.818 -0.3555 -0.3353 -0.1811
   85SAPS  H12R 8073   4.418   2.472   9.752  0.1986 -1.2978 -1.6614
   85SAPS  C213 8074   4.471   2.258   9.743 -0.3747 -0.5352 -0.4581
   85SAPS  H13R 8075   4.438   2.267   9.637  0.6682 -1.8032 -0.9246
   85SAPS  H13S 8076   4.402   2.181   9.784  0.8006 -1.1570  0.4218
   85SAPS  C214 8077   4.619   2.209   9.729 -0.1124  1.1733  0.0236
   85SAPS  H14R 8078   4.649   2.135   9.805  0.6802  2.6046  1.1625
   85SAPS  C215 8079   4.723   2.272   9.665  0.6078  0.2137  0.2016
   85SAPS  H15R 8080   4.825   2.232   9.675  0.1533 -1.2605 -0.6821
   85SAPS  C216 8081   4.713   2.404   9.594  0.1639  0.5609  0.0252
   85SAPS  H16R 8082   4.763   2.486   9.649  0.3813  0.2711  0.2625
   85SAPS  H16S 8083   4.608   2.436   9.573  0.1401  0.0305 -0.7049
   85SAPS  C217 8084   4.780   2.369   9.466  0.0542 -0.0541 -0.2306
   85SAPS  H17R 8085   4.745   2.274   9.421 -2.4311  0.8068 -0.2510
   85SAPS  H17S 8086   4.890   2.364   9.481 -0.1310  1.7140  2.2874
   85SAPS  C218 8087   4.759   2.483   9.367  0.2381 -0.3302  0.4385
   85SAPS  H18R 8088   4.820   2.473   9.274 -1.0399 -0.6448 -0.3929
   85SAPS  H18S 8089   4.780   2.586   9.403 -1.1662  0.7728 -1.6280
   85SAPS  C219 8090   4.618   2.491   9.311  0.0468  0.0469  0.1209
   85SAPS  H19R 8091   4.547   2.508   9.394  1.0406 -1.1000  1.2591
   85SAPS  H19S 8092   4.593   2.395   9.260 -1.6468 -0.8913  2.5180
   85SAPS  C220 8093   4.605   2.611   9.217  0.0894  0.3221 -0.5839
   85SAPS  H20R 8094   4.672   2.590   9.131 -0.0600 -2.3880 -0.1478
   85SAPS  H20S 8095   4.630   2.703   9.273 -0.2605 -1.0327  1.9263
   85SAPS  H20T 8096   4.504   2.618   9.171  0.3883 -0.5540 -1.4051
   85SAPS   C33 8097   4.006   2.090  10.255 -0.1532  0.2287  0.3786
   85SAPS   H3X 8098   3.999   2.197  10.283 -0.9670 -0.0624  1.3574
   85SAPS   H3Y 8099   3.899   2.060  10.262 -1.0043  2.7341 -0.7810
   85SAPS   C34 8100   4.069   2.053  10.122 -0.5204  0.3288 -0.3479
   85SAPS   H4X 8101   4.067   1.942  10.115  0.6454  0.1700  1.1826
   85SAPS   H4Y 8102   4.175   2.080  10.141 -0.8766  0.0686  2.5196
   85SAPS   C35 8103   4.009   2.123   9.997  0.5882 -0.9146  0.5110
   85SAPS   H5X 8104   4.028   2.226  10.032  0.6974 -0.7631  0.0194
   85SAPS   H5Y 8105   3.899   2.110   9.993  0.1280  2.5354 -0.9933
   85SAPS   C36 8106   4.071   2.098   9.862 -0.3099 -0.4281 -0.0722
   85SAPS   H6X 8107   4.019   2.018   9.805 -0.7267  0.4606 -0.9555
   85SAPS   H6Y 8108   4.166   2.050   9.894 -0.1077  2.0011  3.7131
   85SAPS   C37 8109   4.094   2.223   9.776  0.3327 -0.0083 -0.1971
   85SAPS   H7X 8110   4.190   2.266   9.811 -1.9443  3.7086  2.1405
   85SAPS   H7Y 8111   4.023   2.306   9.799  0.0293 -0.4026  0.2877
   85SAPS   C38 8112   4.100   2.198   9.623 -0.3338 -0.2012  0.0497
   85SAPS   H8X 8113   4.151   2.283   9.573 -0.9361 -0.2913 -0.7325
   85SAPS   H8Y 8114   3.993   2.184   9.597 -0.6807 -1.7747  2.0446
   85SAPS   C39 8115   4.195   2.075   9.595  0.1609 -1.1074 -0.6598
   85SAPS   H9X 8116   4.148   1.989   9.647  2.2952 -2.3095 -0.5985
   85SAPS   H9Y 8117   4.297   2.094   9.637  0.0337 -0.8661 -0.4605
   85SAPS  C310 8118   4.221   2.046   9.450 -0.4307 -0.4960 -0.5305
   85SAPS  H10X 8119   4.274   1.949   9.435  0.9287  0.0378  0.6010
   85SAPS  H10Y 8120   4.299   2.120   9.424 -1.4774  1.5699  1.8464
   85SAPS  C311 8121   4.105   2.076   9.354  0.1897  0.3519 -0.1604
   85SAPS  H11X 8122   4.077   2.183   9.349 -0.5030  0.1564 -0.6554
   85SAPS  H11Y 8123   4.011   2.026   9.387  0.9927 -0.7342  0.5189
   85SAPS  C312 8124   4.147   2.051   9.205 -0.2853 -0.2149 -0.6531
   85SAPS  H12X 8125   4.171   1.943   9.190  0.0638 -0.4195  1.0971
   85SAPS  H12Y 8126   4.235   2.118   9.198 -0.9848  0.8407  0.2920
   85SAPS  C313 8127   4.055   2.084   9.085  0.2204  0.5157  0.2902
   85SAPS  H13X 8128   4.004   2.179   9.113  0.2112  0.5777  0.0648
   85SAPS  H13Y 8129   3.978   2.005   9.070  1.4233 -0.7714  0.6505
   85SAPS  C314 8130   4.124   2.103   8.951  0.5871  0.0377  0.1868
   85SAPS  H14X 8131   4.207   2.177   8.958  0.8119 -0.2890  1.0536
   85SAPS  H14Y 8132   4.052   2.148   8.880  0.3961  0.2932  0.5421
   85SAPS  C315 8133   4.175   1.971   8.891 -0.2696 -0.1212 -0.3011
   85SAPS  H15X 8134   4.090   1.904   8.917 -0.8196 -0.1959 -2.1158
   85SAPS  H15Y 8135   4.253   1.930   8.957 -1.2706  0.0026  1.0078
   85SAPS  C316 8136   4.235   1.977   8.750  0.6215  0.4361 -0.4035
   85SAPS  H16X 8137   4.322   2.047   8.749  0.3403  0.7897 -0.2604
   85SAPS  H16Y 8138   4.154   2.015   8.684  0.9665  1.7564 -0.1103
   85SAPS  C317 8139   4.294   1.848   8.693 -0.6309  0.7349  1.3110
   85SAPS  H17X 8140   4.384   1.818   8.751 -1.5369 -2.5026  1.2262
   85SAPS  H17Y 8141   4.317   1.873   8.588 -0.2731 -0.8495  0.9824
   85SAPS  C318 8142   4.197   1.727   8.692 -0.7920  0.6191 -0.0905
   85SAPS  H18X 8143   4.166   1.698   8.795  3.7384  0.2730  1.3699
   85SAPS  H18Y 8144   4.253   1.642   8.648  0.0435 -0.0398  2.1271
   85SAPS  H18Z 8145   4.102   1.752   8.639  0.3823 -1.5408 -3.4557
   86SAPS     N 8146   5.555   2.953  11.196  0.5886  0.1841  0.0412
   86SAPS   HN1 8147   5.531   3.008  11.111 -1.0667  0.9718  0.9761
   86SAPS   HN2 8148   5.635   2.999  11.243  0.2094 -0.8389  1.7638
   86SAPS   HN3 8149   5.586   2.859  11.162  0.2759  0.6570 -1.6441
   86SAPS   C12 8150   5.426   2.930  11.275  0.0627 -0.6040  0.7343
   86SAPS  H12A 8151   5.445   2.856  11.351 -1.0456  1.2910  2.9957
   86SAPS   C13 8152   5.372   3.046  11.354 -0.1299 -0.3690 -0.2394
   86SAPS  O13A 8153   5.412   3.165  11.347  0.4027  0.2049 -0.2262
   86SAPS  O13B 8154   5.266   3.018  11.424 -0.1606 -0.3904 -0.0985
   86SAPS   C11 8155   5.314   2.900  11.172  0.2894 -0.8394  0.2298
   86SAPS  H11A 8156   5.211   2.904  11.213  0.4205  1.4590  0.4739
   86SAPS  H11B 8157   5.325   2.793  11.148 -1.9964 -1.4155  1.4604
   86SAPS     P 8158   5.264   2.956  10.924 -0.1932 -0.3043  0.1695
   86SAPS   O13 8159   5.123   2.999  10.931  0.1119 -0.1764 -0.4777
   86SAPS   O14 8160   5.338   3.021  10.817  0.4732  0.2711 -0.0435
   86SAPS   O12 8161   5.330   2.993  11.057 -0.5069 -0.1711  0.4765
   86SAPS   O11 8162   5.261   2.799  10.914 -0.4441  0.7068 -0.2196
   86SAPS    C1 8163   5.360   2.743  10.829  0.0122  0.1322 -0.8550
   86SAPS    HA 8164   5.445   2.810  10.805  1.3970 -0.6033  1.7186
   86SAPS    HB 8165   5.411   2.669  10.893 -0.0113  1.5527  0.8877
   86SAPS    C2 8166   5.295   2.676  10.707 -0.8637  0.7816  0.4256
   86SAPS    HS 8167   5.366   2.605  10.660 -0.8967  0.2481  1.1776
   86SAPS   O21 8168   5.243   2.764  10.605  0.0155  0.2221 -0.3041
   86SAPS   C21 8169   5.326   2.849  10.545 -0.3171  0.6095  0.3028
   86SAPS   O22 8170   5.446   2.865  10.566  0.1454 -0.1536 -0.0502
   86SAPS   C22 8171   5.251   2.915  10.432 -0.0563 -0.1537  0.0947
   86SAPS   H2R 8172   5.204   2.839  10.367 -0.8722 -1.8299  2.5023
   86SAPS   H2S 8173   5.167   2.967  10.484  1.7321  1.7134  1.2507
   86SAPS    C3 8174   5.177   2.580  10.738  0.7292 -0.1278  0.3010
   86SAPS    HX 8175   5.085   2.630  10.774 -0.3431 -2.2235  0.6241
   86SAPS    HY 8176   5.193   2.527  10.835 -1.6217 -0.4481  0.5619
   86SAPS   O31 8177   5.156   2.484  10.629  0.6089  0.5700  0.5023
   86SAPS   C31 8178   5.037   2.499  10.576 -1.2446  0.0805  0.0047
   86SAPS   O32 8179   4.960   2.587  10.602  0.7235  0.2061 -0.4395
   86SAPS   C32 8180   5.010   2.373  10.495 -0.4429  0.4857  0.7247
   86SAPS   H2X 8181   4.902   2.368  10.472 -0.4545 -0.1664  0.8993
   86SAPS   H2Y 8182   5.039   2.281  10.550 -0.5967 -0.0845 -0.1324
   86SAPS   C23 8183   5.342   3.010  10.344 -0.7545  0.0324  0.3750
   86SAPS   H3R 8184   5.422   2.944  10.307 -2.3030 -2.1345  0.6944
   86SAPS   H3S 8185   5.387   3.089  10.408 -2.7061  2.0563 -0.6231
   86SAPS   C24 8186   5.269   3.072  10.225 -0.2241  0.3337 -0.4782
   86SAPS   H4R 8187   5.207   2.993  10.179 -2.1719  1.8078 -0.5079
   86SAPS   H4S 8188   5.336   3.104  10.142 -0.4627  1.1496 -0.3737
   86SAPS   C25 8189   5.183   3.190  10.269 -0.0446 -0.0484  0.6337
   86SAPS   H5R 8190   5.170   3.196  10.378  2.3540  0.0099  0.9698
   86SAPS   C26 8191   5.140   3.287  10.186  0.4343  0.0531  0.9689
   86SAPS   H6R 8192   5.086   3.365  10.241 -2.5406 -1.0184 -0.2638
   86SAPS   C27 8193   5.148   3.285  10.033 -0.1226 -0.3419 -0.0931
   86SAPS   H7R 8194   5.051   3.285   9.980  0.3444  1.1303 -1.0125
   86SAPS   H7S 8195   5.200   3.192  10.002  0.7514  0.1896 -0.2724
   86SAPS   C28 8196   5.226   3.410   9.982 -0.0032 -0.0894 -0.0389
   86SAPS   H8R 8197   5.265   3.461  10.071 -0.8497 -0.6378  0.6578
   86SAPS   C29 8198   5.240   3.454   9.857 -0.2478  0.0995 -0.1107
   86SAPS   H9R 8199   5.297   3.547   9.844 -2.1281  1.3395  0.0101
   86SAPS  C210 8200   5.188   3.402   9.726 -1.0734 -0.2537 -0.0245
   86SAPS  H10R 8201   5.172   3.295   9.747  2.6268 -0.7800  0.8277
   86SAPS  H10S 8202   5.276   3.412   9.658  0.3808  1.8528  1.9890
   86SAPS  C211 8203   5.052   3.443   9.672 -0.1482  0.0971  0.3496
   86SAPS  H11R 8204   4.983   3.488   9.744 -0.5143 -0.8586  0.6101
   86SAPS  C212 8205   5.020   3.440   9.541 -0.6512  0.3651 -0.0466
   86SAPS  H12R 8206   4.918   3.470   9.510  0.0751  0.3293 -2.7297
   86SAPS  C213 8207   5.111   3.405   9.426  0.0646 -0.5921 -0.1279
   86SAPS  H13R 8208   5.194   3.336   9.452  0.2068 -0.5382 -0.4438
   86SAPS  H13S 8209   5.171   3.495   9.404 -1.4030 -0.2622 -3.2310
   86SAPS  C214 8210   5.039   3.369   9.298  0.3529  0.5076 -0.0902
   86SAPS  H14R 8211   5.015   3.261   9.302 -1.5802  0.9292  1.0874
   86SAPS  C215 8212   4.998   3.447   9.199 -0.3237 -0.0892  0.3810
   86SAPS  H15R 8213   4.974   3.389   9.108 -0.5839 -0.1370  0.4802
   86SAPS  C216 8214   5.004   3.594   9.182  0.1922 -0.4118 -0.3042
   86SAPS  H16R 8215   5.075   3.635   9.257  2.8693 -0.6865 -2.4941
   86SAPS  H16S 8216   4.909   3.647   9.202 -0.1917 -0.6698 -1.3954
   86SAPS  C217 8217   5.060   3.638   9.041 -0.6456  0.0737 -0.5877
   86SAPS  H17R 8218   5.148   3.574   9.017  0.1463  0.7252  0.4437
   86SAPS  H17S 8219   5.087   3.745   9.057 -1.7457  0.0982  1.4027
   86SAPS  C218 8220   4.954   3.651   8.933  1.3473  0.0999  0.5150
   86SAPS  H18R 8221   4.864   3.713   8.956  0.3711 -0.6957 -0.9471
   86SAPS  H18S 8222   4.923   3.547   8.910  1.3618  0.3158 -0.5589
   86SAPS  C219 8223   5.023   3.691   8.799  0.1709  0.6319  0.6969
   86SAPS  H19R 8224   5.111   3.625   8.780 -1.1926 -1.1272  0.1161
   86SAPS  H19S 8225   5.060   3.795   8.794  2.4272  0.2232  4.7795
   86SAPS  C220 8226   4.936   3.663   8.678 -0.4707 -0.7687  0.0083
   86SAPS  H20R 8227   4.915   3.554   8.673  1.4932 -1.3098  2.0165
   86SAPS  H20S 8228   5.004   3.695   8.597 -0.0673  3.0016  1.6209
   86SAPS  H20T 8229   4.843   3.724   8.675  1.2151  1.9260 -2.0114
   86SAPS   C33 8230   5.090   2.382  10.361  0.0837 -0.2159 -0.1504
   86SAPS   H3X 8231   5.192   2.420  10.383 -0.3547  0.1806  1.3068
   86SAPS   H3Y 8232   5.046   2.460  10.295 -1.4900 -1.8616 -1.1524
   86SAPS   C34 8233   5.091   2.254  10.280  0.6826  0.3711 -0.6669
   86SAPS   H4X 8234   4.984   2.235  10.260  0.9243 -1.4274 -0.3856
   86SAPS   H4Y 8235   5.115   2.161  10.336  0.2048 -2.1717 -4.3151
   86SAPS   C35 8236   5.165   2.253  10.145  0.3851 -0.7131 -0.0642
   86SAPS   H5X 8237   5.149   2.154  10.096  1.7722 -0.7950 -0.4068
   86SAPS   H5Y 8238   5.271   2.280  10.163  0.3494 -0.1598 -0.6439
   86SAPS   C36 8239   5.105   2.354  10.042  0.1584  0.0693 -0.3902
   86SAPS   H6X 8240   5.114   2.461  10.069 -0.8500  0.4804 -1.5697
   86SAPS   H6Y 8241   4.997   2.327  10.035  0.0932 -0.5009  1.9483
   86SAPS   C37 8242   5.172   2.340   9.902  0.0053  0.5931 -0.4664
   86SAPS   H7X 8243   5.149   2.238   9.864 -0.7493  1.0036 -1.1503
   86SAPS   H7Y 8244   5.283   2.349   9.903  0.2262 -1.5711  0.6493
   86SAPS   C38 8245   5.119   2.431   9.802  0.5790 -0.2609  0.4223
   86SAPS   H8X 8246   5.126   2.534   9.844 -1.0622  0.0936 -0.0891
   86SAPS   H8Y 8247   5.008   2.423   9.803  0.2718  1.9832  3.9980
   86SAPS   C39 8248   5.180   2.402   9.663  0.5902 -0.5141  0.0143
   86SAPS   H9X 8249   5.172   2.300   9.620  3.2368 -0.8874  0.2405
   86SAPS   H9Y 8250   5.291   2.406   9.672  0.8520 -1.4972 -2.0175
   86SAPS  C310 8251   5.144   2.513   9.563  0.0577 -0.0339 -0.8142
   86SAPS  H10X 8252   5.157   2.614   9.607  3.8033 -0.6637 -0.1294
   86SAPS  H10Y 8253   5.038   2.522   9.530  0.1116  1.5840 -0.6350
   86SAPS  C311 8254   5.236   2.503   9.438 -0.1680  0.1973 -0.0833
   86SAPS  H11X 8255   5.227   2.399   9.398  0.0391 -0.0358  0.4697
   86SAPS  H11Y 8256   5.343   2.516   9.465  0.0487 -1.2048 -0.1701
   86SAPS  C312 8257   5.183   2.584   9.318  0.0073  0.7004  0.1200
   86SAPS  H12X 8258   5.206   2.689   9.345  0.7248  0.6345 -0.2000
   86SAPS  H12Y 8259   5.073   2.572   9.320  0.1699 -1.2094 -0.5102
   86SAPS  C313 8260   5.250   2.552   9.188 -0.2396  0.8746 -0.1143
   86SAPS  H13X 8261   5.220   2.449   9.159  1.3729  0.0470  1.0267
   86SAPS  H13Y 8262   5.358   2.543   9.211  0.1997  1.6282 -1.7388
   86SAPS  C314 8263   5.240   2.652   9.079 -0.6373  0.0957 -0.0687
   86SAPS  H14X 8264   5.319   2.624   9.006  0.3376  0.8159  0.6917
   86SAPS  H14Y 8265   5.248   2.758   9.109  0.7706  0.8183 -2.7456
   86SAPS  C315 8266   5.105   2.621   9.017  0.5570  0.2659  1.0430
   86SAPS  H15X 8267   5.031   2.617   9.100 -0.0278  0.1670  0.5250
   86SAPS  H15Y 8268   5.093   2.521   8.971  0.4743  0.6861  0.1318
   86SAPS  C316 8269   5.075   2.735   8.917  0.3625 -0.1114  0.2824
   86SAPS  H16X 8270   5.148   2.727   8.834  1.2750  1.0743  0.9485
   86SAPS  H16Y 8271   5.094   2.831   8.969 -0.7774  0.6315 -0.6009
   86SAPS  C317 8272   4.929   2.733   8.862 -0.2031  0.2769  0.4411
   86SAPS  H17X 8273   4.861   2.772   8.940  1.4537 -0.7708  2.5331
   86SAPS  H17Y 8274   4.904   2.626   8.845 -0.1748  0.2305  0.6840
   86SAPS  C318 8275   4.902   2.816   8.737 -0.5449  1.0360 -0.0590
   86SAPS  H18X 8276   4.792   2.819   8.722 -0.5582 -1.8720 -1.2389
   86SAPS  H18Y 8277   4.946   2.764   8.648  1.3009 -0.7638  1.7830
   86SAPS  H18Z 8278   4.946   2.917   8.749  1.4629  0.3626 -1.1615
   87SAPS     N 8279   5.609   3.052  10.778  0.7732  0.3046 -0.0118
   87SAPS   HN1 8280   5.594   3.033  10.677  1.9421 -0.7188 -0.0256
   87SAPS   HN2 8281   5.672   2.974  10.806 -1.0017 -0.6456  1.5544
   87SAPS   HN3 8282   5.514   3.037  10.816  1.0280 -0.9738  0.1626
   87SAPS   C12 8283   5.671   3.178  10.810  0.0716 -0.2324 -0.1812
   87SAPS  H12A 8284   5.639   3.248  10.734  1.8619  0.3115 -0.4778
   87SAPS   C13 8285   5.629   3.233  10.947 -0.5731 -0.7392  0.7547
   87SAPS  O13A 8286   5.538   3.183  11.018 -0.1972 -0.2588  0.0097
   87SAPS  O13B 8287   5.706   3.331  10.983  0.0180 -0.0837 -0.3244
   87SAPS   C11 8288   5.827   3.159  10.785 -0.4107 -0.1242 -1.0369
   87SAPS  H11A 8289   5.872   3.260  10.795  2.1814 -1.2625 -0.3881
   87SAPS  H11B 8290   5.842   3.139  10.677 -0.7877  3.1275 -1.8115
   87SAPS     P 8291   6.032   3.019  10.867 -0.1159 -0.0836 -0.0522
   87SAPS   O13 8292   6.110   3.147  10.882  0.2004  0.7778 -0.1638
   87SAPS   O14 8293   6.078   2.906  10.951  0.4147  0.3013  0.6147
   87SAPS   O12 8294   5.881   3.059  10.875  0.3060  0.4490  0.1950
   87SAPS   O11 8295   6.042   2.985  10.716  0.4565  0.3540  0.3437
   87SAPS    C1 8296   5.950   2.892  10.661 -0.0389 -0.5054  0.3301
   87SAPS    HA 8297   5.952   2.794  10.712 -0.9211 -1.7446 -1.8928
   87SAPS    HB 8298   5.849   2.939  10.662 -0.7934 -2.0588  0.0257
   87SAPS    C2 8299   5.992   2.859  10.518  0.5630 -0.2398  0.2482
   87SAPS    HS 8300   6.101   2.838  10.515  0.7962  0.9725 -1.0539
   87SAPS   O21 8301   5.953   2.976  10.442  0.4764  0.4269  0.0532
   87SAPS   C21 8302   6.057   3.061  10.425  0.0698  0.6386 -0.0722
   87SAPS   O22 8303   6.174   3.030  10.433  0.2701 -0.7139 -0.0901
   87SAPS   C22 8304   6.005   3.197  10.374 -0.2062 -0.2140  0.3912
   87SAPS   H2R 8305   5.906   3.176  10.328  0.5073 -2.5207 -0.2198
   87SAPS   H2S 8306   6.010   3.261  10.465 -0.0075  2.0442 -1.1310
   87SAPS    C3 8307   5.914   2.727  10.470 -0.2432 -0.4454 -0.3702
   87SAPS    HX 8308   5.809   2.720  10.504 -0.0351  0.0286  0.3954
   87SAPS    HY 8309   5.958   2.643  10.528  1.7885  2.7209  3.1259
   87SAPS   O31 8310   5.924   2.710  10.327 -0.0610  0.5707  0.3674
   87SAPS   C31 8311   5.848   2.785  10.251 -0.0840  0.3225 -0.0045
   87SAPS   O32 8312   5.752   2.848  10.294 -0.3688  0.2989  0.1239
   87SAPS   C32 8313   5.891   2.783  10.112 -0.1354 -0.1948 -0.0481
   87SAPS   H2X 8314   5.898   2.681  10.067 -1.8570  0.5785 -2.2240
   87SAPS   H2Y 8315   5.993   2.827  10.121 -0.9746  1.8857 -0.2131
   87SAPS   C23 8316   6.103   3.256  10.278 -0.2519 -0.8341 -0.0228
   87SAPS   H3R 8317   6.203   3.248  10.327 -0.6512 -0.2650  0.9082
   87SAPS   H3S 8318   6.082   3.364  10.261 -0.9439 -0.8979  0.3979
   87SAPS   C24 8319   6.102   3.178  10.145 -0.0635 -0.5864  0.7713
   87SAPS   H4R 8320   5.997   3.164  10.112  0.4711 -0.4011 -1.1387
   87SAPS   H4S 8321   6.130   3.072  10.164 -0.0051 -0.2432  2.7828
   87SAPS   C25 8322   6.167   3.233  10.018  0.0731 -0.3930  0.7071
   87SAPS   H5R 8323   6.139   3.336   9.994 -0.4300 -0.8290 -0.7002
   87SAPS   C26 8324   6.243   3.170   9.926 -0.9673  0.0815  0.5616
   87SAPS   H6R 8325   6.288   3.224   9.842 -0.0738 -0.8753  0.4111
   87SAPS   C27 8326   6.291   3.028   9.928 -0.1760 -0.0589  0.4169
   87SAPS   H7R 8327   6.290   2.976   9.829  0.1437  0.4976  0.1149
   87SAPS   H7S 8328   6.205   2.967   9.964 -0.3065 -1.1625 -1.5820
   87SAPS   C28 8329   6.416   2.989  10.009  0.3001 -0.7120  0.5508
   87SAPS   H8R 8330   6.411   2.996  10.118  0.7752  1.7224  0.4637
   87SAPS   C29 8331   6.527   2.936   9.943 -0.5080  0.2417 -0.7624
   87SAPS   H9R 8332   6.612   2.903  10.005  0.2803  1.9518 -0.8676
   87SAPS  C210 8333   6.554   2.918   9.798 -0.0623 -0.6166  0.1431
   87SAPS  H10R 8334   6.563   3.018   9.751 -0.0831 -1.0242 -0.7552
   87SAPS  H10S 8335   6.475   2.851   9.758  3.1806 -3.4070 -2.1595
   87SAPS  C211 8336   6.682   2.844   9.754 -0.1796 -0.0831  0.4489
   87SAPS  H11R 8337   6.752   2.814   9.834  0.2386 -2.5399 -0.7485
   87SAPS  C212 8338   6.716   2.811   9.631  0.0062 -0.1966  0.8250
   87SAPS  H12R 8339   6.811   2.757   9.613  0.2340  0.3826  0.2804
   87SAPS  C213 8340   6.629   2.823   9.503 -0.1407  0.4097 -0.3205
   87SAPS  H13R 8341   6.688   2.879   9.428  0.0737  0.3207 -0.2194
   87SAPS  H13S 8342   6.537   2.877   9.532  0.8059  0.1528  3.7127
   87SAPS  C214 8343   6.599   2.685   9.466 -0.7874  0.3202 -0.0734
   87SAPS  H14R 8344   6.555   2.628   9.549  1.1630  0.4917  1.1499
   87SAPS  C215 8345   6.646   2.623   9.357 -0.4384 -0.8368 -0.4694
   87SAPS  H15R 8346   6.632   2.515   9.340  0.9680 -1.4191  1.7101
   87SAPS  C216 8347   6.737   2.692   9.252  0.9977 -0.2375  0.7939
   87SAPS  H16R 8348   6.776   2.610   9.189 -1.7632 -0.2199 -1.1219
   87SAPS  H16S 8349   6.818   2.749   9.303  1.0475  1.2428 -0.8260
   87SAPS  C217 8350   6.648   2.777   9.161  0.1134 -0.1255  0.1218
   87SAPS  H17R 8351   6.574   2.830   9.223  1.2780 -1.3962  2.7788
   87SAPS  H17S 8352   6.593   2.713   9.088  0.4731 -0.5850  0.2432
   87SAPS  C218 8353   6.735   2.875   9.090  0.5184  0.1862 -1.1117
   87SAPS  H18R 8354   6.812   2.834   9.022 -1.1477 -1.6500 -1.9678
   87SAPS  H18S 8355   6.779   2.937   9.172  1.6523 -1.0680 -0.7366
   87SAPS  C219 8356   6.646   2.952   8.997 -0.3905 -0.0568 -0.1101
   87SAPS  H19R 8357   6.700   3.040   8.955 -1.0785  0.3929 -0.0649
   87SAPS  H19S 8358   6.565   2.995   9.060  0.1993 -0.5011  0.9794
   87SAPS  C220 8359   6.587   2.877   8.877  0.3901  0.4393 -0.0260
   87SAPS  H20R 8360   6.505   2.809   8.909 -1.8837  2.8628 -0.3770
   87SAPS  H20S 8361   6.667   2.818   8.829  1.3799  2.2329 -0.6727
   87SAPS  H20T 8362   6.547   2.942   8.797  1.1233 -1.2913 -1.8817
   87SAPS   C33 8363   5.810   2.881  10.019  0.0908 -0.0332  0.3966
   87SAPS   H3X 8364   5.826   2.985  10.055  0.7517 -0.2751  0.8410
   87SAPS   H3Y 8365   5.700   2.871  10.021 -0.1521  1.7509 -1.2239
   87SAPS   C34 8366   5.852   2.875   9.869  0.0978 -0.2075 -0.4215
   87SAPS   H4X 8367   5.950   2.923   9.850  1.7610 -3.5299 -0.9105
   87SAPS   H4Y 8368   5.774   2.939   9.821 -1.0175  0.2065  1.8467
   87SAPS   C35 8369   5.851   2.736   9.806  0.6447  0.1989  0.2855
   87SAPS   H5X 8370   5.760   2.682   9.837  0.3402 -0.3209 -1.4050
   87SAPS   H5Y 8371   5.942   2.683   9.842  1.3579  1.4197  0.3600
   87SAPS   C36 8372   5.857   2.717   9.652 -0.1871 -1.0862  0.4961
   87SAPS   H6X 8373   5.949   2.762   9.609 -1.1726 -0.5375 -1.1002
   87SAPS   H6Y 8374   5.780   2.778   9.600  0.5513 -0.7865 -0.2709
   87SAPS   C37 8375   5.859   2.566   9.620 -0.4087  0.4815 -0.2046
   87SAPS   H7X 8376   5.756   2.527   9.626  1.0017 -3.5799  0.8393
   87SAPS   H7Y 8377   5.922   2.516   9.696 -1.9600 -1.6814 -0.2506
   87SAPS   C38 8378   5.901   2.534   9.478 -0.3828 -0.0898 -0.5117
   87SAPS   H8X 8379   5.886   2.424   9.472 -3.0186  0.0789  1.3070
   87SAPS   H8Y 8380   6.008   2.560   9.491  0.7816 -3.3533 -2.2522
   87SAPS   C39 8381   5.848   2.611   9.361 -0.0585 -0.5986  0.2620
   87SAPS   H9X 8382   5.915   2.584   9.276  0.1055 -0.3139  0.3002
   87SAPS   H9Y 8383   5.857   2.720   9.379  1.2943 -1.0414  2.8401
   87SAPS  C310 8384   5.707   2.577   9.320  0.0041  0.1540 -0.0272
   87SAPS  H10X 8385   5.638   2.564   9.406  1.3421  0.1019  1.0590
   87SAPS  H10Y 8386   5.730   2.477   9.276 -0.7811 -0.0706  0.0540
   87SAPS  C311 8387   5.651   2.665   9.208  0.4609 -1.0241 -0.0444
   87SAPS  H11X 8388   5.607   2.752   9.263 -0.4903 -1.7166  0.3123
   87SAPS  H11Y 8389   5.568   2.614   9.156  0.5706  0.4901 -1.8257
   87SAPS  C312 8390   5.756   2.715   9.112 -0.1717 -0.5215 -0.4695
   87SAPS  H12X 8391   5.809   2.628   9.067 -1.3365 -1.6468  0.2631
   87SAPS  H12Y 8392   5.834   2.768   9.170  0.7508 -2.5865  0.2964
   87SAPS  C313 8393   5.701   2.829   9.016  0.1211 -0.9958  0.3071
   87SAPS  H13X 8394   5.796   2.878   8.985  1.6828 -4.4842 -0.9157
   87SAPS  H13Y 8395   5.630   2.900   9.064  0.1896  0.2906 -1.3807
   87SAPS  C314 8396   5.647   2.773   8.883  0.4054  0.3717 -0.6645
   87SAPS  H14X 8397   5.606   2.670   8.893 -0.1002  0.6539  0.2949
   87SAPS  H14Y 8398   5.733   2.746   8.818  0.0435 -0.1262 -0.9422
   87SAPS  C315 8399   5.543   2.861   8.815 -0.1096  1.2602 -0.1140
   87SAPS  H15X 8400   5.555   2.963   8.858  2.3616  0.9716  0.0073
   87SAPS  H15Y 8401   5.437   2.833   8.835  0.7098 -0.4970  2.0935
   87SAPS  C316 8402   5.551   2.857   8.663 -0.1060 -0.0570  0.1575
   87SAPS  H16X 8403   5.648   2.891   8.622 -0.8181  0.6100 -1.0331
   87SAPS  H16Y 8404   5.468   2.920   8.623  0.4100  0.1425 -0.6218
   87SAPS  C317 8405   5.534   2.718   8.603  0.0058 -0.1001 -0.6476
   87SAPS  H17X 8406   5.464   2.654   8.661 -0.1106  1.0418  0.5489
   87SAPS  H17Y 8407   5.628   2.660   8.613 -0.4100 -0.4032  3.4866
   87SAPS  C318 8408   5.485   2.715   8.460  1.0322 -0.2985  0.5792
   87SAPS  H18X 8409   5.527   2.802   8.405  1.7377  1.1050  3.1843
   87SAPS  H18Y 8410   5.374   2.703   8.462  0.9747  0.1509  0.1444
   87SAPS  H18Z 8411   5.522   2.621   8.414  0.8880 -0.9110  1.6803
   88SAPS     N 8412   1.881   1.884  11.093 -0.3993 -0.1788 -0.1027
   88SAPS   HN1 8413   1.952   1.891  11.018  1.4043  3.9207  1.6665
   88SAPS   HN2 8414   1.784   1.887  11.055 -0.3971  0.2640 -0.0812
   88SAPS   HN3 8415   1.889   1.966  11.157  1.0958  1.0130 -1.7015
   88SAPS   C12 8416   1.906   1.760  11.160 -0.0627 -0.5086  0.6296
   88SAPS  H12A 8417   2.013   1.750  11.161 -0.2107 -2.8197  0.2731
   88SAPS   C13 8418   1.867   1.765  11.303  0.2271  0.2184 -0.4597
   88SAPS  O13A 8419   1.793   1.859  11.349  0.4907 -0.0124 -0.1952
   88SAPS  O13B 8420   1.879   1.658  11.371 -1.3941 -0.1397 -0.3906
   88SAPS   C11 8421   1.824   1.646  11.083  0.4296 -0.4667 -0.8460
   88SAPS  H11A 8422   1.715   1.658  11.101  0.8926  1.1230  1.3509
   88SAPS  H11B 8423   1.854   1.556  11.140 -1.3967 -0.1491  0.7244
   88SAPS     P 8424   1.965   1.533  10.881 -0.0234 -0.1079 -0.3704
   88SAPS   O13 8425   1.959   1.539  10.735  0.5312 -0.0333 -0.3644
   88SAPS   O14 8426   2.097   1.535  10.942  0.0029  0.0865 -0.7505
   88SAPS   O12 8427   1.862   1.637  10.947 -0.7385  0.3012  0.3638
   88SAPS   O11 8428   1.905   1.392  10.927 -1.0312 -0.3199 -0.5874
   88SAPS    C1 8429   1.769   1.367  10.944  0.0916  0.6184  0.4419
   88SAPS    HA 8430   1.746   1.308  11.036  0.2131  1.2795  0.9049
   88SAPS    HB 8431   1.703   1.456  10.947 -1.2250 -0.3438  1.3596
   88SAPS    C2 8432   1.714   1.266  10.831 -0.3461 -0.2224 -0.0955
   88SAPS    HS 8433   1.772   1.172  10.840 -0.8906 -0.4734  1.1726
   88SAPS   O21 8434   1.714   1.333  10.705  0.2103  0.6449 -0.1375
   88SAPS   C21 8435   1.820   1.299  10.629  0.3637  0.3222 -0.1822
   88SAPS   O22 8436   1.908   1.226  10.658 -0.2370 -0.0342  0.2354
   88SAPS   C22 8437   1.816   1.376  10.491 -0.8684 -0.4714 -0.1539
   88SAPS   H2R 8438   1.713   1.416  10.479 -1.3050 -1.1178  1.2535
   88SAPS   H2S 8439   1.884   1.462  10.509 -1.9406  0.7423 -1.6238
   88SAPS    C3 8440   1.565   1.245  10.864 -0.6961  0.0659  0.1460
   88SAPS    HX 8441   1.502   1.336  10.854  0.2891  0.8419  0.7865
   88SAPS    HY 8442   1.555   1.215  10.971  0.6090 -0.8106  0.0427
   88SAPS   O31 8443   1.510   1.134  10.792  0.1740 -0.5486  0.6538
   88SAPS   C31 8444   1.428   1.152  10.683 -0.1957  0.4151  0.5698
   88SAPS   O32 8445   1.398   1.262  10.638  0.3721  0.5751 -0.0540
   88SAPS   C32 8446   1.365   1.017  10.648 -0.2590 -0.7678 -0.2647
   88SAPS   H2X 8447   1.265   1.007  10.695 -1.1755 -1.0044 -2.1385
   88SAPS   H2Y 8448   1.429   0.943  10.701 -0.5861 -0.0877  1.1328
   88SAPS   C23 8449   1.860   1.304  10.363  0.0049 -0.2061 -0.4016
   88SAPS   H3R 8450   1.906   1.206  10.387  1.1377  0.9218  2.4523
   88SAPS   H3S 8451   1.945   1.352  10.309  0.1131 -0.7023 -0.6828
   88SAPS   C24 8452   1.748   1.285  10.263 -0.2571  1.0516 -0.3971
   88SAPS   H4R 8453   1.672   1.230  10.324  2.6072 -0.3407  2.1668
   88SAPS   H4S 8454   1.788   1.211  10.190 -1.7327 -1.7517  1.4569
   88SAPS   C25 8455   1.700   1.418  10.202 -0.2250  0.6479  0.2706
   88SAPS   H5R 8456   1.652   1.483  10.277 -0.2407 -0.2967  1.1035
   88SAPS   C26 8457   1.732   1.474  10.090 -0.7661  0.0822  0.0634
   88SAPS   H6R 8458   1.693   1.575  10.075 -0.6101  0.4865  2.1292
   88SAPS   C27 8459   1.814   1.424   9.977  0.1925 -0.3222  0.5183
   88SAPS   H7R 8460   1.913   1.385  10.010  0.7939  0.1421 -0.6872
   88SAPS   H7S 8461   1.836   1.500   9.899 -1.9512 -0.3767 -0.2000
   88SAPS   C28 8462   1.724   1.323   9.909 -0.4583 -0.4863  0.0233
   88SAPS   H8R 8463   1.624   1.304   9.950 -0.3400  1.8874  1.6403
   88SAPS   C29 8464   1.756   1.268   9.787 -0.3263 -0.1495  0.6905
   88SAPS   H9R 8465   1.687   1.197   9.739  0.6999 -0.7003  0.0121
   88SAPS  C210 8466   1.884   1.291   9.702 -0.2344 -0.7675  0.9370
   88SAPS  H10R 8467   1.877   1.202   9.636 -1.3542 -1.0822  1.4609
   88SAPS  H10S 8468   1.979   1.298   9.759 -0.7165 -2.4473  2.0214
   88SAPS  C211 8469   1.878   1.406   9.608  0.2838  0.1147 -0.2015
   88SAPS  H11R 8470   1.842   1.499   9.654  0.4680 -0.3749  0.9781
   88SAPS  C212 8471   1.894   1.409   9.476 -0.6629  0.0396 -0.2006
   88SAPS  H12R 8472   1.878   1.508   9.432 -1.9171 -0.3109 -0.5782
   88SAPS  C213 8473   1.939   1.289   9.389 -0.5522  0.0755  0.7160
   88SAPS  H13R 8474   1.962   1.198   9.448 -0.9166 -2.2013 -2.4083
   88SAPS  H13S 8475   2.040   1.307   9.345 -1.5282 -1.2374 -2.3308
   88SAPS  C214 8476   1.829   1.254   9.293  0.2216 -0.8418 -0.2204
   88SAPS  H14R 8477   1.727   1.256   9.334  0.2773  0.6754 -0.1121
   88SAPS  C215 8478   1.847   1.206   9.171 -0.3080  0.0208 -0.3085
   88SAPS  H15R 8479   1.768   1.184   9.098  0.0708  1.7322 -1.2867
   88SAPS  C216 8480   1.983   1.187   9.100  0.0494  0.0989 -0.4418
   88SAPS  H16R 8481   2.066   1.237   9.155 -1.0349  2.0464 -0.4751
   88SAPS  H16S 8482   1.981   1.230   8.998 -0.1375  0.5358 -0.2595
   88SAPS  C217 8483   2.029   1.044   9.091 -0.0500  0.2273  0.5774
   88SAPS  H17R 8484   2.122   1.045   9.031  0.2103 -0.0706  0.9645
   88SAPS  H17S 8485   1.959   0.995   9.021 -0.8081  2.3875 -0.2562
   88SAPS  C218 8486   2.028   0.966   9.219 -0.9417 -0.3508 -0.7616
   88SAPS  H18R 8487   1.925   0.961   9.259 -0.7452  3.4116  0.6339
   88SAPS  H18S 8488   2.087   1.022   9.294  1.2535 -0.8528 -2.0196
   88SAPS  C219 8489   2.102   0.832   9.217 -0.0783  0.0506 -0.0055
   88SAPS  H19R 8490   2.117   0.793   9.320  0.0528 -1.3258 -0.5313
   88SAPS  H19S 8491   2.206   0.848   9.181  2.2066  2.3985  6.3104
   88SAPS  C220 8492   2.041   0.718   9.135  0.6344  0.0557  0.1790
   88SAPS  H20R 8493   2.025   0.753   9.031 -0.8499  1.9274  0.9681
   88SAPS  H20S 8494   1.938   0.696   9.170 -0.6286 -0.2472 -3.2994
   88SAPS  H20T 8495   2.094   0.621   9.145 -0.7579 -0.6899  0.6731
   88SAPS   C33 8496   1.352   0.992  10.497 -0.1453 -0.0349 -0.7116
   88SAPS   H3X 8497   1.456   0.985  10.459  1.9011  1.3250  3.9350
   88SAPS   H3Y 8498   1.304   1.082  10.453  1.1112  1.5737  1.0504
   88SAPS   C34 8499   1.275   0.855  10.475  0.0855 -0.0445  0.3995
   88SAPS   H4X 8500   1.169   0.876  10.500 -0.2425  2.9610 -2.8186
   88SAPS   H4Y 8501   1.321   0.783  10.546  3.0922  1.2431 -0.1051
   88SAPS   C35 8502   1.302   0.791  10.337  0.6437  0.0372  0.6640
   88SAPS   H5X 8503   1.399   0.736  10.337  1.2884  1.0742  2.4519
   88SAPS   H5Y 8504   1.303   0.874  10.264  0.0659 -0.4720  0.0711
   88SAPS   C36 8505   1.183   0.706  10.296 -0.6624  0.0123  0.0905
   88SAPS   H6X 8506   1.085   0.756  10.305 -1.9671 -2.7381  3.1331
   88SAPS   H6Y 8507   1.182   0.615  10.359  0.8581 -0.0967  0.0075
   88SAPS   C37 8508   1.189   0.652  10.150 -0.0855 -0.2640 -0.6702
   88SAPS   H7X 8509   1.281   0.592  10.136 -0.5365 -0.6961 -1.9625
   88SAPS   H7Y 8510   1.205   0.734  10.077 -3.0198  0.8240 -0.2185
   88SAPS   C38 8511   1.071   0.560  10.119  0.0147  0.8331  0.7020
   88SAPS   H8X 8512   0.979   0.622  10.108 -0.7673 -0.5292 -0.7978
   88SAPS   H8Y 8513   1.049   0.500  10.210  2.1627 -1.1572 -0.0028
   88SAPS   C39 8514   1.114   0.475  10.001  0.2016 -0.1605  1.1898
   88SAPS   H9X 8515   1.184   0.394  10.028  1.5777  0.2001 -1.0172
   88SAPS   H9Y 8516   1.177   0.536   9.932  0.5193  0.1784  1.7693
   88SAPS  C310 8517   0.993   0.414   9.931 -0.3364  0.6726  0.0366
   88SAPS  H10X 8518   0.925   0.493   9.892 -0.9455 -0.0626 -0.4038
   88SAPS  H10Y 8519   0.943   0.365  10.016  1.0283 -0.4884  0.2179
   88SAPS  C311 8520   1.024   0.311   9.826  0.5893  0.7069  0.1028
   88SAPS  H11X 8521   0.943   0.235   9.826  2.5464 -1.5133 -0.8665
   88SAPS  H11Y 8522   1.105   0.247   9.867  0.0019 -1.6665 -2.1820
   88SAPS  C312 8523   1.059   0.350   9.679  0.6365 -0.9823  0.0004
   88SAPS  H12X 8524   1.085   0.258   9.622 -0.0146 -0.0354 -1.9041
   88SAPS  H12Y 8525   1.147   0.418   9.683  0.9032 -1.3479  0.4956
   88SAPS  C313 8526   0.945   0.414   9.598 -0.0987 -0.4159  0.7561
   88SAPS  H13X 8527   0.933   0.512   9.648  2.0754 -0.0573  0.6956
   88SAPS  H13Y 8528   0.851   0.356   9.599  0.4521 -1.3314  1.6037
   88SAPS  C314 8529   1.000   0.449   9.462 -0.0337  0.8447  0.2137
   88SAPS  H14X 8530   1.103   0.486   9.477 -0.2030  1.6552 -0.5676
   88SAPS  H14Y 8531   0.942   0.534   9.422  0.4779  0.2145 -2.0349
   88SAPS  C315 8532   0.985   0.341   9.358 -0.1280  0.0307 -0.3917
   88SAPS  H15X 8533   0.890   0.344   9.302 -0.9698  0.4795  0.9918
   88SAPS  H15Y 8534   0.992   0.240   9.404  0.7429  0.4803  0.5067
   88SAPS  C316 8535   1.100   0.349   9.257 -0.2170  0.0846  0.5472
   88SAPS  H16X 8536   1.184   0.297   9.308  0.0904  1.2043  1.2196
   88SAPS  H16Y 8537   1.130   0.456   9.255 -1.1132  0.3243 -0.3914
   88SAPS  C317 8538   1.076   0.301   9.114 -0.1042 -0.9185 -0.0695
   88SAPS  H17X 8539   0.996   0.354   9.058  0.5185 -0.3429 -0.4366
   88SAPS  H17Y 8540   1.051   0.192   9.120 -0.1894 -0.8511  0.9860
   88SAPS  C318 8541   1.202   0.314   9.023 -0.4373  0.1230 -0.6944
   88SAPS  H18X 8542   1.279   0.243   9.060  1.1853  1.4554 -1.3916
   88SAPS  H18Y 8543   1.262   0.406   9.040  0.6455 -0.7053  0.0895
   88SAPS  H18Z 8544   1.182   0.301   8.915 -0.2662 -0.5418 -0.6520
   89SAPS     N 8545   2.360   3.542  10.759  0.1965  0.1980  0.3507
   89SAPS   HN1 8546   2.357   3.585  10.664 -0.6092  2.2486  1.2505
   89SAPS   HN2 8547   2.383   3.619  10.825 -2.1635  2.3608 -1.1284
   89SAPS   HN3 8548   2.442   3.479  10.762  1.0869  1.3310  3.4162
   89SAPS   C12 8549   2.230   3.490  10.790  0.3793  0.2263 -0.2534
   89SAPS  H12A 8550   2.222   3.397  10.736 -0.0931 -1.6268  2.7999
   89SAPS   C13 8551   2.205   3.455  10.937 -0.0286 -0.3782 -0.4565
   89SAPS  O13A 8552   2.299   3.471  11.024 -0.0843 -0.1520  0.0236
   89SAPS  O13B 8553   2.100   3.391  10.967  0.2528  0.0156 -0.3356
   89SAPS   C11 8554   2.108   3.576  10.731  0.1021 -0.8253 -1.1344
   89SAPS  H11A 8555   2.016   3.515  10.744 -1.2245  1.1705 -0.7897
   89SAPS  H11B 8556   2.129   3.585  10.622  1.8663  0.8244 -0.7139
   89SAPS     P 8557   1.964   3.779  10.830  0.0196  0.1158  0.4747
   89SAPS   O13 8558   1.854   3.687  10.872 -0.0286 -0.0933  0.5961
   89SAPS   O14 8559   2.009   3.878  10.927  0.0530  0.2899  0.0853
   89SAPS   O12 8560   2.103   3.703  10.798  0.5839 -0.6459 -0.5325
   89SAPS   O11 8561   1.947   3.855  10.689 -0.0391 -0.4674 -0.3166
   89SAPS    C1 8562   1.819   3.880  10.636 -0.3162 -0.4191  0.4076
   89SAPS    HA 8563   1.765   3.783  10.628 -0.1623 -0.6243  1.7080
   89SAPS    HB 8564   1.753   3.947  10.695 -2.3351 -0.8587 -1.2303
   89SAPS    C2 8565   1.829   3.934  10.491 -0.3886  0.9175 -0.8433
   89SAPS    HS 8566   1.730   3.919  10.442  0.6837 -1.4459 -2.4487
   89SAPS   O21 8567   1.926   3.858  10.417  0.5809 -0.0601 -0.0441
   89SAPS   C21 8568   1.894   3.737  10.371  0.0623  0.3212  0.0044
   89SAPS   O22 8569   1.777   3.694  10.368 -0.3091 -0.0138  0.2252
   89SAPS   C22 8570   2.022   3.669  10.333 -0.5143 -0.1787 -0.5571
   89SAPS   H2R 8571   2.070   3.709  10.242 -0.7724 -0.9750 -1.0526
   89SAPS   H2S 8572   2.090   3.692  10.419 -0.2202 -1.1436 -0.5151
   89SAPS    C3 8573   1.861   4.086  10.484 -0.4250 -0.0307 -0.1833
   89SAPS    HX 8574   1.966   4.090  10.519  0.2069 -1.3737 -1.7587
   89SAPS    HY 8575   1.805   4.155  10.550  1.0278  0.9058  0.1103
   89SAPS   O31 8576   1.863   4.133  10.348  0.5406  0.1156 -0.1210
   89SAPS   C31 8577   1.751   4.176  10.296 -0.1301 -0.3391 -0.0692
   89SAPS   O32 8578   1.642   4.175  10.350  0.5191 -0.1010 -0.8459
   89SAPS   C32 8579   1.774   4.230  10.154 -0.4719  0.3313  0.0849
   89SAPS   H2X 8580   1.839   4.158  10.100  2.2831  0.6379  2.7027
   89SAPS   H2Y 8581   1.834   4.324  10.156  0.0371  0.0061  0.1654
   89SAPS   C23 8582   2.013   3.512  10.326 -0.7593 -0.2524  0.1614
   89SAPS   H3R 8583   1.947   3.478  10.409 -1.8531 -2.0974 -1.4038
   89SAPS   H3S 8584   2.113   3.464  10.334 -0.6183 -0.3046 -1.6212
   89SAPS   C24 8585   1.950   3.468  10.186 -0.7165  0.7054 -0.2552
   89SAPS   H4R 8586   2.023   3.478  10.103 -2.2672 -0.9722 -1.9219
   89SAPS   H4S 8587   1.860   3.527  10.160 -1.0704 -0.3323 -1.5142
   89SAPS   C25 8588   1.901   3.328  10.191 -0.0585  0.6575  0.6929
   89SAPS   H5R 8589   1.956   3.265  10.263  2.1785  2.6473  0.8375
   89SAPS   C26 8590   1.795   3.270  10.128 -0.2699  0.6437  0.2955
   89SAPS   H6R 8591   1.781   3.161  10.127  0.3628  0.5627 -0.3874
   89SAPS   C27 8592   1.697   3.332  10.030 -0.3682 -0.3360  0.5093
   89SAPS   H7R 8593   1.752   3.387   9.950  0.0185 -0.4718  0.6814
   89SAPS   H7S 8594   1.650   3.418  10.082  1.1278  0.2531  0.9280
   89SAPS   C28 8595   1.590   3.233   9.974 -1.2761 -0.0295  0.1882
   89SAPS   H8R 8596   1.533   3.195  10.060  2.7138  0.7897  3.5376
   89SAPS   C29 8597   1.568   3.196   9.852 -0.7315  0.3324  0.2752
   89SAPS   H9R 8598   1.492   3.120   9.831 -1.0327  0.9623 -1.0260
   89SAPS  C210 8599   1.640   3.236   9.730 -0.3588 -0.4123  0.3637
   89SAPS  H10R 8600   1.648   3.346   9.721  1.7789 -0.5967 -0.9417
   89SAPS  H10S 8601   1.577   3.219   9.640  1.9033  0.5194 -1.5400
   89SAPS  C211 8602   1.777   3.196   9.709 -1.3661  0.6806 -0.1034
   89SAPS  H11R 8603   1.835   3.155   9.793  1.6481  0.5507 -2.0556
   89SAPS  C212 8604   1.851   3.200   9.594 -0.2344  0.6555 -0.0618
   89SAPS  H12R 8605   1.949   3.154   9.610 -1.0267 -0.1794  3.0979
   89SAPS  C213 8606   1.811   3.242   9.456  0.4380 -0.5052  0.1682
   89SAPS  H13R 8607   1.904   3.239   9.395 -1.0699 -2.1381 -2.2286
   89SAPS  H13S 8608   1.763   3.341   9.447 -0.4752 -0.5626  3.1951
   89SAPS  C214 8609   1.722   3.140   9.390  0.2739  0.1715  1.1947
   89SAPS  H14R 8610   1.638   3.100   9.450 -1.8589  0.3566 -1.4671
   89SAPS  C215 8611   1.726   3.109   9.258 -0.4105  1.0787 -0.3418
   89SAPS  H15R 8612   1.661   3.029   9.218 -1.7626  2.3012 -0.6563
   89SAPS  C216 8613   1.823   3.161   9.151  0.5153 -0.2353 -0.1306
   89SAPS  H16R 8614   1.883   3.071   9.129  0.7056 -0.7579  2.2654
   89SAPS  H16S 8615   1.880   3.252   9.180 -1.8085  1.3411 -0.1659
   89SAPS  C217 8616   1.752   3.186   9.016 -0.5855  0.3281 -0.0820
   89SAPS  H17R 8617   1.689   3.276   9.035  1.3832  1.3189  2.2259
   89SAPS  H17S 8618   1.693   3.094   8.998 -0.4146  0.0815  0.6042
   89SAPS  C218 8619   1.844   3.204   8.893  0.1961 -0.2447 -0.2400
   89SAPS  H18R 8620   1.903   3.110   8.883 -0.5322 -0.6147 -1.2411
   89SAPS  H18S 8621   1.908   3.294   8.905  0.7774 -0.9942  3.4465
   89SAPS  C219 8622   1.756   3.203   8.765  0.3044 -0.8642 -0.2768
   89SAPS  H19R 8623   1.669   3.269   8.783  0.6467 -0.0993 -1.2766
   89SAPS  H19S 8624   1.711   3.102   8.753 -0.3441 -0.5216 -0.8009
   89SAPS  C220 8625   1.823   3.250   8.634 -0.5583  0.5239  0.0697
   89SAPS  H20R 8626   1.878   3.346   8.644  1.3556 -0.2818 -1.9195
   89SAPS  H20S 8627   1.748   3.248   8.552 -3.4846  2.3378  2.4902
   89SAPS  H20T 8628   1.892   3.168   8.605 -1.0251 -0.6784  2.1573
   89SAPS   C33 8629   1.637   4.255  10.082 -0.7994 -0.0252  0.1614
   89SAPS   H3X 8630   1.581   4.342  10.122  0.0034  1.4981 -1.8051
   89SAPS   H3Y 8631   1.576   4.162  10.086  0.2675 -0.7163  0.8757
   89SAPS   C34 8632   1.665   4.262   9.929 -0.0833 -0.1068 -0.1189
   89SAPS   H4X 8633   1.763   4.213   9.908  1.1585  1.6362  1.2815
   89SAPS   H4Y 8634   1.684   4.372   9.929 -0.3202 -0.0496  1.3997
   89SAPS   C35 8635   1.554   4.229   9.834 -0.2592 -0.3894  0.1751
   89SAPS   H5X 8636   1.460   4.285   9.853 -0.8879 -1.1739 -0.5276
   89SAPS   H5Y 8637   1.519   4.124   9.837  0.8709 -0.8052 -0.4802
   89SAPS   C36 8638   1.583   4.265   9.682  0.6299 -0.4300 -0.4020
   89SAPS   H6X 8639   1.691   4.254   9.658  0.7258  0.3415 -0.3585
   89SAPS   H6Y 8640   1.569   4.376   9.678 -0.7904 -0.5527  0.5884
   89SAPS   C37 8641   1.487   4.181   9.594 -0.2412 -0.3382  0.1930
   89SAPS   H7X 8642   1.389   4.171   9.645 -0.8732  1.3356 -0.6408
   89SAPS   H7Y 8643   1.514   4.074   9.586 -1.9373 -1.0345  2.4877
   89SAPS   C38 8644   1.465   4.247   9.456  0.2013 -0.8985 -0.0595
   89SAPS   H8X 8645   1.435   4.353   9.474 -0.1803 -1.1437  0.8126
   89SAPS   H8Y 8646   1.381   4.205   9.396  0.8593 -1.7023 -0.4380
   89SAPS   C39 8647   1.579   4.251   9.359 -0.2017 -0.1973 -0.1732
   89SAPS   H9X 8648   1.601   4.151   9.313 -0.9563 -0.7214  0.5913
   89SAPS   H9Y 8649   1.672   4.295   9.401  0.5786 -0.4097 -1.5929
   89SAPS  C310 8650   1.545   4.335   9.232  0.2476 -0.5972 -0.2441
   89SAPS  H10X 8651   1.546   4.443   9.256 -1.4967 -0.4159 -0.8180
   89SAPS  H10Y 8652   1.444   4.307   9.194 -0.6441  3.2945 -1.1249
   89SAPS  C311 8653   1.650   4.327   9.115  0.4624  0.8825 -0.7512
   89SAPS  H11X 8654   1.666   4.222   9.084 -1.2795  0.1261  0.7412
   89SAPS  H11Y 8655   1.748   4.354   9.159 -0.2704  0.3632  1.3147
   89SAPS  C312 8656   1.615   4.415   8.995 -0.8200  0.0327 -0.1052
   89SAPS  H12X 8657   1.611   4.516   9.040  1.2511 -0.2808  0.9188
   89SAPS  H12Y 8658   1.513   4.397   8.955 -2.5416  1.1045  3.4106
   89SAPS  C313 8659   1.720   4.425   8.886 -0.0317  0.2964 -0.4609
   89SAPS  H13X 8660   1.819   4.455   8.924  1.0359 -4.2225  0.9535
   89SAPS  H13Y 8661   1.670   4.489   8.810  0.1953  0.9535 -0.0638
   89SAPS  C314 8662   1.772   4.285   8.842  0.4580  0.2527  0.2033
   89SAPS  H14X 8663   1.693   4.211   8.815  0.8773 -0.5522  1.1113
   89SAPS  H14Y 8664   1.832   4.243   8.926  1.0540 -2.4719 -1.4807
   89SAPS  C315 8665   1.868   4.302   8.725  0.2330  0.0948 -0.7157
   89SAPS  H15X 8666   1.956   4.356   8.765 -0.3643  1.1950 -0.8564
   89SAPS  H15Y 8667   1.824   4.367   8.646 -1.4098  0.7104  0.6532
   89SAPS  C316 8668   1.915   4.168   8.661  0.2559  0.0894 -0.5102
   89SAPS  H16X 8669   1.818   4.124   8.629 -1.3907  1.1078  2.7015
   89SAPS  H16Y 8670   1.950   4.100   8.741  0.3445 -0.9927 -1.4468
   89SAPS  C317 8671   2.029   4.175   8.543  0.5810 -0.3577  0.0612
   89SAPS  H17X 8672   2.105   4.247   8.581  0.1876 -0.1393  0.4488
   89SAPS  H17Y 8673   1.972   4.220   8.459 -2.7307 -1.7848  1.3655
   89SAPS  C318 8674   2.087   4.043   8.497  0.4913  0.5696  1.2983
   89SAPS  H18X 8675   2.012   3.980   8.445  2.1126 -0.8102  0.5095
   89SAPS  H18Y 8676   2.125   3.989   8.586 -1.0557 -1.0199  1.0558
   89SAPS  H18Z 8677   2.169   4.075   8.429 -1.3489  0.2045 -1.2480
   90SAPS     N 8678   1.946   3.178  10.853  0.4512 -0.2933 -0.1374
   90SAPS   HN1 8679   1.977   3.262  10.906  1.3023 -0.6314 -0.0779
   90SAPS   HN2 8680   1.989   3.184  10.758  0.1724 -1.5809 -0.3648
   90SAPS   HN3 8681   1.844   3.162  10.842  0.6534 -2.0599  0.2793
   90SAPS   C12 8682   2.028   3.063  10.911  0.5805  0.1340  0.4416
   90SAPS  H12A 8683   2.013   3.058  11.018  0.9191 -0.5248  0.4665
   90SAPS   C13 8684   1.996   2.914  10.860  0.3905 -0.0261  0.1317
   90SAPS  O13A 8685   1.907   2.898  10.770 -0.0734 -0.0307  0.4854
   90SAPS  O13B 8686   2.057   2.818  10.910 -0.2264  0.1068  0.4948
   90SAPS   C11 8687   2.181   3.091  10.901  0.2075  0.5184 -0.2681
   90SAPS  H11A 8688   2.238   3.014  10.958 -0.9469  1.3462  2.1591
   90SAPS  H11B 8689   2.210   3.172  10.972  0.3725 -0.4546  0.8066
   90SAPS     P 8690   2.372   3.086  10.732  0.1375  0.0052  0.6536
   90SAPS   O13 8691   2.422   3.185  10.637  0.3656 -0.5395  0.3094
   90SAPS   O14 8692   2.455   3.070  10.859  0.5791  0.6762  0.4177
   90SAPS   O12 8693   2.224   3.124  10.764  0.3344 -0.3705  0.1349
   90SAPS   O11 8694   2.364   2.951  10.658  0.6796 -0.6515 -0.6011
   90SAPS    C1 8695   2.242   2.892  10.615  0.3018  0.6130  0.3309
   90SAPS    HA 8696   2.251   2.783  10.600 -0.2995  0.8568 -2.1459
   90SAPS    HB 8697   2.146   2.925  10.661  1.0066  1.9111  0.9527
   90SAPS    C2 8698   2.215   2.927  10.465 -0.0807 -0.0406  0.6556
   90SAPS    HS 8699   2.219   3.036  10.446  1.7539 -0.2305 -0.3555
   90SAPS   O21 8700   2.097   2.859  10.413  0.7282  0.5535  0.2914
   90SAPS   C21 8701   1.990   2.925  10.415  0.3109  1.4102  0.0500
   90SAPS   O22 8702   1.977   3.038  10.461 -0.4026 -0.1757  0.0951
   90SAPS   C22 8703   1.875   2.839  10.372 -0.0322 -0.4249  0.2644
   90SAPS   H2R 8704   1.912   2.738  10.346  1.0229 -0.2566  1.0819
   90SAPS   H2S 8705   1.807   2.831  10.460 -1.1590  0.9865 -0.4377
   90SAPS    C3 8706   2.341   2.887  10.380 -0.2970 -0.2337 -0.3316
   90SAPS    HX 8707   2.383   2.784  10.391  2.4405  0.2401 -4.1246
   90SAPS    HY 8708   2.420   2.959  10.408  0.4007  0.1078 -2.8678
   90SAPS   O31 8709   2.313   2.903  10.243 -0.2779 -0.0011  0.3997
   90SAPS   C31 8710   2.313   3.026  10.193 -0.0463 -0.0096 -0.3176
   90SAPS   O32 8711   2.331   3.129  10.255  0.1325  0.0527  0.4619
   90SAPS   C32 8712   2.301   3.032  10.038 -0.1328 -0.4100  0.1097
   90SAPS   H2X 8713   2.219   2.965  10.002  0.3355 -1.1404  0.3886
   90SAPS   H2Y 8714   2.400   3.007   9.994 -0.6267  0.3893 -1.5497
   90SAPS   C23 8715   1.796   2.912  10.263  0.6122  0.6902 -0.1367
   90SAPS   H3R 8716   1.768   3.016  10.291  0.9581  2.1458 -4.3688
   90SAPS   H3S 8717   1.703   2.860  10.231  1.5116  1.0767 -3.9429
   90SAPS   C24 8718   1.874   2.923  10.130 -0.5718 -0.2861 -0.4343
   90SAPS   H4R 8719   1.954   3.000  10.132  1.3769 -2.2116  0.2608
   90SAPS   H4S 8720   1.800   2.966  10.060 -0.9574  1.5005  0.9961
   90SAPS   C25 8721   1.928   2.791  10.088  0.6443 -0.4611  0.3133
   90SAPS   H5R 8722   2.024   2.766  10.135  0.6169 -1.1332  0.0107
   90SAPS   C26 8723   1.871   2.715   9.988  0.7952 -1.0049  0.8800
   90SAPS   H6R 8724   1.918   2.619   9.964  0.5313 -0.6002 -1.3988
   90SAPS   C27 8725   1.733   2.735   9.918 -0.1685 -0.0307 -0.4981
   90SAPS   H7R 8726   1.655   2.773   9.989 -0.5374 -1.8059  0.0940
   90SAPS   H7S 8727   1.691   2.639   9.881 -0.1428 -1.0472  1.9054
   90SAPS   C28 8728   1.743   2.834   9.799 -0.3205 -0.0572  0.2457
   90SAPS   H8R 8729   1.683   2.925   9.816 -1.9625 -0.6507 -2.0383
   90SAPS   C29 8730   1.798   2.832   9.677 -0.1856  0.8842  0.6725
   90SAPS   H9R 8731   1.768   2.916   9.612 -2.6222 -0.4773 -0.0805
   90SAPS  C210 8732   1.872   2.718   9.620 -0.4754  0.2149 -0.5630
   90SAPS  H10R 8733   1.910   2.645   9.695 -1.7822  0.5654  0.4713
   90SAPS  H10S 8734   1.967   2.761   9.582  0.7178 -0.8720  1.0577
   90SAPS  C211 8735   1.787   2.646   9.522 -0.2879  0.2694 -0.1813
   90SAPS  H11R 8736   1.702   2.606   9.580  0.9733  0.6304  2.0066
   90SAPS  C212 8737   1.789   2.632   9.387  0.1184  0.2457  0.7649
   90SAPS  H12R 8738   1.704   2.582   9.339 -0.5619  0.7327  1.4485
   90SAPS  C213 8739   1.878   2.695   9.279 -0.6871  0.5248  0.3463
   90SAPS  H13R 8740   1.942   2.758   9.345 -0.4887 -0.6356  1.3043
   90SAPS  H13S 8741   1.818   2.765   9.218 -1.1916  1.9642  2.3727
   90SAPS  C214 8742   1.958   2.589   9.209 -0.1661 -0.4575  0.4338
   90SAPS  H14R 8743   2.026   2.529   9.271  0.5479 -2.0036 -1.7271
   90SAPS  C215 8744   1.942   2.565   9.078 -0.0255 -0.5667  0.4474
   90SAPS  H15R 8745   1.986   2.470   9.046  0.6261 -0.1741  0.1656
   90SAPS  C216 8746   1.844   2.636   8.985 -0.1083  0.2843  0.0011
   90SAPS  H16R 8747   1.742   2.649   9.027 -1.6510 -1.7458 -2.8086
   90SAPS  H16S 8748   1.817   2.566   8.903 -3.3921  1.8676 -0.4194
   90SAPS  C217 8749   1.898   2.773   8.933 -0.4010  0.7179 -0.0817
   90SAPS  H17R 8750   2.006   2.763   8.910 -0.5376 -1.4429  0.0152
   90SAPS  H17S 8751   1.891   2.847   9.016 -0.6508  0.2929  0.2836
   90SAPS  C218 8752   1.850   2.828   8.805  0.0346  0.0484  0.7775
   90SAPS  H18R 8753   1.888   2.929   8.781 -1.7839  0.4818 -0.5110
   90SAPS  H18S 8754   1.740   2.839   8.819  0.1669 -0.0885  2.0386
   90SAPS  C219 8755   1.903   2.730   8.700 -0.0344  0.3029  0.1174
   90SAPS  H19R 8756   1.830   2.646   8.702 -0.5611  0.7484  0.0771
   90SAPS  H19S 8757   2.004   2.694   8.727  0.4720 -0.9202 -3.0365
   90SAPS  C220 8758   1.901   2.783   8.557  0.1298  0.3483  0.2662
   90SAPS  H20R 8759   2.004   2.778   8.514  0.0213  1.7951 -0.1936
   90SAPS  H20S 8760   1.851   2.878   8.532 -1.4674 -0.2040  1.1790
   90SAPS  H20T 8761   1.843   2.703   8.506  2.0754 -0.9629 -0.0292
   90SAPS   C33 8762   2.252   3.167   9.992  0.2171 -0.4708 -0.0281
   90SAPS   H3X 8763   2.301   3.256  10.037 -1.7875  0.6044  0.1487
   90SAPS   H3Y 8764   2.145   3.176  10.020  0.3118 -3.0950  1.4756
   90SAPS   C34 8765   2.283   3.184   9.836  0.7102  1.0432  0.4476
   90SAPS   H4X 8766   2.392   3.183   9.818  0.5847  0.0680 -0.3684
   90SAPS   H4Y 8767   2.245   3.287   9.814  0.4443  1.7896  3.8655
   90SAPS   C35 8768   2.217   3.080   9.737 -0.4059 -0.2220  0.2824
   90SAPS   H5X 8769   2.107   3.079   9.756 -0.1113 -0.9873  2.1911
   90SAPS   H5Y 8770   2.244   2.973   9.749  0.3905 -0.5513 -3.4987
   90SAPS   C36 8771   2.251   3.115   9.585  0.4152  0.0018 -0.0898
   90SAPS   H6X 8772   2.362   3.124   9.578  0.4908 -0.6388  0.1819
   90SAPS   H6Y 8773   2.203   3.212   9.562 -1.7604 -0.4608  2.1294
   90SAPS   C37 8774   2.208   3.011   9.489 -0.0302 -0.5015 -0.4724
   90SAPS   H7X 8775   2.096   3.010   9.493 -0.1116  1.6482 -0.8328
   90SAPS   H7Y 8776   2.237   2.907   9.515  0.9591 -0.5295 -1.6099
   90SAPS   C38 8777   2.257   3.036   9.346  0.0353  0.9176  0.1032
   90SAPS   H8X 8778   2.368   3.037   9.337 -0.0690  0.8698 -1.4247
   90SAPS   H8Y 8779   2.231   3.136   9.303  0.1461  0.7667 -0.3130
   90SAPS   C39 8780   2.184   2.950   9.241 -0.0683  0.5667  0.5569
   90SAPS   H9X 8781   2.076   2.945   9.267 -0.7653  0.3441 -2.0921
   90SAPS   H9Y 8782   2.233   2.850   9.235  1.4823  1.3673 -1.6344
   90SAPS  C310 8783   2.207   2.998   9.089  0.2112  0.2835 -0.5312
   90SAPS  H10X 8784   2.168   3.102   9.080 -2.0039 -0.3833  0.6186
   90SAPS  H10Y 8785   2.151   2.918   9.036  1.4575 -0.3849 -0.8732
   90SAPS  C311 8786   2.352   3.000   9.040 -0.0627  0.4005 -0.9064
   90SAPS  H11X 8787   2.404   2.913   9.085 -0.2566 -0.3813 -2.1246
   90SAPS  H11Y 8788   2.401   3.094   9.070  2.3851 -1.3357  0.8806
   90SAPS  C312 8789   2.347   2.985   8.893  0.5637  0.1498  0.0564
   90SAPS  H12X 8790   2.286   3.072   8.860  0.1501  1.0575  2.9575
   90SAPS  H12Y 8791   2.303   2.888   8.862  0.2568 -0.0176  0.9722
   90SAPS  C313 8792   2.481   2.997   8.816 -0.0162 -0.0157 -0.3424
   90SAPS  H13X 8793   2.540   2.904   8.833  0.3600  0.6862  2.8578
   90SAPS  H13Y 8794   2.532   3.081   8.869 -0.8300 -0.4472  1.2070
   90SAPS  C314 8795   2.460   3.021   8.667  0.4282  0.0848 -0.0879
   90SAPS  H14X 8796   2.556   3.043   8.616 -0.9538  3.2541 -1.6035
   90SAPS  H14Y 8797   2.400   3.114   8.651 -1.2049 -1.0506 -0.8916
   90SAPS  C315 8798   2.387   2.907   8.598  0.2456 -0.0301 -0.1085
   90SAPS  H15X 8799   2.289   2.868   8.633  0.8151 -2.3533 -0.9027
   90SAPS  H15Y 8800   2.451   2.817   8.608 -0.1139 -0.2509  0.2303
   90SAPS  C316 8801   2.376   2.930   8.451 -0.0389 -0.0677  0.1439
   90SAPS  H16X 8802   2.471   2.959   8.401  0.5602  1.2764  1.9532
   90SAPS  H16Y 8803   2.322   3.026   8.434 -0.0511  0.5656  3.2997
   90SAPS  C317 8804   2.320   2.812   8.373 -0.1296  0.1101  0.1393
   90SAPS  H17X 8805   2.214   2.818   8.405 -0.6422 -1.7246 -1.0814
   90SAPS  H17Y 8806   2.346   2.714   8.418 -1.5577 -1.5583 -2.4531
   90SAPS  C318 8807   2.354   2.812   8.221 -0.3019  0.3784 -0.2828
   90SAPS  H18X 8808   2.464   2.805   8.209 -0.5515 -1.0589 -1.9263
   90SAPS  H18Y 8809   2.321   2.908   8.175  0.2196 -0.0128 -1.5102
   90SAPS  H18Z 8810   2.306   2.727   8.168  1.3184 -0.2264 -0.8273
   91SAPS     N 8811   5.798   2.852   6.167  0.4470 -0.3402  0.2241
   91SAPS   HN1 8812   5.725   2.926   6.166 -0.8677 -1.5436 -1.4527
   91SAPS   HN2 8813   5.771   2.773   6.103  0.4767 -1.0752  1.0959
   91SAPS   HN3 8814   5.808   2.817   6.264 -1.7124  0.0558  0.6419
   91SAPS   C12 8815   5.931   2.898   6.118 -0.0574  0.4035  0.2319
   91SAPS  H12A 8816   5.995   2.924   6.201 -0.4599  1.3624  0.2583
   91SAPS   C13 8817   6.007   2.798   6.023  0.5007 -0.0538  0.3934
   91SAPS  O13A 8818   5.962   2.691   5.985  0.5344  0.2576  0.6192
   91SAPS  O13B 8819   6.132   2.834   6.005  0.1490 -0.1749  0.1457
   91SAPS   C11 8820   5.905   3.023   6.034 -0.2345  0.0525 -0.1089
   91SAPS  H11A 8821   5.841   3.014   5.943 -0.1738  0.3543 -0.1831
   91SAPS  H11B 8822   6.007   3.056   6.006  0.3195 -0.9349  0.6713
   91SAPS     P 8823   5.887   3.272   6.126  0.2426  0.4729  0.2000
   91SAPS   O13 8824   5.963   3.307   6.008  0.7220 -0.0671  0.2519
   91SAPS   O14 8825   5.770   3.363   6.155  0.0808 -0.0200 -0.4437
   91SAPS   O12 8826   5.836   3.122   6.118 -0.9530  0.0738 -0.2132
   91SAPS   O11 8827   5.983   3.284   6.253  0.0857 -0.7469  0.0364
   91SAPS    C1 8828   6.074   3.195   6.314  0.3546  0.0384  0.3579
   91SAPS    HA 8829   6.060   3.095   6.268 -0.4465  0.2226  0.1787
   91SAPS    HB 8830   6.173   3.231   6.279 -0.0757 -0.3202 -1.3342
   91SAPS    C2 8831   6.056   3.173   6.467  0.0941 -0.2154 -0.9821
   91SAPS    HS 8832   6.110   3.085   6.507  0.9031  1.1032  0.9817
   91SAPS   O21 8833   5.920   3.166   6.506  0.3642 -0.3322  0.4235
   91SAPS   C21 8834   5.857   3.058   6.487  0.0165  0.1046 -0.1357
   91SAPS   O22 8835   5.898   2.957   6.432  0.0208  0.6779  0.2328
   91SAPS   C22 8836   5.717   3.082   6.531  0.0689  0.1734 -0.1025
   91SAPS   H2R 8837   5.704   3.136   6.627  1.4822  1.3643 -0.5348
   91SAPS   H2S 8838   5.659   3.127   6.447 -0.1446  0.3075  0.1176
   91SAPS    C3 8839   6.125   3.293   6.547 -0.2572  0.0606  0.2957
   91SAPS    HX 8840   6.100   3.390   6.499 -1.1472 -1.3230 -2.1756
   91SAPS    HY 8841   6.234   3.278   6.534 -0.2656  0.0142  0.2785
   91SAPS   O31 8842   6.083   3.302   6.682  0.2394  0.3172 -0.3109
   91SAPS   C31 8843   6.147   3.228   6.774 -0.3458 -0.2874  0.9244
   91SAPS   O32 8844   6.237   3.149   6.749  0.4131  0.5723  0.3257
   91SAPS   C32 8845   6.070   3.242   6.904  0.3190  0.0256 -0.7699
   91SAPS   H2X 8846   5.962   3.222   6.884 -0.0171 -1.6423  2.1693
   91SAPS   H2Y 8847   6.081   3.346   6.942 -2.6833 -0.5519  2.1898
   91SAPS   C23 8848   5.640   2.952   6.535 -0.3252 -0.6350 -0.2819
   91SAPS   H3R 8849   5.660   2.892   6.444  0.5417 -1.2600  0.3017
   91SAPS   H3S 8850   5.534   2.984   6.535 -0.4789 -0.8149  2.7275
   91SAPS   C24 8851   5.652   2.885   6.668 -0.0062  0.2250 -0.7454
   91SAPS   H4R 8852   5.569   2.812   6.656  0.1277  0.1873 -1.5056
   91SAPS   H4S 8853   5.610   2.952   6.746 -1.0842 -0.2505 -0.8951
   91SAPS   C25 8854   5.791   2.839   6.700  0.4801  0.3059  0.1405
   91SAPS   H5R 8855   5.851   2.818   6.610 -0.1177  1.5738 -0.5851
   91SAPS   C26 8856   5.844   2.834   6.818 -0.7885  0.1010  0.2676
   91SAPS   H6R 8857   5.947   2.796   6.815 -0.9922 -0.5266  0.8540
   91SAPS   C27 8858   5.782   2.856   6.954 -0.1663 -0.3962 -0.4511
   91SAPS   H7R 8859   5.723   2.950   6.943  0.8526  0.2575 -0.3951
   91SAPS   H7S 8860   5.862   2.886   7.024 -0.4969 -0.6041  0.0219
   91SAPS   C28 8861   5.697   2.742   6.994  0.7259  0.3510 -0.4856
   91SAPS   H8R 8862   5.598   2.743   6.945  0.6508  0.0360 -0.3367
   91SAPS   C29 8863   5.712   2.654   7.090 -0.2848  0.7049  0.3204
   91SAPS   H9R 8864   5.633   2.579   7.106 -0.1553  0.4483 -0.2102
   91SAPS  C210 8865   5.830   2.643   7.181 -0.0531  0.1010  0.1461
   91SAPS  H10R 8866   5.876   2.741   7.211 -0.8298  0.4955  0.0678
   91SAPS  H10S 8867   5.906   2.583   7.127 -1.0695 -0.3767 -0.7643
   91SAPS  C211 8868   5.796   2.553   7.295 -0.0656 -0.1689 -0.0694
   91SAPS  H11R 8869   5.772   2.448   7.273  1.0437  0.1117 -3.1500
   91SAPS  C212 8870   5.799   2.592   7.421  0.1842 -0.7990  0.6824
   91SAPS  H12R 8871   5.758   2.530   7.502 -1.5630  0.5255  0.8792
   91SAPS  C213 8872   5.838   2.730   7.471  0.2433  0.5924 -0.3675
   91SAPS  H13R 8873   5.814   2.810   7.397  0.2578 -0.2188 -1.2722
   91SAPS  H13S 8874   5.946   2.729   7.497 -0.0070 -0.6464  0.7236
   91SAPS  C214 8875   5.755   2.775   7.593  0.1981 -0.2496  0.9990
   91SAPS  H14R 8876   5.658   2.812   7.558  1.9643  2.5438 -1.4487
   91SAPS  C215 8877   5.768   2.757   7.721  0.1624 -0.1938 -0.2592
   91SAPS  H15R 8878   5.698   2.814   7.784  0.5423  1.1251 -0.9850
   91SAPS  C216 8879   5.878   2.689   7.794 -0.2163 -0.1254  0.3583
   91SAPS  H16R 8880   5.933   2.634   7.715 -0.6073  0.6603 -0.4910
   91SAPS  H16S 8881   5.846   2.602   7.856 -0.7849 -1.1284 -1.2660
   91SAPS  C217 8882   5.978   2.771   7.871 -0.4985  0.9635 -0.0397
   91SAPS  H17R 8883   6.043   2.821   7.796  1.2755  0.8631  1.3482
   91SAPS  H17S 8884   6.049   2.706   7.925  0.2572  0.8514 -1.1264
   91SAPS  C218 8885   5.920   2.871   7.966  0.1028 -0.0203 -0.2302
   91SAPS  H18R 8886   5.872   2.814   8.048 -0.9008 -2.5387 -2.4121
   91SAPS  H18S 8887   5.849   2.932   7.906  2.3546  3.6229  0.5451
   91SAPS  C219 8888   6.025   2.964   8.011  0.1510 -1.0202 -0.1601
   91SAPS  H19R 8889   6.067   3.017   7.922  0.5126  0.8028  1.0289
   91SAPS  H19S 8890   6.112   2.909   8.053  2.5892  2.3846 -0.2838
   91SAPS  C220 8891   5.977   3.065   8.115  0.1108  0.3311  0.1093
   91SAPS  H20R 8892   6.056   3.141   8.136  1.7658 -0.8316 -1.4956
   91SAPS  H20S 8893   5.955   3.016   8.212 -1.4240 -0.5354 -0.6507
   91SAPS  H20T 8894   5.884   3.114   8.081  0.7256  0.2462 -1.8508
   91SAPS   C33 8895   6.113   3.144   7.024  0.2815 -0.0907 -0.3790
   91SAPS   H3X 8896   6.224   3.142   7.033  0.2733  0.9050  0.0760
   91SAPS   H3Y 8897   6.068   3.043   7.010 -1.5779  0.6355  0.1596
   91SAPS   C34 8898   6.033   3.198   7.149  0.3157  0.9087 -0.3147
   91SAPS   H4X 8899   5.925   3.201   7.122  0.4816 -0.4840 -1.2429
   91SAPS   H4Y 8900   6.074   3.300   7.168  2.4762  0.1134 -0.3845
   91SAPS   C35 8901   6.050   3.112   7.275 -0.1092 -0.3019  0.2785
   91SAPS   H5X 8902   6.155   3.091   7.301  0.3107 -0.0569 -1.1341
   91SAPS   H5Y 8903   6.013   3.010   7.250 -2.6376  0.4954  0.3990
   91SAPS   C36 8904   5.967   3.169   7.394  0.1481 -0.1643 -0.2339
   91SAPS   H6X 8905   5.857   3.165   7.379 -0.3775  2.3507  2.2077
   91SAPS   H6Y 8906   5.992   3.277   7.391 -1.4049  0.1982 -2.3833
   91SAPS   C37 8907   6.005   3.115   7.535  0.1668  0.1775  0.6193
   91SAPS   H7X 8908   6.111   3.092   7.561  0.4184 -0.9164 -1.1899
   91SAPS   H7Y 8909   5.949   3.020   7.550  0.2717  0.1988  1.1658
   91SAPS   C38 8910   5.955   3.209   7.645  0.3960 -0.0985  0.2580
   91SAPS   H8X 8911   5.926   3.134   7.722 -0.0915  0.0678  0.2394
   91SAPS   H8Y 8912   5.861   3.262   7.618 -0.3077 -1.4596 -0.0248
   91SAPS   C39 8913   6.058   3.315   7.687  0.7568 -0.1217 -0.0254
   91SAPS   H9X 8914   6.069   3.396   7.612 -2.0183  1.9575  1.6316
   91SAPS   H9Y 8915   6.159   3.270   7.693  0.7712 -0.6642 -2.9215
   91SAPS  C310 8916   6.013   3.386   7.815 -0.0577 -0.4182 -0.3991
   91SAPS  H10X 8917   5.966   3.316   7.886  1.3576  0.0757  1.0783
   91SAPS  H10Y 8918   5.937   3.465   7.794 -0.0624 -0.4189 -0.3837
   91SAPS  C311 8919   6.126   3.467   7.881  0.2025 -0.0100  0.2419
   91SAPS  H11X 8920   6.168   3.544   7.812 -0.1223 -0.4050 -0.4131
   91SAPS  H11Y 8921   6.204   3.389   7.892 -0.4035 -0.4696  1.4205
   91SAPS  C312 8922   6.098   3.538   8.011  0.1762  0.0646  0.2160
   91SAPS  H12X 8923   6.004   3.596   8.021  0.8020  1.0136  0.7949
   91SAPS  H12Y 8924   6.179   3.612   8.029 -0.9053  1.4103 -0.3166
   91SAPS  C313 8925   6.072   3.435   8.125 -0.4905  0.9035 -0.0180
   91SAPS  H13X 8926   6.175   3.395   8.139 -0.6008  0.2776 -0.8860
   91SAPS  H13Y 8927   6.009   3.352   8.086  0.5126  1.5552 -3.3542
   91SAPS  C314 8928   6.012   3.479   8.257  0.4457 -0.2017 -0.2590
   91SAPS  H14X 8929   5.920   3.535   8.229  0.9611  0.9518  0.3281
   91SAPS  H14Y 8930   6.074   3.548   8.318  0.7133  1.2010 -2.0309
   91SAPS  C315 8931   5.959   3.361   8.345 -0.1600 -0.6028  0.4289
   91SAPS  H15X 8932   6.042   3.307   8.396  0.5817 -0.9067 -1.0430
   91SAPS  H15Y 8933   5.921   3.294   8.265  0.7800  0.2482 -0.7547
   91SAPS  C316 8934   5.830   3.391   8.426  0.4103 -0.2583 -0.0843
   91SAPS  H16X 8935   5.737   3.407   8.368  0.6322 -0.9750 -0.6564
   91SAPS  H16Y 8936   5.853   3.486   8.480  0.5410  1.1447 -2.4350
   91SAPS  C317 8937   5.782   3.283   8.526 -0.2579  0.4695 -0.3136
   91SAPS  H17X 8938   5.860   3.283   8.605  1.1407 -0.9275 -1.6044
   91SAPS  H17Y 8939   5.781   3.181   8.481 -1.0849  0.1133  0.4780
   91SAPS  C318 8940   5.643   3.316   8.588 -0.4196  0.6590  0.2870
   91SAPS  H18X 8941   5.646   3.402   8.658  1.2908  0.6557  0.2492
   91SAPS  H18Y 8942   5.613   3.225   8.644 -2.1369  0.9807 -0.0599
   91SAPS  H18Z 8943   5.558   3.329   8.518 -2.3006  1.6310  2.5809
   92SAPS     N 8944   6.162   6.641   6.538  0.5399  0.2518 -0.0916
   92SAPS   HN1 8945   6.245   6.681   6.490  0.7807 -0.3789 -0.2093
   92SAPS   HN2 8946   6.101   6.721   6.566  0.1752 -0.4029  1.0457
   92SAPS   HN3 8947   6.194   6.596   6.626 -2.1562  1.3349  1.5682
   92SAPS   C12 8948   6.101   6.536   6.447 -0.0293 -0.1311 -0.2011
   92SAPS  H12A 8949   5.996   6.522   6.470 -0.6210  0.5591 -2.2855
   92SAPS   C13 8950   6.131   6.552   6.292  0.3590  0.5790 -0.4538
   92SAPS  O13A 8951   6.206   6.646   6.262 -0.3239 -0.3206  0.3972
   92SAPS  O13B 8952   6.060   6.481   6.215 -0.0025 -0.2522  0.3865
   92SAPS   C11 8953   6.179   6.408   6.481 -0.0117 -0.0560  0.0747
   92SAPS  H11A 8954   6.289   6.426   6.479 -0.3272  3.0850  2.5732
   92SAPS  H11B 8955   6.152   6.332   6.405  0.3062 -0.6491  0.5446
   92SAPS     P 8956   6.015   6.302   6.658 -0.0853 -0.8293  0.0530
   92SAPS   O13 8957   5.924   6.416   6.668  0.4754 -0.8560 -0.8558
   92SAPS   O14 8958   5.981   6.197   6.564  0.5014 -0.5747 -0.2979
   92SAPS   O12 8959   6.153   6.360   6.615  0.2619 -0.8062  0.0298
   92SAPS   O11 8960   6.051   6.242   6.802 -0.3479 -0.2702  0.6291
   92SAPS    C1 8961   6.065   6.104   6.825  0.2884  0.5576 -0.2419
   92SAPS    HA 8962   5.969   6.048   6.820 -0.1281  1.2777 -0.3953
   92SAPS    HB 8963   6.131   6.058   6.748 -2.8858  0.6821 -3.3150
   92SAPS    C2 8964   6.131   6.075   6.969  0.0902 -0.5130  0.6912
   92SAPS    HS 8965   6.151   5.966   6.967  2.2900 -0.1419  0.5646
   92SAPS   O21 8966   6.049   6.110   7.078 -0.5199  0.5941  0.8589
   92SAPS   C21 8967   5.963   6.011   7.110 -0.7362  0.1553 -0.4542
   92SAPS   O22 8968   5.935   5.917   7.041 -0.2114  0.5286 -0.1970
   92SAPS   C22 8969   5.904   6.040   7.250  0.0208  0.3988 -0.0552
   92SAPS   H2R 8970   5.867   6.145   7.255 -1.1208  0.0613 -1.1176
   92SAPS   H2S 8971   5.811   5.980   7.254  0.7507 -0.7957 -0.3872
   92SAPS    C3 8972   6.276   6.138   6.971 -0.1786  0.6623 -0.6767
   92SAPS    HX 8973   6.275   6.234   6.915 -2.4735 -0.7554 -3.3807
   92SAPS    HY 8974   6.348   6.073   6.916  2.2827  1.7503  1.1156
   92SAPS   O31 8975   6.332   6.162   7.107  0.1261  0.4727  0.3338
   92SAPS   C31 8976   6.360   6.047   7.173  0.7006  0.2257  0.3067
   92SAPS   O32 8977   6.357   5.937   7.125 -0.1053 -0.4069  0.1766
   92SAPS   C32 8978   6.391   6.077   7.318 -0.5160  0.3704  0.3984
   92SAPS   H2X 8979   6.311   6.142   7.360 -1.7544 -0.7613 -0.1415
   92SAPS   H2Y 8980   6.482   6.141   7.317 -0.6083  0.5293  1.3730
   92SAPS   C23 8981   6.001   6.023   7.372  0.4387  0.5167  0.0789
   92SAPS   H3R 8982   5.955   6.068   7.463 -1.8022  0.5839 -1.0285
   92SAPS   H3S 8983   6.104   6.058   7.351 -0.3147  1.6562 -1.9141
   92SAPS   C24 8984   6.012   5.866   7.404 -0.0774  0.0445 -0.3204
   92SAPS   H4R 8985   6.081   5.878   7.490  1.9739  0.9186 -2.0063
   92SAPS   H4S 8986   6.072   5.810   7.329  1.0104 -0.7246  1.0832
   92SAPS   C25 8987   5.882   5.795   7.437  0.2599 -0.1589 -0.3495
   92SAPS   H5R 8988   5.827   5.751   7.352  0.1297 -1.7821  0.5436
   92SAPS   C26 8989   5.826   5.774   7.559  0.1981 -0.0227  0.0841
   92SAPS   H6R 8990   5.723   5.739   7.572  0.2032 -0.0541  0.0394
   92SAPS   C27 8991   5.892   5.831   7.684 -0.3782  0.1796  0.6422
   92SAPS   H7R 8992   5.950   5.923   7.659  0.1425 -0.9249 -2.7520
   92SAPS   H7S 8993   5.964   5.753   7.716 -0.4360  0.1841  0.7829
   92SAPS   C28 8994   5.791   5.844   7.793 -0.6811 -0.0240  0.0701
   92SAPS   H8R 8995   5.713   5.912   7.758  0.1276  0.6384 -0.4760
   92SAPS   C29 8996   5.781   5.783   7.914  0.1126  0.0475  0.0390
   92SAPS   H9R 8997   5.688   5.791   7.972  0.4953  0.6745  0.5845
   92SAPS  C210 8998   5.885   5.692   7.965 -0.0505 -0.5533 -0.1824
   92SAPS  H10R 8999   5.977   5.745   7.998  0.3883 -2.6968  2.3881
   92SAPS  H10S 9000   5.929   5.633   7.882  0.1853 -0.0716 -0.3979
   92SAPS  C211 9001   5.832   5.589   8.062  0.3981 -0.0460  0.0087
   92SAPS  H11R 9002   5.723   5.582   8.076  0.5250 -0.5508  0.7895
   92SAPS  C212 9003   5.895   5.522   8.156  0.1646 -0.0077 -0.6174
   92SAPS  H12R 9004   5.847   5.438   8.209  2.0822 -0.0355  1.2005
   92SAPS  C213 9005   6.040   5.533   8.184  0.3929  0.0216 -0.3884
   92SAPS  H13R 9006   6.085   5.626   8.142 -0.7115  0.8024  0.0955
   92SAPS  H13S 9007   6.100   5.447   8.147  1.9901  0.7147  0.5068
   92SAPS  C214 9008   6.068   5.529   8.338  0.4189 -0.3617  0.5578
   92SAPS  H14R 9009   6.080   5.625   8.391 -0.2909  0.7239 -1.1398
   92SAPS  C215 9010   6.089   5.422   8.408  0.3610  0.3480 -0.6050
   92SAPS  H15R 9011   6.107   5.424   8.516 -0.4002  0.0060 -0.4620
   92SAPS  C216 9012   6.078   5.275   8.370  0.0739  0.7540  0.8187
   92SAPS  H16R 9013   6.031   5.267   8.270 -0.7976  0.2854  1.2487
   92SAPS  H16S 9014   5.993   5.237   8.430 -2.2527  1.9654 -1.5270
   92SAPS  C217 9015   6.203   5.182   8.399 -0.8559  0.3170 -0.7280
   92SAPS  H17R 9016   6.287   5.250   8.427  1.1005 -1.4935 -1.8621
   92SAPS  H17S 9017   6.231   5.138   8.301 -0.1936 -2.7952  0.7384
   92SAPS  C218 9018   6.185   5.065   8.506 -0.0570 -0.1898 -0.6369
   92SAPS  H18R 9019   6.281   5.010   8.503  0.5644  0.5937  2.0282
   92SAPS  H18S 9020   6.106   4.992   8.480 -0.8006  0.7252 -1.0341
   92SAPS  C219 9021   6.163   5.114   8.651 -0.0378 -0.3654  0.5775
   92SAPS  H19R 9022   6.057   5.145   8.659  0.1337  0.1035  1.1035
   92SAPS  H19S 9023   6.217   5.211   8.658 -2.3752  0.9848  0.9876
   92SAPS  C220 9024   6.204   5.015   8.758 -0.6564  0.1740 -0.0257
   92SAPS  H20R 9025   6.303   4.968   8.735 -0.4549  0.4637  0.2555
   92SAPS  H20S 9026   6.127   4.934   8.752 -2.9656  2.3533 -2.5200
   92SAPS  H20T 9027   6.215   5.062   8.858 -0.3553  1.5376 -0.6759
   92SAPS   C33 9028   6.415   5.955   7.403 -0.0856  0.4428  0.5206
   92SAPS   H3X 9029   6.511   5.907   7.373  0.5204  1.7450  0.3109
   92SAPS   H3Y 9030   6.342   5.874   7.379 -0.2294  0.1092  1.9799
   92SAPS   C34 9031   6.401   5.984   7.551 -0.2079 -0.6218  0.1541
   92SAPS   H4X 9032   6.300   6.023   7.576 -0.7831 -1.5828 -0.6277
   92SAPS   H4Y 9033   6.473   6.065   7.577 -1.9151  0.3480  2.2179
   92SAPS   C35 9034   6.422   5.861   7.644 -0.5746 -0.2871  0.1063
   92SAPS   H5X 9035   6.520   5.811   7.628  0.7868  1.7068  1.7408
   92SAPS   H5Y 9036   6.345   5.783   7.624  1.0882 -1.7846 -0.7461
   92SAPS   C36 9037   6.413   5.884   7.794  0.5208 -0.3098  0.6495
   92SAPS   H6X 9038   6.502   5.935   7.837 -0.1235  2.0852 -0.6460
   92SAPS   H6Y 9039   6.401   5.786   7.846  0.7662  0.0487  1.3974
   92SAPS   C37 9040   6.285   5.958   7.834  0.0364 -0.7364  0.1641
   92SAPS   H7X 9041   6.203   5.904   7.781  0.8281 -1.5541 -0.2527
   92SAPS   H7Y 9042   6.287   6.067   7.814  1.9965 -0.3485  2.1236
   92SAPS   C38 9043   6.230   5.945   7.976  0.8079 -0.2056 -1.1871
   92SAPS   H8X 9044   6.167   5.855   7.990 -0.7891  1.1165  0.7825
   92SAPS   H8Y 9045   6.156   6.028   7.988  0.8138 -0.4625  0.9875
   92SAPS   C39 9046   6.331   5.953   8.087 -0.1907  0.0208  0.2020
   92SAPS   H9X 9047   6.387   6.047   8.071  1.2890 -0.6115  1.3771
   92SAPS   H9Y 9048   6.396   5.863   8.079 -1.2232 -0.7024 -0.3533
   92SAPS  C310 9049   6.261   5.953   8.222  0.0165  0.2121 -0.5964
   92SAPS  H10X 9050   6.189   5.869   8.211  0.2647  0.2989 -3.8174
   92SAPS  H10Y 9051   6.208   6.046   8.250 -1.1395 -0.0304 -1.8325
   92SAPS  C311 9052   6.347   5.927   8.344 -0.0853  0.8981 -0.4904
   92SAPS  H11X 9053   6.356   5.817   8.353 -0.0168  1.0461  1.7719
   92SAPS  H11Y 9054   6.282   5.957   8.429  2.1001 -1.4516  2.2234
   92SAPS  C312 9055   6.468   6.018   8.349  0.1434 -0.2803 -0.0685
   92SAPS  H12X 9056   6.533   6.002   8.260 -2.1729 -1.3745 -1.6705
   92SAPS  H12Y 9057   6.527   5.999   8.441 -0.7540  0.1194  0.6140
   92SAPS  C313 9058   6.414   6.167   8.353  0.2471 -0.2033 -0.7763
   92SAPS  H13X 9059   6.326   6.158   8.421  0.7456 -2.3343 -0.3102
   92SAPS  H13Y 9060   6.384   6.213   8.257 -0.0462  0.7570 -0.2327
   92SAPS  C314 9061   6.517   6.262   8.424 -0.0244 -0.3907  0.2558
   92SAPS  H14X 9062   6.477   6.364   8.405  3.0993  0.8667 -0.0543
   92SAPS  H14Y 9063   6.623   6.260   8.390  0.1198 -1.0177  0.7313
   92SAPS  C315 9064   6.513   6.245   8.576 -0.0008  0.6903 -0.6409
   92SAPS  H15X 9065   6.570   6.155   8.607 -1.7278  0.9266  3.9367
   92SAPS  H15Y 9066   6.406   6.228   8.600 -0.0488 -1.7616 -2.2373
   92SAPS  C316 9067   6.586   6.369   8.638 -0.3946  0.0209  0.4886
   92SAPS  H16X 9068   6.552   6.469   8.603  1.0736  0.3702 -0.0323
   92SAPS  H16Y 9069   6.691   6.360   8.603 -0.2554  1.7212  0.4053
   92SAPS  C317 9070   6.582   6.351   8.792 -0.5023 -0.7552 -0.1295
   92SAPS  H17X 9071   6.636   6.262   8.832  0.6793 -0.3260 -0.7549
   92SAPS  H17Y 9072   6.476   6.329   8.818  0.6959 -4.1543  2.7122
   92SAPS  C318 9073   6.630   6.480   8.858 -0.4932  0.4839 -0.0389
   92SAPS  H18X 9074   6.741   6.483   8.851 -0.4502 -0.4860  0.1302
   92SAPS  H18Y 9075   6.600   6.478   8.965  0.3180  0.1349  0.1889
   92SAPS  H18Z 9076   6.590   6.563   8.796 -1.3074 -0.5087 -0.8745
   93SAPS     N 9077   0.453   6.369   6.384 -0.4660  0.3869  0.7959
   93SAPS   HN1 9078   0.384   6.337   6.313  0.8177 -0.0625 -0.2719
   93SAPS   HN2 9079   0.504   6.280   6.401  0.7573  0.4690 -1.9975
   93SAPS   HN3 9080   0.407   6.407   6.469 -0.7448  0.8749  0.4314
   93SAPS   C12 9081   0.543   6.476   6.330  0.5392 -0.4140  0.1660
   93SAPS  H12A 9082   0.626   6.493   6.397  2.1544  2.0444 -2.2329
   93SAPS   C13 9083   0.597   6.443   6.186 -0.1506 -0.0312  0.6481
   93SAPS  O13A 9084   0.560   6.333   6.134  0.0929  0.1202  0.0285
   93SAPS  O13B 9085   0.705   6.496   6.142 -0.4227 -0.7300 -0.7543
   93SAPS   C11 9086   0.469   6.613   6.322 -0.9219  0.6022 -0.2611
   93SAPS  H11A 9087   0.384   6.601   6.251 -0.4059  0.9407 -0.9513
   93SAPS  H11B 9088   0.526   6.698   6.279 -0.1853  1.7865  2.8153
   93SAPS     P 9089   0.361   6.793   6.477 -0.3376 -0.0918 -0.0332
   93SAPS   O13 9090   0.349   6.862   6.345 -0.3106  0.4788  1.0490
   93SAPS   O14 9091   0.237   6.792   6.556  0.5236  0.8614 -0.3807
   93SAPS   O12 9092   0.430   6.654   6.460  0.5942 -0.6596 -0.1088
   93SAPS   O11 9093   0.467   6.868   6.571 -0.5657  0.3055  0.3399
   93SAPS    C1 9094   0.553   6.797   6.666  0.5071  0.2540  0.2377
   93SAPS    HA 9095   0.564   6.691   6.635  0.8067  0.9345 -2.2310
   93SAPS    HB 9096   0.650   6.849   6.677  0.8436  0.0130 -1.3871
   93SAPS    C2 9097   0.492   6.797   6.803  0.8319  0.2991 -0.0376
   93SAPS    HS 9098   0.389   6.756   6.795  1.4340 -1.1407 -0.6618
   93SAPS   O21 9099   0.493   6.931   6.853 -0.2824  0.2264  0.1055
   93SAPS   C21 9100   0.398   6.955   6.941  0.1403 -0.2690  0.0519
   93SAPS   O22 9101   0.304   6.886   6.965 -0.3638 -0.1623 -0.0003
   93SAPS   C22 9102   0.435   7.082   7.018 -0.1377  0.8219  0.8221
   93SAPS   H2R 9103   0.536   7.069   7.064  1.8385 -1.2550 -3.5210
   93SAPS   H2S 9104   0.434   7.166   6.945  2.8443 -0.2161 -0.6102
   93SAPS    C3 9105   0.575   6.688   6.880  0.2295  0.3429 -0.0049
   93SAPS    HX 9106   0.680   6.714   6.855 -0.0068  0.4577 -0.8791
   93SAPS    HY 9107   0.560   6.590   6.831 -0.7070  0.7381 -0.5283
   93SAPS   O31 9108   0.541   6.668   7.015  0.2163  0.3145  0.0996
   93SAPS   C31 9109   0.421   6.604   7.032 -0.1758  0.1340 -0.3023
   93SAPS   O32 9110   0.356   6.545   6.946  0.4457 -0.1161 -0.7157
   93SAPS   C32 9111   0.390   6.606   7.182  0.0685  0.0158  0.3666
   93SAPS   H2X 9112   0.299   6.542   7.188  0.6586 -0.8961 -0.0905
   93SAPS   H2Y 9113   0.377   6.711   7.215 -2.2447  0.7216 -2.3752
   93SAPS   C23 9114   0.342   7.135   7.130  0.5230  0.0703 -0.2373
   93SAPS   H3R 9115   0.240   7.098   7.103  1.1752 -1.6267 -0.5591
   93SAPS   H3S 9116   0.344   7.245   7.116  0.2747  0.3277  1.5523
   93SAPS   C24 9117   0.376   7.077   7.266  0.0574  0.3037 -0.2264
   93SAPS   H4R 9118   0.403   6.970   7.251 -0.1692  0.2275 -0.1042
   93SAPS   H4S 9119   0.288   7.086   7.334 -0.5638  0.6811 -1.0586
   93SAPS   C25 9120   0.490   7.155   7.338  0.5856 -0.8806  0.9781
   93SAPS   H5R 9121   0.483   7.263   7.315  0.0446 -0.7369  1.7849
   93SAPS   C26 9122   0.590   7.106   7.409  0.3002 -0.8973 -0.0727
   93SAPS   H6R 9123   0.659   7.180   7.451 -0.0257  1.1861 -2.8981
   93SAPS   C27 9124   0.610   6.964   7.443  0.9395  0.1728 -0.5355
   93SAPS   H7R 9125   0.661   6.908   7.363  0.4547  0.1885 -0.8634
   93SAPS   H7S 9126   0.516   6.907   7.462  2.4252 -2.4421 -0.5364
   93SAPS   C28 9127   0.704   6.959   7.555 -0.6515  0.3576  0.1292
   93SAPS   H8R 9128   0.810   6.937   7.532 -0.6280 -1.0869  1.4767
   93SAPS   C29 9129   0.664   6.979   7.688  1.2235 -0.4940  0.8942
   93SAPS   H9R 9130   0.736   6.975   7.770 -0.3771 -0.0514  2.3909
   93SAPS  C210 9131   0.523   7.014   7.743  0.2556 -1.0761 -0.1005
   93SAPS  H10R 9132   0.508   6.972   7.844  1.3967  1.9317  1.4571
   93SAPS  H10S 9133   0.436   6.985   7.680  0.0484  0.8350 -0.7656
   93SAPS  C211 9134   0.525   7.162   7.752 -0.5686 -0.6867 -0.5857
   93SAPS  H11R 9135   0.541   7.222   7.661 -0.4867 -0.7956 -0.6438
   93SAPS  C212 9136   0.517   7.246   7.867  0.3708  0.4722  0.2604
   93SAPS  H12R 9137   0.533   7.355   7.869  0.9674  0.4122 -0.6511
   93SAPS  C213 9138   0.498   7.187   8.003  0.0489  0.2142  0.2145
   93SAPS  H13R 9139   0.599   7.168   8.047  0.4303 -0.3479 -0.8748
   93SAPS  H13S 9140   0.444   7.091   8.006  1.0155 -0.3482  2.4836
   93SAPS  C214 9141   0.426   7.281   8.097  0.6974  0.1052  0.1655
   93SAPS  H14R 9142   0.352   7.354   8.059  1.6105  1.0712  0.2123
   93SAPS  C215 9143   0.439   7.281   8.227  0.1419 -0.0633  0.1787
   93SAPS  H15R 9144   0.388   7.356   8.289 -1.8335 -1.3400  0.1727
   93SAPS  C216 9145   0.535   7.191   8.307 -0.1269  0.1430  0.1733
   93SAPS  H16R 9146   0.639   7.209   8.272 -0.9950  1.5917 -1.8893
   93SAPS  H16S 9147   0.502   7.085   8.308  0.3072 -0.0102 -0.8672
   93SAPS  C217 9148   0.544   7.226   8.459  0.1260 -0.6572 -0.3680
   93SAPS  H17R 9149   0.595   7.139   8.507  1.7242 -0.9493 -2.4406
   93SAPS  H17S 9150   0.447   7.244   8.509 -0.1859  3.2883 -2.0033
   93SAPS  C218 9151   0.634   7.346   8.486  0.1917 -0.2418 -0.0841
   93SAPS  H18R 9152   0.733   7.338   8.437  0.2610 -0.7948  0.1286
   93SAPS  H18S 9153   0.666   7.335   8.592 -2.6273 -1.8049  0.6955
   93SAPS  C219 9154   0.582   7.496   8.479 -0.0594  0.0764  0.6147
   93SAPS  H19R 9155   0.557   7.522   8.374  2.9164 -0.7991 -0.4189
   93SAPS  H19S 9156   0.670   7.560   8.500 -0.4734  0.8207  0.1036
   93SAPS  C220 9157   0.475   7.537   8.569  0.3296 -0.2753  0.5711
   93SAPS  H20R 9158   0.388   7.468   8.571 -0.7496  1.0020 -0.3224
   93SAPS  H20S 9159   0.437   7.641   8.558  0.4463 -0.1810  1.0099
   93SAPS  H20T 9160   0.517   7.531   8.672  1.8864 -0.7266 -0.0675
   93SAPS   C33 9161   0.502   6.546   7.267 -0.3742 -0.5065 -0.2516
   93SAPS   H3X 9162   0.602   6.593   7.254 -0.6234  0.7489  1.7814
   93SAPS   H3Y 9163   0.512   6.439   7.239 -0.1649 -0.1552 -1.5666
   93SAPS   C34 9164   0.455   6.558   7.410 -0.0192 -0.3823 -0.1999
   93SAPS   H4X 9165   0.390   6.470   7.427  1.7142 -1.7885 -0.5842
   93SAPS   H4Y 9166   0.392   6.650   7.413 -1.5640 -1.2834 -2.6349
   93SAPS   C35 9167   0.570   6.538   7.509 -0.7171  0.2813 -0.0415
   93SAPS   H5X 9168   0.638   6.625   7.500 -0.4338 -0.0381 -1.2333
   93SAPS   H5Y 9169   0.617   6.438   7.493  1.5769  1.2235  0.4814
   93SAPS   C36 9170   0.541   6.530   7.668  0.0039 -0.5134 -0.2990
   93SAPS   H6X 9171   0.539   6.635   7.704 -0.2779 -1.0248  1.2318
   93SAPS   H6Y 9172   0.627   6.478   7.714 -0.1136 -0.7144 -0.3038
   93SAPS   C37 9173   0.405   6.474   7.710  0.4994 -0.1725  0.5125
   93SAPS   H7X 9174   0.389   6.377   7.659  3.5549 -0.8054  0.5519
   93SAPS   H7Y 9175   0.321   6.530   7.663  0.7901  0.0085  0.2109
   93SAPS   C38 9176   0.380   6.461   7.860 -0.1703 -0.2334  0.2477
   93SAPS   H8X 9177   0.435   6.373   7.900 -0.4859 -0.2978  0.5538
   93SAPS   H8Y 9178   0.272   6.442   7.878 -0.2355  1.4184  1.9235
   93SAPS   C39 9179   0.409   6.584   7.940 -0.0908  0.4851 -1.0135
   93SAPS   H9X 9180   0.320   6.650   7.934 -1.4562 -1.0955  0.4590
   93SAPS   H9Y 9181   0.498   6.634   7.896  0.2594 -0.7899 -1.8136
   93SAPS  C310 9182   0.437   6.552   8.086  0.0818  0.4023 -0.1287
   93SAPS  H10X 9183   0.499   6.465   8.115  0.2924  0.9675  1.2051
   93SAPS  H10Y 9184   0.336   6.526   8.126  0.3527  2.3564  2.0732
   93SAPS  C311 9185   0.482   6.688   8.143  0.4162  0.2072 -0.1905
   93SAPS  H11X 9186   0.412   6.769   8.110  0.5469  0.1142 -0.6960
   93SAPS  H11Y 9187   0.583   6.709   8.103  1.7169 -0.8729  2.3131
   93SAPS  C312 9188   0.496   6.671   8.297 -0.1030  0.4394 -0.4938
   93SAPS  H12X 9189   0.589   6.614   8.318 -0.6202  0.0785  0.9202
   93SAPS  H12Y 9190   0.416   6.609   8.343  0.0861 -0.5583 -1.4621
   93SAPS  C313 9191   0.503   6.815   8.362 -0.3053  0.0466 -0.0521
   93SAPS  H13X 9192   0.405   6.856   8.329 -0.4907 -1.3048 -1.2773
   93SAPS  H13Y 9193   0.574   6.869   8.295 -1.5814 -0.6420 -2.0456
   93SAPS  C314 9194   0.538   6.824   8.513  0.3240  0.1056  0.2140
   93SAPS  H14X 9195   0.573   6.928   8.534 -0.1956  0.9217 -2.5695
   93SAPS  H14Y 9196   0.623   6.758   8.539 -0.4805 -0.8242  0.5454
   93SAPS  C315 9197   0.423   6.800   8.594  0.6214 -0.5525 -0.2810
   93SAPS  H15X 9198   0.385   6.699   8.564  2.6385 -1.6359  0.5929
   93SAPS  H15Y 9199   0.347   6.874   8.562  0.5438 -0.6395 -0.2988
   93SAPS  C316 9200   0.441   6.804   8.742 -0.2876 -0.8277 -1.0359
   93SAPS  H16X 9201   0.470   6.901   8.787  0.4262 -1.2697 -0.5160
   93SAPS  H16Y 9202   0.523   6.735   8.771 -0.6206 -0.7636  0.1086
   93SAPS  C317 9203   0.315   6.755   8.827 -0.1965 -0.4392 -0.0356
   93SAPS  H17X 9204   0.278   6.666   8.772  0.6245 -0.1732 -1.0600
   93SAPS  H17Y 9205   0.238   6.834   8.821  1.2797  1.2525  1.8704
   93SAPS  C318 9206   0.337   6.727   8.972 -0.8065 -0.3475  0.3203
   93SAPS  H18X 9207   0.382   6.817   9.020 -0.3695 -0.5527  0.2991
   93SAPS  H18Y 9208   0.418   6.651   8.984 -0.2524 -0.3481 -2.7587
   93SAPS  H18Z 9209   0.246   6.681   9.016 -0.7641 -1.8857 -1.1100
   94SAPS     N 9210   1.863   2.742   5.940 -0.2438 -0.1193  0.0699
   94SAPS   HN1 9211   1.846   2.756   6.041 -2.2681 -2.5016  0.1558
   94SAPS   HN2 9212   1.809   2.666   5.894  0.3079 -1.6084  1.7673
   94SAPS   HN3 9213   1.958   2.700   5.934  0.5064  1.6890 -3.0122
   94SAPS   C12 9214   1.867   2.865   5.865 -0.2114  0.3449  0.0611
   94SAPS  H12A 9215   1.903   2.948   5.925  1.6420  0.4966 -1.1894
   94SAPS   C13 9216   1.948   2.863   5.735 -0.7694 -0.4151 -0.2681
   94SAPS  O13A 9217   1.957   2.759   5.667 -0.2345  0.0793  0.5597
   94SAPS  O13B 9218   1.954   2.972   5.678  0.1899 -0.1992  0.2807
   94SAPS   C11 9219   1.720   2.903   5.835  0.7723 -0.4588  0.4918
   94SAPS  H11A 9220   1.673   2.825   5.772  1.2887 -1.7064  1.5956
   94SAPS  H11B 9221   1.717   2.996   5.774 -1.3194  0.0051  1.2149
   94SAPS     P 9222   1.592   3.050   6.002 -0.0247  0.4689  0.2043
   94SAPS   O13 9223   1.696   3.134   6.063 -0.9547 -0.3475 -0.0670
   94SAPS   O14 9224   1.511   3.102   5.892  0.1862  0.0703  0.1497
   94SAPS   O12 9225   1.651   2.914   5.960 -0.3996  0.2688  0.5655
   94SAPS   O11 9226   1.494   3.005   6.107  0.3497 -0.7692 -0.6850
   94SAPS    C1 9227   1.411   2.886   6.095  0.6425  0.0994 -0.1490
   94SAPS    HA 9228   1.303   2.912   6.092  0.1975 -1.6986 -0.3810
   94SAPS    HB 9229   1.421   2.834   5.998 -0.0644  0.2873 -0.3278
   94SAPS    C2 9230   1.435   2.773   6.197 -0.1832 -0.0490  0.7632
   94SAPS    HS 9231   1.382   2.681   6.161 -0.4768  0.5120 -0.2967
   94SAPS   O21 9232   1.370   2.806   6.321 -0.0474 -0.1971  0.2772
   94SAPS   C21 9233   1.237   2.791   6.330  0.2590  0.8648  0.6221
   94SAPS   O22 9234   1.167   2.740   6.243  0.4823  1.2928  0.6170
   94SAPS   C22 9235   1.195   2.837   6.467  0.0297  0.3234  0.1587
   94SAPS   H2R 9236   1.265   2.910   6.513  2.1738 -1.3147 -0.2910
   94SAPS   H2S 9237   1.099   2.891   6.456  0.1164  0.6819  1.0842
   94SAPS    C3 9238   1.588   2.744   6.224  0.7702  0.8335  0.5887
   94SAPS    HX 9239   1.618   2.844   6.263 -1.3166  2.1729 -1.0769
   94SAPS    HY 9240   1.638   2.721   6.128  0.4221 -2.2880  1.0492
   94SAPS   O31 9241   1.620   2.641   6.321  0.0843  0.1136  0.4285
   94SAPS   C31 9242   1.592   2.518   6.290  0.1607  0.2898  0.4506
   94SAPS   O32 9243   1.520   2.477   6.200 -0.3630 -0.1408  0.2601
   94SAPS   C32 9244   1.651   2.431   6.398 -0.1424 -0.0266  0.3911
   94SAPS   H2X 9245   1.727   2.479   6.463  1.8140  0.2442 -1.9538
   94SAPS   H2Y 9246   1.713   2.355   6.345  0.4310 -0.8060  2.1053
   94SAPS   C23 9247   1.178   2.722   6.573 -0.4218  0.9256 -0.6682
   94SAPS   H3R 9248   1.273   2.684   6.616 -1.0597 -0.2590 -0.2692
   94SAPS   H3S 9249   1.129   2.644   6.512 -0.7617  2.6753 -2.7829
   94SAPS   C24 9250   1.080   2.767   6.683  0.0546 -0.6143 -0.4743
   94SAPS   H4R 9251   1.059   2.681   6.750  0.3675 -1.2573 -1.1829
   94SAPS   H4S 9252   0.985   2.782   6.627 -0.1896 -1.9757 -0.4538
   94SAPS   C25 9253   1.139   2.886   6.755 -0.5397 -0.4006  0.7403
   94SAPS   H5R 9254   1.236   2.928   6.726  0.7579 -2.2482  2.2411
   94SAPS   C26 9255   1.074   2.943   6.853  0.7740  0.0387  0.4946
   94SAPS   H6R 9256   1.125   3.030   6.897 -1.7745  2.3285 -0.7804
   94SAPS   C27 9257   0.935   2.910   6.914 -0.4385 -0.7455 -0.0429
   94SAPS   H7R 9258   0.870   2.844   6.852  0.1380 -1.3658  0.0047
   94SAPS   H7S 9259   0.876   3.002   6.936  1.4870  0.3733  0.6824
   94SAPS   C28 9260   0.961   2.831   7.042 -0.1585 -0.4217  0.1726
   94SAPS   H8R 9261   0.952   2.721   7.040 -1.0857 -0.3719  1.0021
   94SAPS   C29 9262   0.998   2.883   7.162  0.5542 -0.6587 -0.1410
   94SAPS   H9R 9263   1.000   2.806   7.241  1.0199 -2.0258 -1.4239
   94SAPS  C210 9264   1.028   3.022   7.205 -0.0078 -0.8097  0.8297
   94SAPS  H10R 9265   1.087   3.075   7.128 -0.1368 -1.8697 -0.0101
   94SAPS  H10S 9266   1.091   3.027   7.297 -1.4011  0.2410  1.7709
   94SAPS  C211 9267   0.909   3.110   7.226  0.3079 -0.2047  0.5144
   94SAPS  H11R 9268   0.863   3.158   7.140  0.5918  0.8369  0.9316
   94SAPS  C212 9269   0.850   3.152   7.342  0.0116  0.2562  0.7044
   94SAPS  H12R 9270   0.757   3.209   7.333  1.7236  3.1204 -0.2203
   94SAPS  C213 9271   0.896   3.108   7.484  0.2006  0.0904  0.5927
   94SAPS  H13R 9272   0.892   2.997   7.493 -1.6096  0.1645  1.0206
   94SAPS  H13S 9273   0.807   3.130   7.547 -1.1053  2.1123 -1.7791
   94SAPS  C214 9274   1.013   3.172   7.548  0.0981 -0.0732  0.2620
   94SAPS  H14R 9275   1.065   3.251   7.493 -2.1299  0.9918 -0.4229
   94SAPS  C215 9276   1.062   3.130   7.665  0.3296  0.0479  0.1380
   94SAPS  H15R 9277   1.142   3.176   7.724  0.1003  2.6116 -1.3889
   94SAPS  C216 9278   0.985   3.026   7.745 -0.2737  0.3645  0.2720
   94SAPS  H16R 9279   0.913   2.967   7.685 -0.0393  1.0822 -0.7339
   94SAPS  H16S 9280   0.919   3.072   7.822 -0.6101 -0.7445  0.6691
   94SAPS  C217 9281   1.090   2.941   7.816 -0.0444  0.2104 -0.1246
   94SAPS  H17R 9282   1.174   3.001   7.858 -0.3121  1.8201 -1.7401
   94SAPS  H17S 9283   1.143   2.879   7.741 -0.2290  1.1228 -1.0406
   94SAPS  C218 9284   1.017   2.856   7.930 -0.9669 -0.3086 -0.2307
   94SAPS  H18R 9285   0.960   2.780   7.873 -3.0289 -0.1417  1.5073
   94SAPS  H18S 9286   0.950   2.927   7.981  0.8210  1.6164 -0.4308
   94SAPS  C219 9287   1.116   2.771   8.016  0.2977  0.0131 -0.2510
   94SAPS  H19R 9288   1.175   2.702   7.952 -0.1683  0.1422 -0.8250
   94SAPS  H19S 9289   1.056   2.702   8.079  2.1160 -0.1729  1.3757
   94SAPS  C220 9290   1.227   2.844   8.089  0.3066 -0.1282  0.8371
   94SAPS  H20R 9291   1.196   2.930   8.152 -1.4032  1.7659 -2.2871
   94SAPS  H20S 9292   1.296   2.872   8.006 -0.9226 -0.6828 -0.4253
   94SAPS  H20T 9293   1.289   2.769   8.141  0.8110 -0.2300  0.1051
   94SAPS   C33 9294   1.546   2.367   6.494 -0.9034 -0.4541  0.2219
   94SAPS   H3X 9295   1.588   2.276   6.543  0.3789 -0.0292 -0.0745
   94SAPS   H3Y 9296   1.447   2.341   6.449 -1.9906 -0.1177  2.2899
   94SAPS   C34 9297   1.507   2.464   6.603 -0.2132  0.1229  0.5137
   94SAPS   H4X 9298   1.465   2.553   6.552 -0.1370  0.6148  1.2910
   94SAPS   H4Y 9299   1.591   2.491   6.670  0.6735 -2.9585  0.8246
   94SAPS   C35 9300   1.407   2.410   6.702  0.6572 -0.4016  0.3277
   94SAPS   H5X 9301   1.421   2.300   6.701  0.3902 -0.4414  0.6860
   94SAPS   H5Y 9302   1.309   2.434   6.656  0.1489 -0.8673  1.1502
   94SAPS   C36 9303   1.431   2.482   6.836 -0.3517 -0.6734 -0.2372
   94SAPS   H6X 9304   1.425   2.591   6.818 -0.5507 -0.6062  0.2260
   94SAPS   H6Y 9305   1.532   2.461   6.876 -0.0083 -1.3057 -1.3685
   94SAPS   C37 9306   1.322   2.460   6.937 -0.5815 -0.1153 -0.9744
   94SAPS   H7X 9307   1.331   2.356   6.975  1.1194 -1.0819 -3.6669
   94SAPS   H7Y 9308   1.223   2.470   6.888 -1.6940  0.9232  1.3332
   94SAPS   C38 9309   1.325   2.561   7.055  0.2051  0.1782 -0.2599
   94SAPS   H8X 9310   1.302   2.665   7.023  0.2613  1.0753  2.3253
   94SAPS   H8Y 9311   1.430   2.561   7.093 -0.6078 -4.4039  2.7915
   94SAPS   C39 9312   1.230   2.514   7.165  0.2240 -0.4883 -0.3535
   94SAPS   H9X 9313   1.253   2.414   7.206  2.0393  0.5911  1.4537
   94SAPS   H9Y 9314   1.125   2.517   7.129  1.0751 -0.8811 -3.0861
   94SAPS  C310 9315   1.238   2.609   7.288 -0.0291  0.2132  0.6110
   94SAPS  H10X 9316   1.259   2.709   7.245 -0.4469  1.5384  3.3382
   94SAPS  H10Y 9317   1.327   2.568   7.342 -2.2082 -2.4163  2.4997
   94SAPS  C311 9318   1.119   2.593   7.378  0.2328 -0.0944  0.4309
   94SAPS  H11X 9319   1.093   2.486   7.386 -1.9004  0.4463  1.2705
   94SAPS  H11Y 9320   1.033   2.634   7.321 -0.2888  1.8231  2.4791
   94SAPS  C312 9321   1.116   2.667   7.504 -0.4124  0.2282 -0.7302
   94SAPS  H12X 9322   1.118   2.773   7.472 -0.8657  0.8391  1.1325
   94SAPS  H12Y 9323   1.211   2.658   7.562  0.2101 -1.0472 -1.8916
   94SAPS  C313 9324   0.989   2.630   7.578 -0.7804 -0.2757 -0.5442
   94SAPS  H13X 9325   0.919   2.578   7.510  0.3269 -3.0150  0.2626
   94SAPS  H13Y 9326   0.936   2.720   7.615  2.1997  1.2956  0.1896
   94SAPS  C314 9327   1.015   2.554   7.701 -0.2344 -0.0319 -0.0426
   94SAPS  H14X 9328   0.933   2.556   7.777 -0.7049 -0.1077 -0.5425
   94SAPS  H14Y 9329   1.109   2.597   7.741 -0.0480  0.1982 -0.7168
   94SAPS  C315 9330   1.063   2.409   7.673  0.8869 -0.8468  0.0666
   94SAPS  H15X 9331   1.154   2.412   7.609  1.0182  0.8613  0.3023
   94SAPS  H15Y 9332   0.994   2.351   7.608  1.0449 -1.3224  0.3191
   94SAPS  C316 9333   1.083   2.325   7.799  0.4402  0.2321 -0.0932
   94SAPS  H16X 9334   1.086   2.220   7.765 -0.7150  0.3539 -0.6097
   94SAPS  H16Y 9335   0.998   2.348   7.867  1.5032  2.3209  0.6214
   94SAPS  C317 9336   1.212   2.360   7.872  0.2205 -0.3345 -0.6551
   94SAPS  H17X 9337   1.213   2.466   7.907 -1.8362 -0.3771 -0.3442
   94SAPS  H17Y 9338   1.293   2.345   7.797  1.8553 -0.1258  0.9858
   94SAPS  C318 9339   1.236   2.283   8.004 -0.2701 -0.0615  1.0681
   94SAPS  H18X 9340   1.148   2.294   8.071 -0.5660 -0.8918  0.8344
   94SAPS  H18Y 9341   1.329   2.321   8.050 -1.1706  1.1223  1.9888
   94SAPS  H18Z 9342   1.252   2.175   7.985  1.4757  0.3690 -0.2025
   95SAPS     N 9343   3.156   6.690   5.967  0.3447  0.9547  0.4921
   95SAPS   HN1 9344   3.062   6.668   6.004 -0.1466  1.8916 -0.1511
   95SAPS   HN2 9345   3.202   6.768   6.018 -0.3731  1.6282  0.1379
   95SAPS   HN3 9346   3.141   6.726   5.870 -1.1959  1.5531  0.9197
   95SAPS   C12 9347   3.250   6.571   5.968 -0.2717 -0.1100 -0.4480
   95SAPS  H12A 9348   3.206   6.493   5.908 -2.7813  0.5530  0.4434
   95SAPS   C13 9349   3.396   6.595   5.920  0.3047  0.0794 -0.0539
   95SAPS  O13A 9350   3.444   6.709   5.899  0.0585 -0.1395 -0.0779
   95SAPS  O13B 9351   3.467   6.495   5.915 -0.8336  0.7061 -0.6287
   95SAPS   C11 9352   3.237   6.515   6.117 -0.2667 -0.6221  0.2322
   95SAPS  H11A 9353   3.263   6.605   6.177  0.4566 -0.0113 -0.9488
   95SAPS  H11B 9354   3.313   6.435   6.133 -3.4976 -3.6994  1.5157
   95SAPS     P 9355   3.078   6.398   6.288  0.1385 -0.0840  0.2148
   95SAPS   O13 9356   2.925   6.392   6.308  0.3038  0.0029 -0.1426
   95SAPS   O14 9357   3.157   6.269   6.285  0.4112 -0.2523  0.3868
   95SAPS   O12 9358   3.106   6.473   6.150 -0.6316 -0.2130  0.2002
   95SAPS   O11 9359   3.146   6.495   6.397  0.6160 -0.4638  0.7600
   95SAPS    C1 9360   3.095   6.625   6.426  0.9116 -0.4357 -0.0392
   95SAPS    HA 9361   3.174   6.702   6.415  1.2131 -0.4256  1.8982
   95SAPS    HB 9362   3.008   6.639   6.358  1.7672 -1.2213 -1.3508
   95SAPS    C2 9363   3.038   6.633   6.576 -0.2533 -0.2326 -0.5406
   95SAPS    HS 9364   3.005   6.738   6.588 -1.2312 -0.4483 -1.1698
   95SAPS   O21 9365   3.138   6.599   6.674 -0.4491  0.2021  0.1454
   95SAPS   C21 9366   3.154   6.683   6.777 -0.1966  0.1025 -0.3320
   95SAPS   O22 9367   3.093   6.788   6.795  0.1407 -0.7439 -0.3207
   95SAPS   C22 9368   3.272   6.639   6.855 -0.4462 -0.6474  0.1322
   95SAPS   H2R 9369   3.276   6.529   6.839 -1.1290 -0.3968 -2.1403
   95SAPS   H2S 9370   3.372   6.675   6.822 -0.5023  0.1863  0.8198
   95SAPS    C3 9371   2.904   6.538   6.591 -0.2670 -0.0690  0.3078
   95SAPS    HX 9372   2.929   6.435   6.557  1.7824  0.0524  1.2868
   95SAPS    HY 9373   2.835   6.588   6.520  1.2199  4.0606  1.4869
   95SAPS   O31 9374   2.839   6.540   6.719  0.3998  0.3449 -0.5473
   95SAPS   C31 9375   2.891   6.455   6.809  0.5546  0.0224 -0.4005
   95SAPS   O32 9376   2.985   6.383   6.793  0.4605 -0.2324  0.3695
   95SAPS   C32 9377   2.816   6.476   6.944  0.2773 -0.9598  0.0474
   95SAPS   H2X 9378   2.716   6.429   6.944  0.6268 -1.7220  0.4447
   95SAPS   H2Y 9379   2.808   6.587   6.953  1.1595 -1.0691  3.1949
   95SAPS   C23 9380   3.261   6.676   7.007  0.1490 -0.8493  0.1563
   95SAPS   H3R 9381   3.165   6.637   7.046 -0.5009  0.8414  0.3315
   95SAPS   H3S 9382   3.259   6.786   7.025  2.2370 -0.8724  0.8439
   95SAPS   C24 9383   3.374   6.614   7.103  0.0920  0.0459 -0.2303
   95SAPS   H4R 9384   3.385   6.680   7.192 -1.8479 -1.1984  0.9982
   95SAPS   H4S 9385   3.472   6.627   7.051 -0.2389  0.0715 -0.8456
   95SAPS   C25 9386   3.372   6.475   7.137  0.2310  0.4099 -0.0637
   95SAPS   H5R 9387   3.359   6.407   7.051 -0.8120  0.1454  0.2913
   95SAPS   C26 9388   3.358   6.409   7.256 -0.1787  0.2245  0.0838
   95SAPS   H6R 9389   3.367   6.299   7.263  0.4940  0.2299 -0.5744
   95SAPS   C27 9390   3.348   6.490   7.388 -0.0775  0.5830 -0.1483
   95SAPS   H7R 9391   3.316   6.595   7.368 -0.8403  0.3950  0.0475
   95SAPS   H7S 9392   3.451   6.480   7.428 -0.5307 -2.0492  0.5447
   95SAPS   C28 9393   3.244   6.426   7.476  0.0315  0.0530  0.2199
   95SAPS   H8R 9394   3.157   6.382   7.424 -0.0499 -1.5486  1.6327
   95SAPS   C29 9395   3.220   6.428   7.605 -0.1754  0.4452  0.0996
   95SAPS   H9R 9396   3.142   6.363   7.648  2.1340 -0.8276  2.6266
   95SAPS  C210 9397   3.297   6.504   7.703 -0.4491 -0.8952 -0.6144
   95SAPS  H10R 9398   3.232   6.587   7.738  0.2603  0.3479 -2.1150
   95SAPS  H10S 9399   3.384   6.551   7.653 -2.2834  0.6885 -2.5166
   95SAPS  C211 9400   3.352   6.423   7.815 -0.3827  0.2068 -0.6873
   95SAPS  H11R 9401   3.432   6.356   7.782 -0.5221 -0.4066  0.1839
   95SAPS  C212 9402   3.297   6.413   7.941  0.0322  0.3159  0.5849
   95SAPS  H12R 9403   3.355   6.355   8.014  0.2756 -0.7179 -0.3854
   95SAPS  C213 9404   3.172   6.477   7.998 -0.6790  0.2724  0.2916
   95SAPS  H13R 9405   3.134   6.412   8.079  1.3496 -2.8340 -1.0490
   95SAPS  H13S 9406   3.096   6.481   7.917  1.6627 -2.1378 -2.2508
   95SAPS  C214 9407   3.213   6.609   8.033  0.3435 -0.8421  0.2880
   95SAPS  H14R 9408   3.200   6.678   7.949 -0.0118 -0.5869  0.5524
   95SAPS  C215 9409   3.250   6.652   8.152 -0.0579  0.4434 -0.5648
   95SAPS  H15R 9410   3.269   6.760   8.161  1.0254  0.3687 -1.6135
   95SAPS  C216 9411   3.267   6.574   8.278 -0.5464  0.3959 -0.3930
   95SAPS  H16R 9412   3.336   6.487   8.267  0.3379  1.0369 -0.0039
   95SAPS  H16S 9413   3.171   6.529   8.314  0.2737 -0.8332  0.3441
   95SAPS  C217 9414   3.318   6.666   8.400  0.0871  0.5696  0.4565
   95SAPS  H17R 9415   3.244   6.749   8.392 -0.2661  0.4020  1.6963
   95SAPS  H17S 9416   3.417   6.702   8.367 -0.0596 -0.8828 -1.8020
   95SAPS  C218 9417   3.325   6.591   8.532  0.2745 -0.5613  0.6864
   95SAPS  H18R 9418   3.236   6.524   8.541  0.0189 -0.6387 -1.8210
   95SAPS  H18S 9419   3.343   6.659   8.618  1.7074 -2.9207  2.3582
   95SAPS  C219 9420   3.453   6.507   8.553 -0.0058 -0.4201 -0.5476
   95SAPS  H19R 9421   3.542   6.568   8.527 -0.4695 -0.2171 -1.7207
   95SAPS  H19S 9422   3.443   6.418   8.488  0.6782  0.4552 -1.8983
   95SAPS  C220 9423   3.461   6.464   8.701  0.3156 -0.4538  0.1149
   95SAPS  H20R 9424   3.556   6.409   8.718 -0.0984 -1.4344 -0.6443
   95SAPS  H20S 9425   3.376   6.398   8.729  0.4317 -0.6633 -0.0212
   95SAPS  H20T 9426   3.474   6.557   8.761  0.4531 -0.5942  0.3041
   95SAPS   C33 9427   2.900   6.431   7.065 -0.3080 -0.4827 -0.1769
   95SAPS   H3X 9428   3.001   6.477   7.075 -0.2808 -0.1127 -1.8429
   95SAPS   H3Y 9429   2.927   6.323   7.059 -1.2697 -0.7292 -0.1479
   95SAPS   C34 9430   2.815   6.449   7.189  0.4119 -0.9026 -0.4576
   95SAPS   H4X 9431   2.716   6.399   7.182  0.5980 -1.0791 -2.3068
   95SAPS   H4Y 9432   2.801   6.557   7.207 -0.7386 -1.0232 -0.5818
   95SAPS   C35 9433   2.877   6.385   7.320 -0.1334 -0.9280 -0.2905
   95SAPS   H5X 9434   2.980   6.427   7.314 -0.1760 -0.8655 -0.6103
   95SAPS   H5Y 9435   2.895   6.276   7.303 -1.7606 -1.5402  1.5961
   95SAPS   C36 9436   2.819   6.417   7.457 -0.1730  0.6724  0.1833
   95SAPS   H6X 9437   2.787   6.524   7.457  1.9958  1.3612  0.3149
   95SAPS   H6Y 9438   2.899   6.401   7.532 -1.8108 -2.0674  1.4923
   95SAPS   C37 9439   2.716   6.319   7.505  0.0294  0.2506 -0.1977
   95SAPS   H7X 9440   2.766   6.223   7.530 -0.5247  0.1459  0.5373
   95SAPS   H7Y 9441   2.651   6.305   7.416  0.3863 -0.6748 -0.3276
   95SAPS   C38 9442   2.640   6.346   7.635  0.1771 -0.0606 -0.1979
   95SAPS   H8X 9443   2.572   6.260   7.652  2.8041 -1.8772  2.1466
   95SAPS   H8Y 9444   2.582   6.440   7.622  0.0176 -0.4085 -2.2960
   95SAPS   C39 9445   2.740   6.354   7.754 -0.4749 -0.1914 -0.4163
   95SAPS   H9X 9446   2.803   6.444   7.738  0.3562 -0.9561 -1.6516
   95SAPS   H9Y 9447   2.821   6.278   7.753  1.9872  2.2808 -0.3791
   95SAPS  C310 9448   2.672   6.364   7.895  0.1898  0.1460  0.1964
   95SAPS  H10X 9449   2.588   6.436   7.886  0.4353  0.4067 -0.0855
   95SAPS  H10Y 9450   2.760   6.398   7.954  2.9221 -2.2760 -2.1679
   95SAPS  C311 9451   2.626   6.233   7.950 -0.2243  0.2214  0.0549
   95SAPS  H11X 9452   2.704   6.154   7.940  0.7203  0.8445  2.0619
   95SAPS  H11Y 9453   2.534   6.205   7.893  0.9769 -0.8857 -1.4196
   95SAPS  C312 9454   2.601   6.251   8.099  1.0460 -0.2545  0.0292
   95SAPS  H12X 9455   2.537   6.341   8.107  0.1617 -0.7473 -1.3350
   95SAPS  H12Y 9456   2.697   6.272   8.152  0.6967 -1.9960  1.4748
   95SAPS  C313 9457   2.520   6.138   8.167  0.2478 -0.0698 -0.6639
   95SAPS  H13X 9458   2.566   6.045   8.127  0.1313  0.4184 -1.9831
   95SAPS  H13Y 9459   2.415   6.131   8.133 -0.6082  0.7789  1.6467
   95SAPS  C314 9460   2.520   6.152   8.318  0.1646 -0.0501  0.3543
   95SAPS  H14X 9461   2.478   6.250   8.348 -0.1680 -0.9793  3.2608
   95SAPS  H14Y 9462   2.627   6.154   8.347 -0.0670 -1.8571  1.4994
   95SAPS  C315 9463   2.466   6.026   8.389  0.0979 -0.1822 -0.3190
   95SAPS  H15X 9464   2.502   5.935   8.337 -1.9825 -1.0321 -0.3727
   95SAPS  H15Y 9465   2.356   6.040   8.384  0.2988  1.3734 -0.8494
   95SAPS  C316 9466   2.498   6.027   8.538  0.3608 -0.4729 -0.1114
   95SAPS  H16X 9467   2.604   6.060   8.542 -0.1256  1.1925 -0.1344
   95SAPS  H16Y 9468   2.478   5.925   8.577 -1.9252 -0.2001 -0.4479
   95SAPS  C317 9469   2.412   6.136   8.618 -0.0435 -0.0193  0.1074
   95SAPS  H17X 9470   2.309   6.140   8.576  1.1053 -1.7859 -3.2825
   95SAPS  H17Y 9471   2.450   6.237   8.593 -0.6552  0.1052 -0.3623
   95SAPS  C318 9472   2.416   6.121   8.772 -0.3673 -0.2126  0.2580
   95SAPS  H18X 9473   2.356   6.030   8.793 -1.3399  0.5298  0.7596
   95SAPS  H18Y 9474   2.351   6.199   8.818  1.7542  0.5852  2.0771
   95SAPS  H18Z 9475   2.519   6.124   8.815 -1.2609  1.6104  2.5062
   96SAPS     N 9476   3.780   1.674   6.355 -0.1596  0.1608 -0.3771
   96SAPS   HN1 9477   3.757   1.707   6.451 -0.4588 -2.2005  0.4362
   96SAPS   HN2 9478   3.697   1.648   6.297  1.0838 -3.4765 -0.7718
   96SAPS   HN3 9479   3.826   1.583   6.373 -0.7728  0.2985  2.2123
   96SAPS   C12 9480   3.864   1.772   6.292 -0.5823 -0.0694  1.0749
   96SAPS  H12A 9481   3.952   1.777   6.354  1.4430 -0.3860 -1.5603
   96SAPS   C13 9482   3.909   1.750   6.150  0.0818 -0.1444 -0.8788
   96SAPS  O13A 9483   3.881   1.640   6.088 -0.5230  0.0504 -0.2820
   96SAPS  O13B 9484   4.000   1.825   6.107 -0.4611  0.2741 -0.2118
   96SAPS   C11 9485   3.794   1.913   6.312 -0.7302  0.4985  0.0246
   96SAPS  H11A 9486   3.701   1.910   6.250 -0.5348  0.0364 -0.2559
   96SAPS  H11B 9487   3.853   1.998   6.274  0.0543 -0.0281  0.0502
   96SAPS     P 9488   3.677   2.075   6.484 -0.3789  0.0254 -0.3357
   96SAPS   O13 9489   3.680   2.167   6.375 -0.1097 -0.4569  0.1355
   96SAPS   O14 9490   3.544   2.047   6.537  0.4888  0.0689 -0.0740
   96SAPS   O12 9491   3.746   1.932   6.451  0.1312 -0.3628  0.1679
   96SAPS   O11 9492   3.774   2.126   6.598  0.0958 -0.6795 -0.2127
   96SAPS    C1 9493   3.884   2.052   6.650 -0.0069 -0.0782  0.1285
   96SAPS    HA 9494   3.948   2.014   6.567 -1.3293 -0.9582 -0.5198
   96SAPS    HB 9495   3.956   2.114   6.707 -0.8621 -0.2231  1.4129
   96SAPS    C2 9496   3.842   1.929   6.741  0.8314 -0.0698  0.2973
   96SAPS    HS 9497   3.797   1.849   6.678  0.9926 -0.9694  1.2947
   96SAPS   O21 9498   3.735   1.979   6.829  0.0420 -0.4315 -0.3634
   96SAPS   C21 9499   3.684   1.884   6.916  0.1043  0.2780  0.1392
   96SAPS   O22 9500   3.698   1.764   6.891  0.4234 -0.4846 -0.5376
   96SAPS   C22 9501   3.591   1.950   7.025 -0.6544 -0.0847  0.6302
   96SAPS   H2R 9502   3.661   2.017   7.079 -1.6661  1.1679  0.4415
   96SAPS   H2S 9503   3.516   2.004   6.963  2.0204 -0.9710 -3.8452
   96SAPS    C3 9504   3.967   1.873   6.816  0.0296 -0.4073  0.6958
   96SAPS    HX 9505   4.045   1.831   6.749 -0.9026 -2.3438  0.7604
   96SAPS    HY 9506   3.940   1.788   6.882  1.4070 -2.4887 -1.2846
   96SAPS   O31 9507   4.039   1.980   6.884  0.5531 -0.0909 -0.5690
   96SAPS   C31 9508   3.996   2.015   7.004 -0.3886  0.2854  0.2335
   96SAPS   O32 9509   3.913   1.961   7.074 -0.3584 -0.7140  0.5237
   96SAPS   C32 9510   4.070   2.150   7.033  0.4258  0.5251  0.0161
   96SAPS   H2X 9511   4.050   2.226   6.954  0.3883 -0.3092 -0.7951
   96SAPS   H2Y 9512   4.176   2.116   7.031  0.5761  0.8641  1.3817
   96SAPS   C23 9513   3.535   1.841   7.122 -0.0326  0.2473  0.0545
   96SAPS   H3R 9514   3.615   1.776   7.163  2.8476  2.0716 -2.2303
   96SAPS   H3S 9515   3.466   1.776   7.064 -0.2921 -1.3671  2.0752
   96SAPS   C24 9516   3.445   1.900   7.233  0.6869  0.0010 -0.5060
   96SAPS   H4R 9517   3.505   1.981   7.279  0.6573 -0.4988  0.4544
   96SAPS   H4S 9518   3.440   1.827   7.317  0.7123  1.7016  1.0472
   96SAPS   C25 9519   3.307   1.945   7.199 -0.6756  0.7797  0.3719
   96SAPS   H5R 9520   3.307   2.038   7.141  2.9650  1.0315  0.5623
   96SAPS   C26 9521   3.190   1.887   7.230  0.6753  0.0515 -0.4232
   96SAPS   H6R 9522   3.103   1.937   7.185 -0.6531 -2.0036 -0.2819
   96SAPS   C27 9523   3.162   1.766   7.311 -0.3033 -0.4019  0.6254
   96SAPS   H7R 9524   3.076   1.789   7.378 -0.6641  0.4700 -0.1185
   96SAPS   H7S 9525   3.241   1.740   7.385 -1.5579 -3.6737  1.0132
   96SAPS   C28 9526   3.154   1.645   7.221  0.0626  0.0899  0.2978
   96SAPS   H8R 9527   3.225   1.631   7.138 -0.3535 -0.1786 -0.0195
   96SAPS   C29 9528   3.071   1.543   7.244 -0.4795  0.0282 -0.2266
   96SAPS   H9R 9529   3.074   1.464   7.167  0.1259  0.9391 -1.1706
   96SAPS  C210 9530   2.971   1.531   7.356  0.1505 -0.0388  0.6656
   96SAPS  H10R 9531   2.965   1.630   7.408  0.8929  1.0889 -1.2795
   96SAPS  H10S 9532   3.030   1.468   7.426  1.6529  0.4521 -0.1217
   96SAPS  C211 9533   2.843   1.474   7.316 -0.8643 -0.2370 -0.4000
   96SAPS  H11R 9534   2.831   1.425   7.218  0.1314 -1.9423  0.2660
   96SAPS  C212 9535   2.738   1.477   7.393 -0.2682  0.3921 -0.5818
   96SAPS  H12R 9536   2.649   1.415   7.372  0.7595 -1.6610  0.7905
   96SAPS  C213 9537   2.738   1.535   7.534 -0.0176 -0.3078  0.5460
   96SAPS  H13R 9538   2.834   1.569   7.577 -0.6841  1.1169  0.9825
   96SAPS  H13S 9539   2.708   1.465   7.615  1.2040  0.5955  1.8311
   96SAPS  C214 9540   2.645   1.650   7.547 -0.1379 -0.3306 -0.5838
   96SAPS  H14R 9541   2.551   1.650   7.489 -0.2002  0.8182 -0.4960
   96SAPS  C215 9542   2.652   1.755   7.634 -0.1622  0.2452 -0.2556
   96SAPS  H15R 9543   2.571   1.829   7.628 -1.2021 -0.4858  2.7892
   96SAPS  C216 9544   2.766   1.771   7.730  0.2383  0.5857 -0.4073
   96SAPS  H16R 9545   2.788   1.672   7.774  2.8287  1.7455  1.1988
   96SAPS  H16S 9546   2.729   1.843   7.807  0.0621  0.9832 -0.8609
   96SAPS  C217 9547   2.900   1.838   7.682 -0.0409 -0.3710  0.5295
   96SAPS  H17R 9548   2.889   1.948   7.673  3.8307  0.1016 -0.3171
   96SAPS  H17S 9549   2.926   1.792   7.584  1.3613 -0.6107  0.9856
   96SAPS  C218 9550   3.018   1.831   7.775  0.0006  0.2317  0.2159
   96SAPS  H18R 9551   3.033   1.727   7.811 -0.3038 -0.2138 -0.9037
   96SAPS  H18S 9552   3.005   1.899   7.862  0.0066  3.2457 -1.9794
   96SAPS  C219 9553   3.154   1.861   7.704 -0.2105  0.0543 -0.2515
   96SAPS  H19R 9554   3.150   1.971   7.686  1.9900 -0.1167 -2.2521
   96SAPS  H19S 9555   3.154   1.815   7.603  4.9875  0.8645 -0.9015
   96SAPS  C220 9556   3.282   1.835   7.773  0.3974  0.0274 -0.0472
   96SAPS  H20R 9557   3.291   1.895   7.866 -0.0585  1.1273 -0.7014
   96SAPS  H20S 9558   3.371   1.855   7.709 -0.5307 -1.1680 -1.7949
   96SAPS  H20T 9559   3.288   1.728   7.804  0.0688 -0.4078 -1.4119
   96SAPS   C33 9560   4.048   2.203   7.180 -0.3366  0.3056  0.4448
   96SAPS   H3X 9561   3.945   2.241   7.198  0.1505  1.6713  0.4734
   96SAPS   H3Y 9562   4.106   2.297   7.191 -1.0515  0.7718  0.3419
   96SAPS   C34 9563   4.089   2.109   7.292  0.1696  1.3469 -0.1850
   96SAPS   H4X 9564   4.198   2.086   7.286 -0.3356 -3.5506  3.3357
   96SAPS   H4Y 9565   4.026   2.019   7.277 -2.5041  2.9801  0.6225
   96SAPS   C35 9566   4.049   2.161   7.431  0.0478 -0.7860  0.0066
   96SAPS   H5X 9567   3.939   2.167   7.443  0.0052 -1.5608  0.0235
   96SAPS   H5Y 9568   4.084   2.267   7.436  0.7697 -1.0375  0.4587
   96SAPS   C36 9569   4.117   2.082   7.543  0.2780  1.0399  0.1470
   96SAPS   H6X 9570   4.228   2.081   7.537  0.4145 -1.1914  2.0532
   96SAPS   H6Y 9571   4.094   1.974   7.537  0.2313  0.9538  1.5578
   96SAPS   C37 9572   4.083   2.122   7.675 -0.2789  0.1372 -0.0667
   96SAPS   H7X 9573   3.975   2.132   7.701  0.2225  1.4277  1.6423
   96SAPS   H7Y 9574   4.126   2.224   7.684 -1.9618  1.0098 -1.2482
   96SAPS   C38 9575   4.147   2.045   7.788 -0.1078  0.5445  0.2167
   96SAPS   H8X 9576   4.257   2.058   7.777  0.0121 -0.1518  0.5311
   96SAPS   H8Y 9577   4.130   1.936   7.775 -0.1237  0.3464  1.8039
   96SAPS   C39 9578   4.115   2.093   7.928  0.2723  0.1450 -1.0247
   96SAPS   H9X 9579   4.008   2.070   7.942  0.2634 -0.1997 -1.6441
   96SAPS   H9Y 9580   4.146   2.199   7.945  2.1083 -0.7263  1.6565
   96SAPS  C310 9581   4.183   2.010   8.037 -1.2878  0.0447  0.3154
   96SAPS  H10X 9582   4.291   2.036   8.030 -0.7145 -0.9733  3.6229
   96SAPS  H10Y 9583   4.170   1.902   8.016 -1.8813 -0.1394  1.5614
   96SAPS  C311 9584   4.140   2.044   8.177 -0.1741  0.6934 -0.6727
   96SAPS  H11X 9585   4.171   1.951   8.230  2.4772 -0.3330 -3.6853
   96SAPS  H11Y 9586   4.031   2.065   8.180 -0.2492  0.2265  1.9502
   96SAPS  C312 9587   4.225   2.157   8.235 -0.9752  0.4150 -0.4722
   96SAPS  H12X 9588   4.227   2.237   8.158  0.6923 -0.7796 -1.7484
   96SAPS  H12Y 9589   4.327   2.117   8.253 -1.7453 -2.5261 -2.1217
   96SAPS  C313 9590   4.175   2.209   8.373  0.2815 -0.0985  0.5183
   96SAPS  H13X 9591   4.191   2.123   8.443 -0.3116  1.6136  2.8854
   96SAPS  H13Y 9592   4.066   2.229   8.379 -0.0192 -1.8083  1.6441
   96SAPS  C314 9593   4.256   2.327   8.434  0.5671  0.1969  0.0857
   96SAPS  H14X 9594   4.188   2.380   8.504 -0.2653  0.2577 -0.7396
   96SAPS  H14Y 9595   4.287   2.400   8.356  0.3958 -1.1884 -1.3532
   96SAPS  C315 9596   4.380   2.287   8.505 -0.2208 -0.1410 -0.0635
   96SAPS  H15X 9597   4.431   2.208   8.447  0.0108 -0.5589  0.6988
   96SAPS  H15Y 9598   4.359   2.242   8.604  0.3698 -0.1983  0.0365
   96SAPS  C316 9599   4.471   2.410   8.532 -0.4446  0.2030 -0.3482
   96SAPS  H16X 9600   4.416   2.494   8.578 -1.6623  0.1169 -1.5855
   96SAPS  H16Y 9601   4.515   2.449   8.437  1.3598  0.2334  0.4441
   96SAPS  C317 9602   4.586   2.372   8.634  0.3918  0.5191 -0.0330
   96SAPS  H17X 9603   4.624   2.273   8.601 -1.1184  0.5241 -1.9731
   96SAPS  H17Y 9604   4.533   2.333   8.723 -0.6521  0.1595 -0.7863
   96SAPS  C318 9605   4.694   2.479   8.665  0.1520  0.3641  0.2980
   96SAPS  H18X 9606   4.780   2.463   8.596  1.1444  0.4145  1.4918
   96SAPS  H18Y 9607   4.733   2.455   8.766 -1.5223  1.0198  1.1275
   96SAPS  H18Z 9608   4.666   2.586   8.660 -2.0326 -0.1974 -1.1257
   97SAPS     N 9609   5.666   6.368   6.168 -0.3961 -0.0741 -0.3957
   97SAPS   HN1 9610   5.678   6.265   6.179  0.0558  0.1460  1.3774
   97SAPS   HN2 9611   5.567   6.393   6.149 -0.6503 -0.1732  0.7567
   97SAPS   HN3 9612   5.727   6.401   6.090 -0.6722 -1.6795 -1.3567
   97SAPS   C12 9613   5.710   6.435   6.293  0.0795  0.0056 -0.1572
   97SAPS  H12A 9614   5.818   6.430   6.287  0.1909  2.7978 -3.4233
   97SAPS   C13 9615   5.676   6.586   6.303 -0.0514  0.0623  0.0902
   97SAPS  O13A 9616   5.608   6.649   6.218  0.0845 -0.3094 -0.0716
   97SAPS  O13B 9617   5.721   6.641   6.409 -0.0591 -0.5391  0.4867
   97SAPS   C11 9618   5.656   6.354   6.419  0.0958  0.4177 -0.2422
   97SAPS  H11A 9619   5.700   6.409   6.506  1.8638  3.5409 -2.8767
   97SAPS  H11B 9620   5.701   6.253   6.407 -0.3336  0.3437 -1.3052
   97SAPS     P 9621   5.437   6.390   6.558  0.3780 -0.3769 -0.1770
   97SAPS   O13 9622   5.488   6.517   6.624  0.0103 -0.3329  0.4533
   97SAPS   O14 9623   5.286   6.384   6.541  0.4164  0.0493  0.0922
   97SAPS   O12 9624   5.518   6.346   6.426 -1.0138 -0.5090 -0.7898
   97SAPS   O11 9625   5.472   6.272   6.654  0.1128  0.1185 -0.4786
   97SAPS    C1 9626   5.453   6.137   6.605  0.2360  1.0754 -0.1046
   97SAPS    HA 9627   5.396   6.135   6.510 -0.5238  1.3768  0.3395
   97SAPS    HB 9628   5.551   6.087   6.589  0.2707  1.4478 -1.1460
   97SAPS    C2 9629   5.373   6.072   6.725  0.1563 -0.2188 -0.0362
   97SAPS    HS 9630   5.268   6.108   6.724 -0.0705 -0.8735 -0.5788
   97SAPS   O21 9631   5.439   6.084   6.852  0.6168  0.6134  0.0457
   97SAPS   C21 9632   5.390   6.190   6.926  0.2727 -0.3197  0.1011
   97SAPS   O22 9633   5.295   6.257   6.899 -0.5070 -0.1486 -0.4661
   97SAPS   C22 9634   5.486   6.209   7.051 -0.4409 -0.1813 -0.0055
   97SAPS   H2R 9635   5.448   6.157   7.141 -0.7762 -0.3273 -0.2259
   97SAPS   H2S 9636   5.576   6.152   7.022 -0.3332 -0.6061  1.1167
   97SAPS    C3 9637   5.362   5.920   6.694  0.0039  0.3158 -0.4781
   97SAPS    HX 9638   5.464   5.875   6.701 -1.2409 -2.5237  0.8934
   97SAPS    HY 9639   5.322   5.911   6.590  0.1320 -2.6295 -0.3576
   97SAPS   O31 9640   5.280   5.842   6.793  0.1530 -0.5341  0.8636
   97SAPS   C31 9641   5.155   5.829   6.753 -0.5994 -1.0862 -0.6165
   97SAPS   O32 9642   5.107   5.884   6.657  0.3088 -0.1104 -0.4899
   97SAPS   C32 9643   5.077   5.724   6.841  0.0041 -0.0679 -0.2422
   97SAPS   H2X 9644   5.149   5.641   6.853 -0.4286 -0.0251  4.1901
   97SAPS   H2Y 9645   4.988   5.698   6.780 -0.2448  0.9631 -0.3337
   97SAPS   C23 9646   5.519   6.353   7.087  0.2391  0.5596 -0.0871
   97SAPS   H3R 9647   5.581   6.347   7.179 -0.7045 -0.6264  0.5018
   97SAPS   H3S 9648   5.421   6.402   7.110  0.7803  1.0967  1.1790
   97SAPS   C24 9649   5.590   6.431   6.977  0.4074 -0.2190  0.3743
   97SAPS   H4R 9650   5.578   6.541   6.982 -0.6805 -0.2307 -1.2141
   97SAPS   H4S 9651   5.533   6.416   6.883  1.4483  0.1437 -0.3251
   97SAPS   C25 9652   5.728   6.376   6.946 -0.6724 -0.1351 -0.7503
   97SAPS   H5R 9653   5.731   6.300   6.866  0.8150 -1.2344  0.2944
   97SAPS   C26 9654   5.845   6.401   7.008  0.2639 -0.3250  0.0269
   97SAPS   H6R 9655   5.933   6.342   6.977 -1.1193 -1.8525 -1.1475
   97SAPS   C27 9656   5.860   6.496   7.129  0.0211  0.5658 -0.0427
   97SAPS   H7R 9657   5.759   6.536   7.149  0.3136  2.0655 -1.3770
   97SAPS   H7S 9658   5.918   6.587   7.103 -0.6311  0.8785 -0.4356
   97SAPS   C28 9659   5.917   6.422   7.243 -0.0943  0.0714  0.2144
   97SAPS   H8R 9660   5.854   6.337   7.273  0.2488  0.0049  0.7438
   97SAPS   C29 9661   6.040   6.432   7.298  0.2658 -0.3421  0.8324
   97SAPS   H9R 9662   6.065   6.370   7.386  0.1575 -0.8852  0.4796
   97SAPS  C210 9663   6.145   6.536   7.255 -0.1514  0.9567 -0.1240
   97SAPS  H10R 9664   6.141   6.623   7.324  0.1708  0.3348  0.6873
   97SAPS  H10S 9665   6.120   6.573   7.153 -2.3416 -1.9198 -0.7838
   97SAPS  C211 9666   6.286   6.474   7.268 -0.0264 -0.1982 -0.2103
   97SAPS  H11R 9667   6.330   6.430   7.177 -0.3597  1.3024 -1.1169
   97SAPS  C212 9668   6.374   6.461   7.372 -0.4821 -0.3580  0.3818
   97SAPS  H12R 9669   6.466   6.403   7.362  0.2938  0.9358 -0.3110
   97SAPS  C213 9670   6.346   6.508   7.513 -0.5083 -0.0252  0.2383
   97SAPS  H13R 9671   6.267   6.586   7.512  0.5396  1.0646 -1.2273
   97SAPS  H13S 9672   6.436   6.563   7.549 -0.0511 -1.6141  1.6382
   97SAPS  C214 9673   6.320   6.403   7.614  0.6449  0.0812  0.2749
   97SAPS  H14R 9674   6.314   6.305   7.565  1.3971 -0.7590  1.8234
   97SAPS  C215 9675   6.326   6.415   7.746 -0.6856  0.0099 -0.3054
   97SAPS  H15R 9676   6.293   6.326   7.801  1.8131 -0.1575  1.0879
   97SAPS  C216 9677   6.356   6.539   7.828  0.3418  0.7257  0.4944
   97SAPS  H16R 9678   6.261   6.573   7.875 -1.0980 -0.2836 -1.5606
   97SAPS  H16S 9679   6.373   6.619   7.753  1.4668 -1.6083 -1.8833
   97SAPS  C217 9680   6.468   6.531   7.929 -0.5192 -0.7451  0.4344
   97SAPS  H17R 9681   6.560   6.496   7.878 -0.6767 -1.1573  0.4360
   97SAPS  H17S 9682   6.456   6.447   8.000  2.0263  0.0482  1.9268
   97SAPS  C218 9683   6.490   6.660   8.014 -0.5742  0.5600  0.5982
   97SAPS  H18R 9684   6.480   6.749   7.948  0.0203  1.2220  1.3843
   97SAPS  H18S 9685   6.596   6.661   8.044 -1.2050  1.9658  3.0134
   97SAPS  C219 9686   6.400   6.667   8.137  0.2775  0.0306  0.5417
   97SAPS  H19R 9687   6.429   6.582   8.203  1.4133  1.0015  1.3271
   97SAPS  H19S 9688   6.293   6.657   8.108  0.0942  1.9570  0.4438
   97SAPS  C220 9689   6.416   6.798   8.216  0.7234 -0.5767  0.1941
   97SAPS  H20R 9690   6.341   6.783   8.296 -1.0858  0.2847 -1.2520
   97SAPS  H20S 9691   6.388   6.884   8.151  0.9709 -0.0421  0.7789
   97SAPS  H20T 9692   6.516   6.815   8.261  0.3513 -1.2572  1.3074
   97SAPS   C33 9693   5.043   5.783   6.974 -0.1402  0.0378 -0.4870
   97SAPS   H3X 9694   4.981   5.875   6.968  0.3705  0.5259  1.1373
   97SAPS   H3Y 9695   5.135   5.817   7.028 -0.1877 -2.2112  1.1259
   97SAPS   C34 9696   4.974   5.674   7.061 -0.4491  0.1369  0.1157
   97SAPS   H4X 9697   5.042   5.587   7.053  0.1786  0.7722 -2.5401
   97SAPS   H4Y 9698   4.871   5.656   7.025 -0.0330 -0.1290 -0.9819
   97SAPS   C35 9699   4.955   5.721   7.214 -0.0588  0.2270 -0.4985
   97SAPS   H5X 9700   4.852   5.689   7.239  0.3232 -0.7819 -0.1907
   97SAPS   H5Y 9701   4.964   5.831   7.228  0.8434 -0.1831  3.1634
   97SAPS   C36 9702   5.044   5.638   7.308  0.3224 -0.2422 -0.5236
   97SAPS   H6X 9703   5.149   5.633   7.273  0.5482  1.1847 -0.0991
   97SAPS   H6Y 9704   4.997   5.537   7.307 -1.0523  0.3474  0.6671
   97SAPS   C37 9705   5.029   5.691   7.451 -0.2475 -0.0009 -0.0864
   97SAPS   H7X 9706   4.925   5.695   7.489 -0.2384 -0.9919  0.0660
   97SAPS   H7Y 9707   5.074   5.793   7.443  1.4792 -0.7770 -0.8194
   97SAPS   C38 9708   5.108   5.605   7.554  0.4158  0.5464 -0.4476
   97SAPS   H8X 9709   5.208   5.586   7.509 -0.7349 -0.5965 -2.7208
   97SAPS   H8Y 9710   5.069   5.501   7.555 -1.3054  1.1430 -1.3051
   97SAPS   C39 9711   5.115   5.664   7.696 -0.0579  0.2588 -0.2538
   97SAPS   H9X 9712   5.018   5.663   7.750  0.7072  1.5248  1.2166
   97SAPS   H9Y 9713   5.147   5.770   7.704  1.5495 -0.0970 -1.4705
   97SAPS  C310 9714   5.214   5.590   7.786 -0.1952 -0.7472 -0.0551
   97SAPS  H10X 9715   5.308   5.618   7.733 -1.9729  1.8871 -2.1040
   97SAPS  H10Y 9716   5.203   5.480   7.786  0.4463 -0.9189  3.1450
   97SAPS  C311 9717   5.223   5.629   7.931 -0.2743  0.1852 -0.2366
   97SAPS  H11X 9718   5.133   5.588   7.981 -0.9034 -1.3488 -2.4790
   97SAPS  H11Y 9719   5.223   5.736   7.960 -0.5918  0.0364  0.3171
   97SAPS  C312 9720   5.352   5.559   7.989 -0.4257 -0.1358 -0.4227
   97SAPS  H12X 9721   5.441   5.585   7.926 -0.2913 -0.7721 -0.5012
   97SAPS  H12Y 9722   5.332   5.452   7.969  0.4143  0.0649 -2.6503
   97SAPS  C313 9723   5.375   5.585   8.129  0.2553 -0.0115 -0.2565
   97SAPS  H13X 9724   5.422   5.685   8.137  1.2946 -0.4290 -1.0186
   97SAPS  H13Y 9725   5.451   5.518   8.173 -2.0652 -1.4473  1.8557
   97SAPS  C314 9726   5.254   5.562   8.219 -0.0166  0.0609  0.6280
   97SAPS  H14X 9727   5.218   5.458   8.202  1.8509 -0.4522 -0.5860
   97SAPS  H14Y 9728   5.171   5.632   8.200 -0.1993  0.3764  2.4090
   97SAPS  C315 9729   5.279   5.587   8.368  0.1797  0.1514  0.1480
   97SAPS  H15X 9730   5.314   5.691   8.382 -1.2353  0.5355  1.0885
   97SAPS  H15Y 9731   5.360   5.521   8.406 -0.6176 -0.8813  0.1090
   97SAPS  C316 9732   5.146   5.556   8.444  0.1884 -0.4201  0.0158
   97SAPS  H16X 9733   5.123   5.448   8.438 -1.5503 -0.0029 -1.5634
   97SAPS  H16Y 9734   5.071   5.612   8.386  0.0746  0.9866  1.4381
   97SAPS  C317 9735   5.152   5.603   8.592  0.0507  0.0985 -0.2476
   97SAPS  H17X 9736   5.045   5.617   8.618  0.1454  0.9504 -0.2800
   97SAPS  H17Y 9737   5.193   5.707   8.590 -1.0456  0.6105  1.5713
   97SAPS  C318 9738   5.224   5.512   8.682 -0.1302 -0.6135  0.4893
   97SAPS  H18X 9739   5.166   5.417   8.683 -1.0066 -0.1131 -0.4067
   97SAPS  H18Y 9740   5.237   5.567   8.778 -1.2952 -1.1531  0.9741
   97SAPS  H18Z 9741   5.323   5.493   8.636 -0.1802  0.4651 -0.1104
   98SAPS     N 9742   2.756   0.151   6.164  0.2891 -0.0752 -0.5228
   98SAPS   HN1 9743   2.733   0.251   6.148  2.6466  0.6193  0.0223
   98SAPS   HN2 9744   2.732   0.135   6.264  1.5448  0.7052 -0.0811
   98SAPS   HN3 9745   2.859   0.136   6.159  0.3815  0.7887 -1.5032
   98SAPS   C12 9746   2.700   0.058   6.052  0.1867 -0.0334 -0.2428
   98SAPS  H12A 9747   2.692   0.122   5.965 -2.3915 -1.5366 -1.2253
   98SAPS   C13 9748   2.789  -0.062   6.012  0.1717  0.5914 -0.3354
   98SAPS  O13A 9749   2.900  -0.077   6.069  0.0454 -0.2856 -0.3122
   98SAPS  O13B 9750   2.750  -0.132   5.915 -0.0339  0.2598 -0.2848
   98SAPS   C11 9751   2.554   0.015   6.088  0.3091 -0.5084 -0.0803
   98SAPS  H11A 9752   2.536  -0.052   6.175  1.3393  0.9158  1.3073
   98SAPS  H11B 9753   2.531  -0.040   5.995  1.2167  1.0568 -1.2836
   98SAPS     P 9754   2.324   0.125   6.137  0.4414  0.0443  0.0636
   98SAPS   O13 9755   2.285   0.263   6.183  0.0820 -0.6699 -0.1172
   98SAPS   O14 9756   2.248   0.061   6.025  0.1080  0.0798 -0.5092
   98SAPS   O12 9757   2.472   0.134   6.095  0.0269 -0.5245 -0.1424
   98SAPS   O11 9758   2.334   0.038   6.277 -0.1573 -0.0810  0.4993
   98SAPS    C1 9759   2.386   0.110   6.394  0.1999  1.2166  0.2685
   98SAPS    HA 9760   2.431   0.036   6.463  1.0310  1.6696  0.2398
   98SAPS    HB 9761   2.464   0.188   6.380 -1.0369  2.8038  1.8154
   98SAPS    C2 9762   2.274   0.167   6.482 -0.0955  0.2522  0.7024
   98SAPS    HS 9763   2.198   0.211   6.414 -2.5493 -3.3770  0.8487
   98SAPS   O21 9764   2.336   0.258   6.581  0.3725  1.0253 -0.4223
   98SAPS   C21 9765   2.259   0.353   6.633 -0.9147  0.3947 -0.3173
   98SAPS   O22 9766   2.143   0.371   6.602 -0.0775  0.6364 -0.3694
   98SAPS   C22 9767   2.343   0.455   6.719  0.5768  0.1491 -0.1186
   98SAPS   H2R 9768   2.421   0.398   6.775  1.5753  0.2353 -1.3872
   98SAPS   H2S 9769   2.395   0.510   6.638  4.0490 -3.8650 -0.9606
   98SAPS    C3 9770   2.183   0.055   6.551 -0.1219  0.2126 -0.4864
   98SAPS    HX 9771   2.151  -0.011   6.467 -1.3278  0.4374 -0.2307
   98SAPS    HY 9772   2.082   0.093   6.579  0.2865  1.2925 -0.4615
   98SAPS   O31 9773   2.245  -0.008   6.663 -0.1778  0.0707 -0.0875
   98SAPS   C31 9774   2.243  -0.141   6.663  0.3433  0.3749  0.0422
   98SAPS   O32 9775   2.185  -0.213   6.580  0.4688 -0.1347  0.2219
   98SAPS   C32 9776   2.308  -0.206   6.796  0.2779 -0.0289 -0.0074
   98SAPS   H2X 9777   2.419  -0.210   6.793  0.2352 -1.3507 -0.9664
   98SAPS   H2Y 9778   2.273  -0.312   6.802 -0.7616  0.3460  0.7993
   98SAPS   C23 9779   2.257   0.546   6.810 -0.2280 -0.0562  0.6016
   98SAPS   H3R 9780   2.194   0.486   6.879 -0.6096 -1.1218 -0.6233
   98SAPS   H3S 9781   2.191   0.615   6.753  0.8476  2.4397  2.2266
   98SAPS   C24 9782   2.351   0.634   6.890 -0.9747 -0.2330 -0.1409
   98SAPS   H4R 9783   2.386   0.715   6.824 -0.1424 -2.4564 -2.6274
   98SAPS   H4S 9784   2.440   0.577   6.924 -0.0308  0.7598 -0.8985
   98SAPS   C25 9785   2.270   0.690   7.003 -0.4418 -0.3156 -0.1050
   98SAPS   H5R 9786   2.179   0.743   6.971 -0.8216 -1.9554 -1.9601
   98SAPS   C26 9787   2.286   0.674   7.135 -0.4097  0.2530 -0.0673
   98SAPS   H6R 9788   2.209   0.708   7.206 -0.6092 -0.0917 -0.1171
   98SAPS   C27 9789   2.404   0.596   7.201 -0.3952 -0.0836  0.1647
   98SAPS   H7R 9790   2.464   0.550   7.120  2.1443  1.0230  1.3110
   98SAPS   H7S 9791   2.375   0.509   7.264 -0.8543  0.3489  0.5627
   98SAPS   C28 9792   2.496   0.698   7.271 -0.1891  0.3941  0.1362
   98SAPS   H8R 9793   2.545   0.773   7.206 -0.0193  2.4655  2.5048
   98SAPS   C29 9794   2.531   0.708   7.398 -0.7430  0.0685  0.0082
   98SAPS   H9R 9795   2.605   0.787   7.418  0.4008 -0.6830 -1.0898
   98SAPS  C210 9796   2.483   0.611   7.501  0.0114 -0.6456  0.3271
   98SAPS  H10R 9797   2.566   0.569   7.561  1.6460  3.2058  1.1172
   98SAPS  H10S 9798   2.435   0.525   7.451 -0.5286 -0.5153  0.6075
   98SAPS  C211 9799   2.377   0.667   7.599 -0.2869 -0.1437 -0.4567
   98SAPS  H11R 9800   2.284   0.707   7.556 -0.3549  1.2100  0.8961
   98SAPS  C212 9801   2.372   0.657   7.734  0.2791 -0.3176  0.0308
   98SAPS  H12R 9802   2.282   0.694   7.786  1.6023  1.7500  0.9651
   98SAPS  C213 9803   2.474   0.581   7.814  0.5168 -0.0023 -0.1034
   98SAPS  H13R 9804   2.493   0.490   7.754  1.3137  0.4064 -0.4945
   98SAPS  H13S 9805   2.450   0.547   7.917 -0.3111 -1.5039 -0.7605
   98SAPS  C214 9806   2.602   0.656   7.830  0.1561  0.5702 -0.2019
   98SAPS  H14R 9807   2.653   0.699   7.742  1.4291  1.1378  0.7725
   98SAPS  C215 9808   2.681   0.688   7.937 -0.0145 -0.2451 -0.2063
   98SAPS  H15R 9809   2.772   0.748   7.927  1.3772 -2.0118  1.0554
   98SAPS  C216 9810   2.658   0.642   8.079 -0.6282  0.3207 -0.1134
   98SAPS  H16R 9811   2.749   0.619   8.139 -1.4454  2.8801  2.2860
   98SAPS  H16S 9812   2.583   0.561   8.076 -0.9750  0.6403 -0.0838
   98SAPS  C217 9813   2.592   0.764   8.152  0.5407 -0.3417 -0.5320
   98SAPS  H17R 9814   2.484   0.772   8.130  0.5471  1.5347 -0.0112
   98SAPS  H17S 9815   2.646   0.858   8.127 -0.5030  1.9449  4.5765
   98SAPS  C218 9816   2.614   0.766   8.305 -0.1071 -0.4164 -0.0374
   98SAPS  H18R 9817   2.724   0.751   8.310  0.3254  0.2271 -4.2073
   98SAPS  H18S 9818   2.579   0.676   8.360 -0.5179 -0.4491 -0.3461
   98SAPS  C219 9819   2.573   0.899   8.381  0.8779  0.2313 -0.2598
   98SAPS  H19R 9820   2.593   0.992   8.323 -2.8469  1.5349  0.2623
   98SAPS  H19S 9821   2.634   0.897   8.474  0.8164 -0.4484 -0.2286
   98SAPS  C220 9822   2.418   0.893   8.395 -0.9691 -0.2990  0.1322
   98SAPS  H20R 9823   2.387   0.892   8.288 -1.9191  0.8791  0.3745
   98SAPS  H20S 9824   2.376   0.990   8.430 -0.6330  0.4529 -1.4471
   98SAPS  H20T 9825   2.385   0.799   8.444 -1.8852 -0.5901 -1.0110
   98SAPS   C33 9826   2.256  -0.126   6.919 -0.6420 -0.7884  0.3498
   98SAPS   H3X 9827   2.146  -0.113   6.911 -0.6507 -1.1559 -0.1985
   98SAPS   H3Y 9828   2.307  -0.027   6.925  1.3557 -1.6904 -0.7617
   98SAPS   C34 9829   2.288  -0.206   7.043 -0.0708  0.8151 -0.3950
   98SAPS   H4X 9830   2.398  -0.217   7.034 -0.3955 -1.5133 -2.4058
   98SAPS   H4Y 9831   2.247  -0.309   7.031  2.0104 -0.1166 -0.0500
   98SAPS   C35 9832   2.233  -0.141   7.169 -0.1200 -0.2780  0.0222
   98SAPS   H5X 9833   2.136  -0.097   7.137 -0.2805 -0.1053  0.7127
   98SAPS   H5Y 9834   2.309  -0.061   7.184  1.6314 -1.7674 -0.6694
   98SAPS   C36 9835   2.215  -0.237   7.289  0.3608  0.5119  0.1259
   98SAPS   H6X 9836   2.310  -0.294   7.299  1.1636  1.8149  0.1514
   98SAPS   H6Y 9837   2.133  -0.305   7.259  0.3366  0.5500  0.1056
   98SAPS   C37 9838   2.190  -0.169   7.419 -0.1067 -0.2879 -0.1921
   98SAPS   H7X 9839   2.093  -0.117   7.406  0.7684  2.1836  2.2115
   98SAPS   H7Y 9840   2.273  -0.098   7.441  0.8036 -1.3281 -0.2296
   98SAPS   C38 9841   2.168  -0.252   7.545 -0.4954  0.3929 -0.3955
   98SAPS   H8X 9842   2.091  -0.329   7.524  0.9866 -1.3551  0.2976
   98SAPS   H8Y 9843   2.122  -0.184   7.620 -2.2035 -0.2764 -0.8012
   98SAPS   C39 9844   2.300  -0.302   7.616 -0.2802 -0.0338 -0.3645
   98SAPS   H9X 9845   2.371  -0.220   7.640  0.9572 -1.2462  0.2131
   98SAPS   H9Y 9846   2.348  -0.362   7.536  0.3085  0.1919 -0.1824
   98SAPS  C310 9847   2.283  -0.399   7.734  0.6439 -0.0007  0.0136
   98SAPS  H10X 9848   2.387  -0.426   7.760  1.4230  1.9586 -0.9006
   98SAPS  H10Y 9849   2.230  -0.489   7.698 -0.8355  0.7242  0.2550
   98SAPS  C311 9850   2.195  -0.348   7.853 -0.5511 -0.6023  0.5539
   98SAPS  H11X 9851   2.092  -0.362   7.816 -0.5314 -0.1371  0.3121
   98SAPS  H11Y 9852   2.205  -0.238   7.865  0.3594 -0.6083 -0.0478
   98SAPS  C312 9853   2.212  -0.431   7.983  0.8093 -0.4668  0.0105
   98SAPS  H12X 9854   2.321  -0.447   7.997  1.4918 -0.3080 -3.9669
   98SAPS  H12Y 9855   2.166  -0.528   7.956 -0.7131  0.5625 -1.2631
   98SAPS  C313 9856   2.150  -0.357   8.109  0.0312  0.3939  0.1204
   98SAPS  H13X 9857   2.045  -0.337   8.077  0.1341  3.4494  1.3443
   98SAPS  H13Y 9858   2.198  -0.258   8.122 -0.0411  0.4920 -0.3146
   98SAPS  C314 9859   2.166  -0.446   8.237  0.0361 -0.4388  0.4887
   98SAPS  H14X 9860   2.265  -0.428   8.283  1.2706 -2.9172 -1.0470
   98SAPS  H14Y 9861   2.161  -0.552   8.206 -0.6090  0.2429 -1.9353
   98SAPS  C315 9862   2.055  -0.426   8.346 -0.8918 -0.6846  0.4321
   98SAPS  H15X 9863   2.096  -0.474   8.437  0.6665  0.3945  0.3420
   98SAPS  H15Y 9864   1.961  -0.472   8.310 -0.0480 -0.3485 -2.4021
   98SAPS  C316 9865   2.043  -0.278   8.395 -0.2051  0.4504  0.0693
   98SAPS  H16X 9866   1.981  -0.221   8.322  0.0501 -0.2227 -0.6834
   98SAPS  H16Y 9867   2.140  -0.225   8.384 -0.8930  1.5051 -1.2764
   98SAPS  C317 9868   1.976  -0.251   8.524  0.0421  0.0839 -0.6118
   98SAPS  H17X 9869   1.960  -0.141   8.535  0.8000  0.2163 -0.8055
   98SAPS  H17Y 9870   2.038  -0.290   8.606 -1.8971 -0.7681  0.5199
   98SAPS  C318 9871   1.840  -0.332   8.530  0.1505  0.1662  0.5798
   98SAPS  H18X 9872   1.859  -0.438   8.559  2.0302  0.1552 -0.5091
   98SAPS  H18Y 9873   1.781  -0.327   8.436  1.1317 -0.5003 -0.0891
   98SAPS  H18Z 9874   1.767  -0.286   8.599  0.2640 -1.4888  1.8624
   99SAPS     N 9875   2.067   5.132   6.024  0.5115 -0.3300 -0.0008
   99SAPS   HN1 9876   2.056   5.201   5.946 -0.8177 -2.9591 -2.2919
   99SAPS   HN2 9877   2.079   5.034   5.993  0.0558 -0.7375  1.0761
   99SAPS   HN3 9878   1.981   5.129   6.083  0.2975  2.0189 -0.0622
   99SAPS   C12 9879   2.179   5.154   6.115 -0.2040  0.3241  0.2506
   99SAPS  H12A 9880   2.178   5.067   6.180  0.7231  0.2885  0.2228
   99SAPS   C13 9881   2.315   5.175   6.050 -0.0304 -0.8897  0.0062
   99SAPS  O13A 9882   2.327   5.177   5.926  0.8736  0.0428  0.4255
   99SAPS  O13B 9883   2.416   5.163   6.126  0.3312  0.0396 -0.3600
   99SAPS   C11 9884   2.161   5.274   6.207  0.4425  0.2800  0.2144
   99SAPS  H11A 9885   2.188   5.367   6.153  0.2237  1.3571  1.8790
   99SAPS  H11B 9886   2.248   5.264   6.276  1.9477  1.9818 -1.3415
   99SAPS     P 9887   1.999   5.403   6.363 -0.0144  0.2168 -0.2516
   99SAPS   O13 9888   2.122   5.471   6.413  0.1133 -0.4251 -0.2657
   99SAPS   O14 9889   1.909   5.490   6.285  0.1030  0.5208  0.2457
   99SAPS   O12 9890   2.033   5.273   6.279 -0.0943  0.1934 -0.2277
   99SAPS   O11 9891   1.918   5.358   6.490  0.1776  0.0719 -0.7554
   99SAPS    C1 9892   1.837   5.240   6.489 -0.7468 -0.0902  0.5711
   99SAPS    HA 9893   1.731   5.269   6.475 -0.5251  0.5978  0.3113
   99SAPS    HB 9894   1.862   5.179   6.399 -0.1964  0.6449  0.2143
   99SAPS    C2 9895   1.856   5.140   6.614  0.2512 -0.6717  0.2644
   99SAPS    HS 9896   1.782   5.058   6.606 -0.1653 -0.2262 -0.4910
   99SAPS   O21 9897   1.851   5.225   6.735  0.0378 -0.4396 -0.3855
   99SAPS   C21 9898   1.723   5.272   6.752 -0.4408 -0.0655  0.0788
   99SAPS   O22 9899   1.629   5.236   6.684  0.6312 -0.4809 -0.1103
   99SAPS   C22 9900   1.727   5.373   6.871 -0.2314  0.0129 -0.6557
   99SAPS   H2R 9901   1.785   5.315   6.946  2.0880 -0.1566 -2.4604
   99SAPS   H2S 9902   1.787   5.462   6.841  1.3436 -0.0992  1.8640
   99SAPS    C3 9903   2.002   5.077   6.604 -0.1580 -0.0650 -0.0419
   99SAPS    HX 9904   2.071   5.164   6.606  0.9163 -0.8977  1.7832
   99SAPS    HY 9905   2.013   5.026   6.506  1.0939  3.2253 -1.7755
   99SAPS   O31 9906   2.030   4.996   6.718 -0.6608  0.6797 -0.3309
   99SAPS   C31 9907   1.985   4.869   6.713 -0.3147  0.0250 -0.3556
   99SAPS   O32 9908   1.901   4.825   6.636 -0.0308  0.0026  0.1545
   99SAPS   C32 9909   2.049   4.789   6.831 -0.0771 -0.0477  0.0142
   99SAPS   H2X 9910   2.060   4.856   6.919 -1.7433  0.7972 -0.3841
   99SAPS   H2Y 9911   2.153   4.762   6.801  0.8913  1.0883  2.1873
   99SAPS   C23 9912   1.584   5.422   6.913 -1.4924  0.6283  0.4641
   99SAPS   H3R 9913   1.538   5.326   6.948 -0.8325  0.0111 -0.3160
   99SAPS   H3S 9914   1.518   5.453   6.829 -1.3346  0.7672  0.3921
   99SAPS   C24 9915   1.583   5.522   7.028  0.3272  0.1869  0.0639
   99SAPS   H4R 9916   1.630   5.486   7.122 -0.2118 -2.3476 -0.5528
   99SAPS   H4S 9917   1.480   5.540   7.066  0.9193  0.9535  1.3779
   99SAPS   C25 9918   1.650   5.651   6.985 -0.0623  0.2394 -0.1497
   99SAPS   H5R 9919   1.588   5.695   6.905  0.3001  0.0633 -0.5306
   99SAPS   C26 9920   1.778   5.695   7.002  0.3825  0.3425  0.0029
   99SAPS   H6R 9921   1.796   5.802   6.988 -0.0416  0.2739 -1.1141
   99SAPS   C27 9922   1.870   5.623   7.098 -0.0516  0.5868 -0.8486
   99SAPS   H7R 9923   1.910   5.527   7.059 -1.3694 -0.9508  1.3215
   99SAPS   H7S 9924   1.813   5.592   7.189 -1.4455  2.2899 -1.0743
   99SAPS   C28 9925   1.995   5.696   7.148  0.4804 -0.0129 -0.9734
   99SAPS   H8R 9926   2.043   5.776   7.091  1.0609  1.4999  1.4837
   99SAPS   C29 9927   2.048   5.674   7.276 -0.0894 -0.3374 -0.1120
   99SAPS   H9R 9928   2.142   5.724   7.303 -0.8521  0.6356  0.8331
   99SAPS  C210 9929   1.992   5.591   7.386  0.7521  0.5783  0.2943
   99SAPS  H10R 9930   1.971   5.490   7.347 -0.8219  1.6882 -1.9581
   99SAPS  H10S 9931   1.891   5.626   7.417  0.5391  0.5938 -0.4014
   99SAPS  C211 9932   2.073   5.583   7.512 -0.5197 -0.5197 -0.0197
   99SAPS  H11R 9933   2.126   5.676   7.535 -1.4772 -0.2794  1.3361
   99SAPS  C212 9934   2.065   5.491   7.609  0.1269 -0.1336 -0.3964
   99SAPS  H12R 9935   2.143   5.496   7.686 -0.2246  1.4977 -0.0932
   99SAPS  C213 9936   1.970   5.372   7.604 -0.0549  0.0923  0.5119
   99SAPS  H13R 9937   2.037   5.283   7.605  1.8396  1.4596  0.5133
   99SAPS  H13S 9938   1.915   5.359   7.508  0.8897  0.9043 -0.1512
   99SAPS  C214 9939   1.864   5.374   7.717  0.5235 -0.2635  0.2373
   99SAPS  H14R 9940   1.883   5.450   7.794 -2.3168 -1.0141  1.8338
   99SAPS  C215 9941   1.745   5.314   7.716 -0.1690  0.7054  0.3670
   99SAPS  H15R 9942   1.686   5.315   7.809 -0.1528  0.5991  0.3783
   99SAPS  C216 9943   1.688   5.231   7.599 -0.5655  0.2241 -0.5642
   99SAPS  H16R 9944   1.597   5.178   7.636  0.7941 -0.8916  1.3009
   99SAPS  H16S 9945   1.763   5.161   7.557 -0.4570  0.3924 -0.6526
   99SAPS  C217 9946   1.641   5.320   7.477  0.0524 -0.6301  0.4870
   99SAPS  H17R 9947   1.613   5.256   7.390 -1.8033  3.1011 -1.9166
   99SAPS  H17S 9948   1.729   5.380   7.446 -1.3262  1.0320 -0.3476
   99SAPS  C218 9949   1.511   5.397   7.517 -0.0560 -0.4179 -0.2154
   99SAPS  H18R 9950   1.537   5.488   7.574  1.0474  0.3546 -1.8923
   99SAPS  H18S 9951   1.446   5.327   7.575  0.2468 -0.9759 -0.5331
   99SAPS  C219 9952   1.431   5.448   7.394  0.1020  0.6183  0.5194
   99SAPS  H19R 9953   1.497   5.516   7.338  0.2684 -0.6864 -0.9353
   99SAPS  H19S 9954   1.337   5.491   7.434 -0.6702  1.3943 -1.9899
   99SAPS  C220 9955   1.390   5.343   7.290  0.0764 -0.9510 -0.3495
   99SAPS  H20R 9956   1.470   5.284   7.239  0.0171 -0.6964 -0.7401
   99SAPS  H20S 9957   1.323   5.395   7.219 -0.8978 -1.5168  0.1384
   99SAPS  H20T 9958   1.340   5.258   7.341 -2.5875 -0.0034 -1.2461
   99SAPS   C33 9959   1.966   4.667   6.879 -0.3826  0.1633  0.9420
   99SAPS   H3X 9960   1.915   4.609   6.799  0.3607 -3.7728  3.0807
   99SAPS   H3Y 9961   1.874   4.710   6.923 -0.1452  1.1352  0.5301
   99SAPS   C34 9962   2.044   4.574   6.975 -0.3215  0.0157 -0.0318
   99SAPS   H4X 9963   2.136   4.533   6.929  0.6436  2.2662 -0.2350
   99SAPS   H4Y 9964   1.982   4.483   6.988  0.0987 -0.3330 -0.4340
   99SAPS   C35 9965   2.094   4.636   7.103  0.7165 -0.9777 -0.0645
   99SAPS   H5X 9966   2.142   4.735   7.088 -0.3976 -0.5931 -1.3242
   99SAPS   H5Y 9967   2.160   4.561   7.151  0.3280  0.0425  2.1971
   99SAPS   C36 9968   1.971   4.653   7.203  0.0775  0.4899  0.0246
   99SAPS   H6X 9969   1.929   4.550   7.211  0.0541 -0.0687 -4.4955
   99SAPS   H6Y 9970   1.905   4.714   7.138 -0.4888 -1.5703 -1.4565
   99SAPS   C37 9971   2.011   4.710   7.343 -0.2169 -0.0316 -0.4848
   99SAPS   H7X 9972   2.085   4.792   7.331  0.7616 -0.6144  1.2449
   99SAPS   H7Y 9973   2.065   4.624   7.388 -3.0376 -2.0072 -0.6368
   99SAPS   C38 9974   1.883   4.746   7.417  0.1690 -0.1541 -0.0814
   99SAPS   H8X 9975   1.824   4.652   7.413 -0.8755  0.5033 -0.4034
   99SAPS   H8Y 9976   1.817   4.822   7.371  0.3534  1.2013  1.7818
   99SAPS   C39 9977   1.912   4.770   7.559  0.1857  0.1468 -0.0288
   99SAPS   H9X 9978   1.979   4.857   7.578 -0.2144 -0.1431  3.2791
   99SAPS   H9Y 9979   1.961   4.683   7.607  0.1655 -0.6462 -1.4123
   99SAPS  C310 9980   1.779   4.789   7.640  0.2347  0.0675 -0.2133
   99SAPS  H10X 9981   1.721   4.694   7.637 -0.7927  0.6941 -0.6406
   99SAPS  H10Y 9982   1.731   4.877   7.592  0.8123  0.8283  0.5753
   99SAPS  C311 9983   1.805   4.825   7.787 -0.0210 -0.8687 -0.6871
   99SAPS  H11X 9984   1.894   4.892   7.793  0.1133 -1.1318  0.6413
   99SAPS  H11Y 9985   1.822   4.734   7.849 -2.7194 -0.3886  0.9577
   99SAPS  C312 9986   1.686   4.897   7.853  0.1413  0.2617  0.8423
   99SAPS  H12X 9987   1.610   4.819   7.877 -0.7097  0.5467 -0.7896
   99SAPS  H12Y 9988   1.636   4.962   7.778 -1.4794 -0.3472  1.3535
   99SAPS  C313 9989   1.715   4.963   7.987  0.0423 -0.3881  0.2697
   99SAPS  H13X 9990   1.633   5.009   8.046  0.3184 -2.5168  2.4797
   99SAPS  H13Y 9991   1.790   5.045   7.975 -1.4189  1.2518  1.7406
   99SAPS  C314 9992   1.790   4.862   8.079 -0.2595  0.5762 -0.4301
   99SAPS  H14X 9993   1.877   4.800   8.050 -1.1952  0.0767 -2.2764
   99SAPS  H14Y 9994   1.722   4.779   8.107  1.5161 -0.0319  2.5511
   99SAPS  C315 9995   1.840   4.935   8.203 -0.2353 -0.4065  0.2181
   99SAPS  H15X 9996   1.755   4.989   8.250  0.4394 -1.8622  3.3755
   99SAPS  H15Y 9997   1.913   5.012   8.172 -1.7193  0.4679 -1.2217
   99SAPS  C316 9998   1.905   4.849   8.309 -0.4468 -0.2709 -0.2321
   99SAPS  H16X 9999   1.981   4.780   8.265  2.4770  1.9179  0.9932
   99SAPS  H16Y10000   1.830   4.781   8.355 -1.8865  0.5833 -1.2760
   99SAPS  C31710001   1.963   4.930   8.426 -0.0323 -0.4478  1.1212
   99SAPS  H17X10002   1.877   4.993   8.458 -0.5978 -1.4609  1.6238
   99SAPS  H17Y10003   2.047   5.002   8.414 -1.0315  0.6625  0.5967
   99SAPS  C31810004   2.001   4.842   8.543  0.6684 -0.3630  0.0490
   99SAPS  H18X10005   1.935   4.753   8.548  0.8033 -0.4922 -0.3699
   99SAPS  H18Y10006   1.971   4.895   8.636 -1.4015 -0.8740 -0.2648
   99SAPS  H18Z10007   2.105   4.805   8.536 -0.4620 -4.0776  0.7116
  100SAPS     N10008   5.107   6.227   6.441 -0.3825  0.8900 -0.1357
  100SAPS   HN110009   5.186   6.286   6.474 -0.6321  1.1324  0.0296
  100SAPS   HN210010   5.034   6.219   6.515 -1.4229  1.4394 -1.0791
  100SAPS   HN310011   5.147   6.134   6.415 -0.0064  1.0226 -0.0441
  100SAPS   C1210012   5.055   6.296   6.316  0.2636 -0.4275 -0.5162
  100SAPS  H12A10013   5.060   6.400   6.343 -2.4158 -0.2701 -0.3792
  100SAPS   C1310014   5.132   6.288   6.181  0.5911  0.0878  0.3390
  100SAPS  O13A10015   5.238   6.222   6.183  0.0301 -0.7332 -0.5989
  100SAPS  O13B10016   5.081   6.335   6.078 -0.2488  0.0045  0.2760
  100SAPS   C1110017   4.906   6.251   6.292  0.0125  0.1544 -0.4635
  100SAPS  H11A10018   4.914   6.149   6.248  1.3934 -0.0587  0.2434
  100SAPS  H11B10019   4.846   6.321   6.229  0.9196 -0.7867 -2.4615
  100SAPS     P10020   4.703   6.184   6.443  0.0677  0.0664 -0.3981
  100SAPS   O1310021   4.612   6.232   6.335 -0.3471 -0.0712  0.5336
  100SAPS   O1410022   4.732   6.036   6.457  0.4876  0.0316  0.5553
  100SAPS   O1210023   4.839   6.254   6.421 -0.2388 -0.0740  0.1916
  100SAPS   O1110024   4.658   6.237   6.588 -0.1954 -0.1529  0.5409
  100SAPS    C110025   4.523   6.267   6.616 -0.0358 -0.2815 -0.4528
  100SAPS    HA10026   4.514   6.375   6.592  0.4552 -0.2729 -0.6029
  100SAPS    HB10027   4.454   6.205   6.555 -1.1088 -1.2573  1.6524
  100SAPS    C210028   4.494   6.222   6.762  0.0939  0.4308 -0.3006
  100SAPS    HS10029   4.575   6.262   6.827  0.3258  1.4834 -1.1954
  100SAPS   O2110030   4.487   6.073   6.760  0.3492 -0.3155 -0.3992
  100SAPS   C2110031   4.611   6.013   6.782  0.4458 -0.8939 -0.3422
  100SAPS   O2210032   4.713   6.076   6.802  0.4758 -0.1454 -0.1150
  100SAPS   C2210033   4.597   5.865   6.781  0.5055 -0.2025  0.3955
  100SAPS   H2R10034   4.494   5.832   6.754  1.3847 -2.5443 -0.4283
  100SAPS   H2S10035   4.669   5.821   6.708  1.7732  0.2287  1.3532
  100SAPS    C310036   4.363   6.288   6.819 -0.6325  0.1487 -0.2227
  100SAPS    HX10037   4.275   6.258   6.758 -1.1957 -0.4843  0.8619
  100SAPS    HY10038   4.393   6.394   6.806 -0.0871 -0.2877 -2.8810
  100SAPS   O3110039   4.342   6.250   6.959 -0.0609  0.2882 -0.0389
  100SAPS   C3110040   4.225   6.197   6.997  0.4580 -0.3734 -0.0661
  100SAPS   O3210041   4.123   6.188   6.926  0.1128 -0.4137 -0.3581
  100SAPS   C3210042   4.242   6.139   7.135  0.5611  0.1457  0.3042
  100SAPS   H2X10043   4.246   6.220   7.211 -1.2003 -1.2706  2.0050
  100SAPS   H2Y10044   4.335   6.078   7.126  1.1306  1.2572 -2.9462
  100SAPS   C2310045   4.646   5.806   6.918 -0.6317  0.0360 -0.3569
  100SAPS   H3R10046   4.741   5.852   6.951 -1.5923  1.8065  0.0587
  100SAPS   H3S10047   4.666   5.699   6.893 -2.6670 -0.1463 -1.4232
  100SAPS   C2410048   4.528   5.814   7.021 -0.1267  0.4867  0.3229
  100SAPS   H4R10049   4.441   5.773   6.965  1.0434 -1.3744 -0.2358
  100SAPS   H4S10050   4.526   5.921   7.049  1.6194  1.2335 -2.1383
  100SAPS   C2510051   4.562   5.721   7.134 -0.1944 -0.3388 -0.2218
  100SAPS   H5R10052   4.576   5.619   7.097  1.5488 -0.7991  1.5117
  100SAPS   C2610053   4.587   5.734   7.269 -0.4343  0.6259 -0.1170
  100SAPS   H6R10054   4.622   5.640   7.314 -1.7352  0.1836  0.0139
  100SAPS   C2710055   4.588   5.860   7.353 -0.3576  0.1942  0.2997
  100SAPS   H7R10056   4.551   5.941   7.288 -0.3112  0.5487  0.7061
  100SAPS   H7S10057   4.691   5.881   7.390 -0.0246  0.3004 -0.6816
  100SAPS   C2810058   4.501   5.833   7.472 -0.2537  0.1090 -0.0826
  100SAPS   H8R10059   4.393   5.819   7.454 -0.2082 -0.0811 -0.2061
  100SAPS   C2910060   4.537   5.827   7.606 -0.2423 -0.0317  0.0774
  100SAPS   H9R10061   4.461   5.804   7.682  0.4728  1.2164  1.1967
  100SAPS  C21010062   4.674   5.866   7.659 -0.0475  0.4592 -0.0911
  100SAPS  H10R10063   4.744   5.904   7.581 -0.3101  0.2916 -0.4123
  100SAPS  H10S10064   4.718   5.785   7.722 -1.5961  0.1571  0.6299
  100SAPS  C21110065   4.644   5.988   7.739 -0.1941 -0.7080  0.5249
  100SAPS  H11R10066   4.608   6.070   7.676 -0.0202 -0.7607  0.3550
  100SAPS  C21210067   4.682   5.998   7.872 -0.7495  0.2312  0.1544
  100SAPS  H12R10068   4.685   6.093   7.927  2.1438 -0.4596  1.3418
  100SAPS  C21310069   4.732   5.893   7.963 -0.0354 -0.5927 -1.1414
  100SAPS  H13R10070   4.681   5.797   7.939 -0.9579  0.1983 -2.4422
  100SAPS  H13S10071   4.691   5.915   8.064 -0.0455 -2.9167 -0.5873
  100SAPS  C21410072   4.880   5.859   7.958 -0.7220 -0.0960  0.4466
  100SAPS  H14R10073   4.919   5.863   7.855 -0.0525 -0.4137  0.6821
  100SAPS  C21510074   4.955   5.838   8.064 -0.4364 -0.4929  0.4035
  100SAPS  H15R10075   5.062   5.821   8.044 -0.9308 -1.1880 -1.9671
  100SAPS  C21610076   4.913   5.819   8.205 -0.0107 -0.3785 -0.7905
  100SAPS  H16R10077   4.944   5.719   8.244 -1.0382 -0.6588 -0.6765
  100SAPS  H16S10078   4.803   5.819   8.213  0.1138 -1.1206  2.3093
  100SAPS  C21710079   4.978   5.942   8.294  0.1754  0.4034  0.1164
  100SAPS  H17R10080   4.929   6.034   8.255 -0.8247 -0.3356 -0.4326
  100SAPS  H17S10081   5.088   5.947   8.281  0.1591 -0.2634 -0.3314
  100SAPS  C21810082   4.959   5.925   8.442  0.2907 -0.2052  0.2419
  100SAPS  H18R10083   4.995   5.826   8.479 -1.1325 -0.5404  0.7989
  100SAPS  H18S10084   4.851   5.927   8.465  0.1211 -2.2344 -0.1782
  100SAPS  C21910085   5.036   6.023   8.534  0.0380 -0.0831 -0.7811
  100SAPS  H19R10086   5.000   6.128   8.522 -3.0974 -0.7771  1.2941
  100SAPS  H19S10087   5.141   6.013   8.500  0.1249 -0.4507 -0.4114
  100SAPS  C22010088   5.017   5.980   8.684 -0.0078  0.0707  0.6748
  100SAPS  H20R10089   5.081   6.032   8.758  0.1364 -0.6416  1.0612
  100SAPS  H20S10090   5.040   5.871   8.690 -1.9382 -0.5978 -2.0873
  100SAPS  H20T10091   4.913   6.000   8.715  0.9330  3.1467  2.2217
  100SAPS   C3310092   4.131   6.030   7.170  0.4038  0.2041 -0.4245
  100SAPS   H3X10093   4.132   5.943   7.101  0.8404 -0.0976 -0.0479
  100SAPS   H3Y10094   4.027   6.068   7.168  0.1207 -0.5549 -0.3891
  100SAPS   C3410095   4.166   5.981   7.311 -0.1220 -0.3560  0.3585
  100SAPS   H4X10096   4.167   6.077   7.367 -0.3134  0.7609 -1.4792
  100SAPS   H4Y10097   4.270   5.944   7.321 -0.0648 -0.0145  1.0750
  100SAPS   C3510098   4.053   5.882   7.353  0.1237 -0.0301 -0.2604
  100SAPS   H5X10099   4.048   5.805   7.272  1.3827  2.2489 -2.6874
  100SAPS   H5Y10100   3.955   5.933   7.360  0.8000  1.1242  1.2519
  100SAPS   C3610101   4.088   5.820   7.487  0.0769  0.4205  0.1136
  100SAPS   H6X10102   4.185   5.770   7.469 -0.1219 -0.0128  0.2232
  100SAPS   H6Y10103   4.012   5.742   7.512 -0.1715  1.0165  1.3015
  100SAPS   C3710104   4.099   5.911   7.607 -0.0007 -0.2271  0.1523
  100SAPS   H7X10105   4.001   5.963   7.615  0.8978  2.1040 -2.4077
  100SAPS   H7Y10106   4.181   5.982   7.585 -0.1674 -0.0640  0.0570
  100SAPS   C3810107   4.137   5.842   7.736 -0.2686 -0.2580  0.4360
  100SAPS   H8X10108   4.236   5.803   7.706 -0.0481  1.6443 -1.5991
  100SAPS   H8Y10109   4.074   5.754   7.761  0.5598 -0.9982 -0.0487
  100SAPS   C3910110   4.126   5.939   7.850  0.2376  0.0366 -0.0798
  100SAPS   H9X10111   4.124   5.870   7.936  1.5457 -0.0189 -0.0777
  100SAPS   H9Y10112   4.028   5.991   7.844  0.7442  0.8772 -1.7234
  100SAPS  C31010113   4.252   6.025   7.877 -0.7008 -0.3692 -0.0520
  100SAPS  H10X10114   4.258   6.106   7.801  0.2255  1.2449  1.6662
  100SAPS  H10Y10115   4.339   5.956   7.869  0.0940  0.8002 -2.1833
  100SAPS  C31110116   4.252   6.098   8.010 -0.7744  0.1704  0.1352
  100SAPS  H11X10117   4.190   6.045   8.085  1.4949 -1.7998  0.7314
  100SAPS  H11Y10118   4.210   6.200   7.994  1.0581  0.5739 -2.8073
  100SAPS  C31210119   4.387   6.109   8.075  0.2319 -0.2243 -0.0819
  100SAPS  H12X10120   4.463   6.128   7.996 -1.5081 -0.7002 -1.9465
  100SAPS  H12Y10121   4.407   6.009   8.119  0.5291 -0.2529 -0.2847
  100SAPS  C31310122   4.400   6.198   8.197 -0.2619  0.5303 -0.1103
  100SAPS  H13X10123   4.306   6.190   8.256 -0.4727 -0.4025 -0.5402
  100SAPS  H13Y10124   4.408   6.303   8.163 -1.1407  0.6720  0.0731
  100SAPS  C31410125   4.525   6.166   8.285 -0.3972 -0.4972 -0.1536
  100SAPS  H14X10126   4.616   6.135   8.228  0.2362 -0.0349  0.5748
  100SAPS  H14Y10127   4.494   6.080   8.348 -1.1781  0.5492  0.9346
  100SAPS  C31510128   4.566   6.286   8.372 -0.1080  0.5088 -0.0104
  100SAPS  H15X10129   4.470   6.331   8.404 -1.6028 -2.0655 -0.5475
  100SAPS  H15Y10130   4.631   6.359   8.320  0.7916 -1.7377 -2.2693
  100SAPS  C31610131   4.662   6.257   8.492 -0.4050  0.3280 -0.9731
  100SAPS  H16X10132   4.760   6.218   8.455  0.2590  1.5058 -0.5101
  100SAPS  H16Y10133   4.612   6.178   8.552  0.9517  1.7526  2.2820
  100SAPS  C31710134   4.676   6.381   8.584  0.6062 -0.1884 -0.9250
  100SAPS  H17X10135   4.572   6.414   8.605  0.8504  1.9224 -2.6715
  100SAPS  H17Y10136   4.707   6.470   8.525 -0.1947  1.3179  0.8170
  100SAPS  C31810137   4.762   6.354   8.711  0.4535  0.0343  1.2976
  100SAPS  H18X10138   4.847   6.285   8.691  0.2633  0.1175  0.1763
  100SAPS  H18Y10139   4.701   6.315   8.796 -0.9496 -0.0448  0.2858
  100SAPS  H18Z10140   4.821   6.442   8.743  1.1625 -0.1596  0.5557
  101OSM      N10141   6.536   5.850  10.862  0.5108 -1.2118 -0.4247
  101OSM    C1510142   6.671   5.909  10.813  0.4565  0.5311 -0.0787
  101OSM   H15A10143   6.661   6.002  10.759 -1.9244  0.6889  0.5055
  101OSM   H15B10144   6.720   5.832  10.755 -1.5038  0.3070 -1.5499
  101OSM   H15C10145   6.734   5.935  10.897  0.8925  0.3279 -0.3373
  101OSM    C1410146   6.473   5.956  10.949  0.7855  0.1843  0.1507
  101OSM   H14A10147   6.439   6.043  10.896 -0.2737 -0.1399  0.2721
  101OSM   H14B10148   6.537   5.986  11.030  0.0020 -0.3245  0.9846
  101OSM   H14C10149   6.384   5.920  10.999  0.9734 -0.9976 -0.3178
  101OSM    C1310150   6.453   5.834  10.738  0.1853 -0.6031 -0.0249
  101OSM   H13A10151   6.349   5.810  10.752 -0.3281  1.2653 -0.2947
  101OSM   H13B10152   6.492   5.754  10.677 -1.6397  0.0457 -2.1563
  101OSM   H13C10153   6.463   5.920  10.674  0.2899 -0.6583 -0.0829
  101OSM    C1210154   6.566   5.718  10.934 -0.4256  0.7449  0.3482
  101OSM   H12A10155   6.470   5.683  10.968 -0.1209 -0.3984  0.0704
  101OSM   H12B10156   6.618   5.730  11.028  0.1323  1.1927 -0.0120
  101OSM    C1110157   6.626   5.600  10.855 -0.5046  0.4964 -0.6255
  101OSM   H11A10158   6.634   5.519  10.931  3.0329 -0.3042 -1.6957
  101OSM   H11B10159   6.733   5.612  10.827  0.0208 -3.4576 -0.8248
  101OSM      P10160   6.454   5.442  10.758  0.3140 -0.0947  0.3634
  101OSM    O1310161   6.522   5.310  10.774  0.4821 -0.8725  0.1143
  101OSM    O1410162   6.369   5.494  10.861 -0.0149 -0.2588  0.0691
  101OSM    O1110163   6.378   5.436  10.617 -0.1531  1.4916  0.6458
  101OSM    O1210164   6.558   5.556  10.737  0.1564  0.0582  0.0366
  101OSM    C1S10165   6.349   5.550  10.542  0.4615 -0.3069 -0.4606
  101OSM    H1S10166   6.416   5.637  10.558 -0.0750  0.5583 -2.5342
  101OSM    H1T10167   6.249   5.583  10.577  0.4611 -2.0753  1.3539
  101OSM     NF10168   6.262   5.614  10.322 -0.3001  0.0359 -0.0879
  101OSM    HNF10169   6.175   5.572  10.296  0.3521 -1.3418 -0.1678
  101OSM    C2S10170   6.352   5.521  10.392  0.0169  0.3702  0.4552
  101OSM    H2S10171   6.455   5.554  10.364 -0.7375  1.6949 -0.9059
  101OSM    C3S10172   6.330   5.376  10.351  0.2336 -0.0279 -0.2133
  101OSM    H3S10173   6.236   5.327  10.384  0.2249  0.3834  0.3702
  101OSM     O310174   6.427   5.294  10.405  0.1315  0.0124 -0.6126
  101OSM    HO310175   6.453   5.343  10.482  1.2587  0.9237 -1.5526
  101OSM    C4S10176   6.353   5.353  10.199 -0.3707 -0.4353 -0.7825
  101OSM    H4S10177   6.457   5.328  10.174 -0.4073 -2.6449  0.9966
  101OSM    C5S10178   6.248   5.338  10.116 -0.0310  0.1596  0.7310
  101OSM    H5S10179   6.147   5.332  10.158  0.1198 -1.4201  0.9539
  101OSM    C6S10180   6.262   5.315   9.963 -0.7270 -0.4909 -0.1322
  101OSM    H6S10181   6.184   5.242   9.931 -0.7599  0.5110 -2.4859
  101OSM    H6T10182   6.353   5.253   9.947 -0.2788  0.2992 -0.6841
  101OSM    C7S10183   6.237   5.436   9.872 -0.9353  0.0241  0.2781
  101OSM    H7S10184   6.326   5.502   9.884 -1.4762  0.7389  0.4673
  101OSM    H7T10185   6.162   5.498   9.926  0.1927  2.1737 -0.5109
  101OSM    C8S10186   6.196   5.412   9.724 -0.3721 -0.4421  0.5785
  101OSM    H8S10187   6.167   5.511   9.684  0.5319 -0.1902  0.5171
  101OSM    H8T10188   6.109   5.344   9.714  1.9361 -3.7749  1.3556
  101OSM    C9S10189   6.306   5.338   9.648  0.6137 -0.3190 -0.0072
  101OSM    H9S10190   6.331   5.233   9.675  2.4077 -0.0089 -0.3060
  101OSM    H9T10191   6.399   5.399   9.656  0.6247 -0.4807  1.2325
  101OSM   C10S10192   6.284   5.344   9.488  0.3826  0.4720 -0.1288
  101OSM   H10S10193   6.377   5.306   9.441 -1.2800 -4.3373 -0.0814
  101OSM   H10T10194   6.264   5.449   9.457  1.7477  0.6373 -0.5124
  101OSM   C11S10195   6.175   5.252   9.439  0.2727  0.4539 -0.5630
  101OSM   H11S10196   6.084   5.248   9.501 -0.6062  0.4156 -1.8130
  101OSM   H11T10197   6.207   5.146   9.434 -0.0448  0.2765  0.7799
  101OSM   C12S10198   6.128   5.281   9.296  0.0934  0.5296  0.4998
  101OSM   H12S10199   6.208   5.256   9.223 -0.2006  2.0451 -0.3873
  101OSM   H12T10200   6.109   5.390   9.294 -0.8685  0.3735 -1.3200
  101OSM   C13S10201   5.993   5.219   9.262 -0.4703 -0.0425 -0.6292
  101OSM   H13S10202   5.912   5.282   9.303 -0.1645 -0.0558  0.0157
  101OSM   H13T10203   5.986   5.118   9.309  0.1826 -0.2177 -0.8913
  101OSM   C14S10204   5.975   5.193   9.115  0.6672  0.3776 -0.5914
  101OSM   H14S10205   6.070   5.158   9.069 -1.1137 -3.1742 -1.8935
  101OSM   H14T10206   5.957   5.290   9.064  2.4256  1.9940  1.6570
  101OSM   C15S10207   5.880   5.079   9.083  0.7540 -0.2218 -0.4669
  101OSM   H15S10208   5.782   5.121   9.114  1.1435  1.4199 -1.3642
  101OSM   H15T10209   5.918   4.993   9.142 -0.2711 -0.0051  0.5527
  101OSM   C16S10210   5.849   5.067   8.933 -0.3023  0.2257  0.1187
  101OSM   H16S10211   5.941   5.045   8.876  0.4057  1.6238  0.6881
  101OSM   H16T10212   5.810   5.157   8.881  0.0935  1.3444  1.6910
  101OSM   C17S10213   5.748   4.961   8.907 -0.2147  0.8001 -0.5610
  101OSM   H17S10214   5.661   4.959   8.977  1.4384  1.1037  1.5836
  101OSM   H17T10215   5.792   4.860   8.921 -0.6834  0.8355  1.4014
  101OSM   C18S10216   5.688   4.974   8.766  0.2855 -0.1840  0.2848
  101OSM   H18S10217   5.611   4.895   8.748  0.0179  0.5357 -2.1459
  101OSM   H18T10218   5.765   4.957   8.687 -0.2558  0.1560 -0.3274
  101OSM   H18U10219   5.641   5.073   8.751  0.9219  0.0058 -0.5045
  101OSM    C1F10220   6.270   5.746  10.319  0.3678  0.1583  0.0321
  101OSM     OF10221   6.379   5.801  10.347  0.6991  0.2894  0.4008
  101OSM    C2F10222   6.144   5.821  10.292 -0.5120 -0.4735  0.4418
  101OSM    H2F10223   6.150   5.921  10.342  0.7923 -0.7965  0.9837
  101OSM    H2G10224   6.048   5.775  10.320 -1.1555  0.1089 -0.7407
  101OSM    C3F10225   6.141   5.853  10.139  0.2414  0.3579 -0.6456
  101OSM    H3F10226   6.238   5.898  10.107  2.2072  0.2728  4.2036
  101OSM    H3G10227   6.065   5.932  10.121  1.0436  1.0089 -1.2655
  101OSM    C4F10228   6.100   5.737  10.047 -0.3975 -0.5038 -0.0050
  101OSM    H4F10229   5.989   5.727  10.059 -0.9662  2.5246 -1.8523
  101OSM    H4G10230   6.157   5.645  10.072  0.9658  0.0886 -0.8668
  101OSM    C5F10231   6.121   5.782   9.904  0.6183  1.2310  0.4937
  101OSM    H5F10232   6.221   5.755   9.865  1.1796  2.1459  1.2564
  101OSM    H5G10233   6.129   5.892   9.898  1.2832  1.1901  0.5177
  101OSM    C6F10234   6.012   5.738   9.804 -0.0479 -0.1469  0.1652
  101OSM    H6F10235   5.918   5.770   9.855 -0.4545 -3.0399  1.4246
  101OSM    H6G10236   6.002   5.629   9.790  0.1295 -0.2062  0.4873
  101OSM    C7F10237   6.018   5.804   9.665 -0.4678  0.6628 -0.1592
  101OSM    H7F10238   6.112   5.773   9.615 -2.2204 -4.3296 -0.9375
  101OSM    H7G10239   6.014   5.910   9.699 -4.0205  0.8532 -0.7976
  101OSM    C8F10240   5.894   5.770   9.583 -0.7962 -0.2168  0.4533
  101OSM    H8F10241   5.810   5.804   9.647 -0.3853  2.2916 -0.2347
  101OSM    H8G10242   5.901   5.659   9.573  2.2870  0.0665 -5.2409
  101OSM    C9F10243   5.893   5.843   9.453  0.1992 -0.3935  0.0250
  101OSM    H9F10244   5.917   5.949   9.469  1.6847 -0.7678  0.4419
  101OSM   C10F10245   5.862   5.796   9.331 -0.9150  0.0529  0.3852
  101OSM   H10F10246   5.857   5.865   9.245  0.0633 -0.5350 -0.1617
  101OSM   C11F10247   5.816   5.660   9.287 -0.6193  0.7781  0.5132
  101OSM   H11F10248   5.715   5.658   9.240 -1.3404 -1.1138  2.0309
  101OSM   H11G10249   5.808   5.580   9.364  0.2111 -1.7275 -1.8522
  101OSM   C12F10250   5.904   5.583   9.184  0.0176 -0.6121 -0.3931
  101OSM   H12F10251   5.853   5.487   9.161  0.7121 -1.8616  2.7621
  101OSM   H12G10252   6.003   5.551   9.221  1.6223  1.9944 -2.1101
  101OSM   C13F10253   5.922   5.650   9.046 -0.4235 -0.6149  0.3041
  101OSM   H13F10254   5.988   5.738   9.061 -2.5310  0.8211  1.7554
  101OSM   H13G10255   5.834   5.710   9.013 -0.6413 -2.1396 -2.1919
  101OSM   C14F10256   5.981   5.558   8.938  0.3063  0.4902 -0.0786
  101OSM   H14F10257   5.919   5.470   8.911  2.7626 -1.2360 -0.5064
  101OSM   H14G10258   6.072   5.509   8.980 -1.0043  0.1871  2.6272
  101OSM   C15F10259   6.018   5.624   8.807 -0.1707  0.4260  0.1313
  101OSM   H15F10260   6.055   5.550   8.732 -2.4184  0.7314 -1.3618
  101OSM   H15G10261   6.106   5.689   8.827  0.8081 -0.8136  0.0005
  101OSM   C16F10262   5.910   5.693   8.730 -0.1052 -0.4451  0.5246
  101OSM   H16F10263   5.949   5.753   8.645 -2.4058 -1.2164 -1.1471
  101OSM   H16G10264   5.860   5.773   8.789 -0.3603 -1.0527  1.1476
  101OSM   C17F10265   5.807   5.588   8.687 -0.5861 -0.1426  0.6868
  101OSM   H17F10266   5.743   5.550   8.769  0.1755  1.2734  2.0031
  101OSM   H17G10267   5.866   5.502   8.649  2.0870  1.7768  0.1601
  101OSM   C18F10268   5.719   5.630   8.568 -0.4481  0.5106 -0.0660
  101OSM   H18F10269   5.662   5.719   8.601  0.1679  0.5152  1.0139
  101OSM   H18G10270   5.642   5.552   8.546  0.3015 -0.5529  0.9420
  101OSM   H18H10271   5.779   5.659   8.479  1.3681 -2.0698  0.1952
  102OSM      N10272   4.552   5.386  10.939 -0.1213 -0.1131 -0.7533
  102OSM    C1510273   4.537   5.486  11.055  0.0911  0.1807 -0.0217
  102OSM   H15A10274   4.433   5.511  11.057 -0.1771 -0.9077  0.5209
  102OSM   H15B10275   4.597   5.575  11.040 -0.7625  0.5934 -1.1726
  102OSM   H15C10276   4.561   5.451  11.154  1.0028 -0.5289 -0.4651
  102OSM    C1410277   4.693   5.350  10.925 -0.4512  0.4011  0.3934
  102OSM   H14A10278   4.750   5.441  10.914  0.5739 -0.5270 -3.7800
  102OSM   H14B10279   4.707   5.296  10.833  0.3132  0.4093  0.4960
  102OSM   H14C10280   4.734   5.295  11.009  1.6697  0.7861 -0.3395
  102OSM    C1310281   4.472   5.261  10.965 -0.1912 -0.1125  0.2685
  102OSM   H13A10282   4.479   5.227  11.067 -2.2418  0.3315  0.5893
  102OSM   H13B10283   4.507   5.177  10.906  0.8841  1.1502 -0.9991
  102OSM   H13C10284   4.366   5.278  10.953 -0.2887 -0.0932  1.1587
  102OSM    C1210285   4.501   5.450  10.816  0.7468  0.0710 -0.4238
  102OSM   H12A10286   4.500   5.368  10.746  2.5055 -0.1345 -0.2423
  102OSM   H12B10287   4.566   5.529  10.783  0.9498 -0.0576 -0.3330
  102OSM    C1110288   4.363   5.522  10.837  0.5239 -0.4584  0.4731
  102OSM   H11A10289   4.297   5.458  10.898 -0.7815 -0.9550 -1.3816
  102OSM   H11B10290   4.295   5.535  10.751 -0.5060 -0.5202  1.2592
  102OSM      P10291   4.402   5.785  10.840  0.0982 -0.4077  0.2127
  102OSM    O1310292   4.288   5.828  10.760 -0.0444 -0.0907 -0.2665
  102OSM    O1410293   4.447   5.885  10.940 -0.0768 -1.2550 -0.0774
  102OSM    O1110294   4.532   5.751  10.757  1.0253 -0.5564 -0.5536
  102OSM    O1210295   4.369   5.641  10.913  0.2693 -0.0258 -0.1381
  102OSM    C1S10296   4.591   5.866  10.700 -0.6922 -0.1001  0.5006
  102OSM    H1S10297   4.674   5.903  10.764 -0.1554  1.0380 -0.8187
  102OSM    H1T10298   4.523   5.948  10.669  1.3645  1.0878 -1.0928
  102OSM     NF10299   4.722   5.949  10.517  0.0943 -0.1122 -0.0589
  102OSM    HNF10300   4.673   5.980  10.436  2.5690  1.7312 -0.9802
  102OSM    C2S10301   4.665   5.829  10.570 -0.4137 -0.1176  0.0517
  102OSM    H2S10302   4.747   5.758  10.594 -1.0594 -1.5427 -1.7572
  102OSM    C3S10303   4.582   5.751  10.470 -0.0070 -0.0332  0.3730
  102OSM    H3S10304   4.505   5.816  10.424  1.8766  0.3721 -2.4897
  102OSM     O310305   4.509   5.640  10.529  0.1154 -0.4161  0.7338
  102OSM    HO310306   4.521   5.660  10.622 -0.7673  1.1196  0.5543
  102OSM    C4S10307   4.667   5.702  10.361  0.2857  0.0664  0.7132
  102OSM    H4S10308   4.751   5.639  10.397 -0.5507 -2.4515 -1.4545
  102OSM    C5S10309   4.643   5.714  10.227 -0.3829  0.5279  0.0581
  102OSM    H5S10310   4.550   5.769  10.204  0.2825  1.0300 -1.5257
  102OSM    C6S10311   4.721   5.666  10.112  0.3325  0.8552 -0.4205
  102OSM    H6S10312   4.786   5.577  10.130  1.2383  1.1296 -2.0567
  102OSM    H6T10313   4.788   5.751  10.085  1.1877  0.5765  0.7743
  102OSM    C7S10314   4.634   5.617   9.995  0.3574 -0.1464  0.4948
  102OSM    H7S10315   4.708   5.580   9.921 -0.4128 -1.5853  0.4263
  102OSM    H7T10316   4.568   5.697   9.957 -0.5175 -1.4849 -0.9056
  102OSM    C8S10317   4.539   5.503  10.030  0.5510 -0.2824  0.6049
  102OSM    H8S10318   4.493   5.545  10.121  2.7248  1.3478  1.0598
  102OSM    H8T10319   4.589   5.406  10.052 -1.2340 -2.9952 -5.2498
  102OSM    C9S10320   4.433   5.480   9.915  0.0574 -0.2824 -0.1340
  102OSM    H9S10321   4.380   5.572   9.885  2.4709  0.4325 -2.5469
  102OSM    H9T10322   4.361   5.400   9.944 -1.5282  1.6171  1.4274
  102OSM   C10S10323   4.501   5.450   9.782  0.3257 -0.3404 -0.0943
  102OSM   H10S10324   4.570   5.363   9.789 -0.3601 -0.9830 -0.9867
  102OSM   H10T10325   4.561   5.539   9.753 -1.3012  0.9156  0.2467
  102OSM   C11S10326   4.408   5.434   9.657 -0.2052  0.0461 -0.0828
  102OSM   H11S10327   4.359   5.534   9.660  0.8639  0.5836 -0.1677
  102OSM   H11T10328   4.334   5.352   9.670 -1.9857  1.4885 -0.7359
  102OSM   C12S10329   4.491   5.407   9.537 -0.1729 -0.3462  0.4945
  102OSM   H12S10330   4.529   5.304   9.522 -0.7943 -0.4667 -0.3001
  102OSM   H12T10331   4.584   5.469   9.541 -0.2134 -0.2066 -0.4966
  102OSM   C13S10332   4.421   5.443   9.404 -0.1191 -0.3345 -0.7724
  102OSM   H13S10333   4.385   5.548   9.410  0.4782 -0.1683  0.0919
  102OSM   H13T10334   4.330   5.385   9.378 -0.4829 -0.5203  0.8277
  102OSM   C14S10335   4.516   5.431   9.280  0.1624 -0.1527 -0.2783
  102OSM   H14S10336   4.541   5.324   9.294 -1.0632 -0.5864 -1.2715
  102OSM   H14T10337   4.612   5.486   9.292 -0.8877  1.4489  1.3888
  102OSM   C15S10338   4.469   5.463   9.136  0.4858 -1.3157  0.1822
  102OSM   H15S10339   4.554   5.454   9.065 -0.0609 -0.3413 -0.6224
  102OSM   H15T10340   4.446   5.570   9.116  0.4632 -1.1062  1.2846
  102OSM   C16S10341   4.351   5.381   9.097  0.4094  0.5801  0.1338
  102OSM   H16S10342   4.299   5.347   9.189  1.1030 -1.7792 -0.2632
  102OSM   H16T10343   4.393   5.297   9.038 -0.7197 -0.5092  0.8231
  102OSM   C17S10344   4.247   5.458   9.017  0.6787 -0.5469 -0.1364
  102OSM   H17S10345   4.166   5.391   8.980 -3.5949  2.0682  3.2925
  102OSM   H17T10346   4.295   5.522   8.941 -2.5633  3.0128  0.4624
  102OSM   C18S10347   4.179   5.550   9.128  0.0383 -0.2570 -0.4511
  102OSM   H18S10348   4.247   5.621   9.179 -2.3041  1.0403  1.0733
  102OSM   H18T10349   4.118   5.493   9.202 -2.8031  2.1426 -0.7583
  102OSM   H18U10350   4.111   5.623   9.081 -0.1366 -1.8588 -2.8745
  102OSM    C1F10351   4.841   6.000  10.564 -1.0411  0.4852  0.5283
  102OSM     OF10352   4.906   5.948  10.655 -1.0357  0.2398  0.2218
  102OSM    C2F10353   4.871   6.136  10.503 -0.4381  0.4162 -0.8479
  102OSM    H2F10354   4.872   6.207  10.588 -3.4862 -0.3686 -0.0190
  102OSM    H2G10355   4.800   6.173  10.426 -0.9476  3.8633  1.0917
  102OSM    C3F10356   5.002   6.130  10.432 -0.7514  0.0490 -0.0469
  102OSM    H3F10357   5.000   6.042  10.365  0.0620 -0.2053  0.2489
  102OSM    H3G10358   5.081   6.115  10.509  0.3384  0.5113 -1.0330
  102OSM    C4F10359   5.037   6.267  10.365  0.5986  0.3427 -0.0722
  102OSM    H4F10360   5.124   6.311  10.418  1.1088  0.2156 -0.7979
  102OSM    H4G10361   4.955   6.342  10.373 -0.4713 -0.6847 -0.9422
  102OSM    C5F10362   5.067   6.241  10.216 -0.1186  0.6202 -0.6822
  102OSM    H5F10363   4.973   6.199  10.173  0.2413 -2.6894  1.3902
  102OSM    H5G10364   5.150   6.167  10.213  1.4928  2.3542 -0.1905
  102OSM    C6F10365   5.104   6.370  10.154 -0.0485 -0.2628  0.4443
  102OSM    H6F10366   5.196   6.408  10.202  0.0120  0.0995  0.0526
  102OSM    H6G10367   5.025   6.446  10.172  0.2513  0.0146  0.5860
  102OSM    C7F10368   5.124   6.360  10.000 -0.0462 -0.0144  0.3638
  102OSM    H7F10369   5.135   6.460   9.954  2.5166 -0.4638 -0.1798
  102OSM    H7G10370   5.032   6.310   9.964  0.3059  0.0602 -0.6803
  102OSM    C8F10371   5.238   6.275   9.949  0.3251 -0.6305  0.2688
  102OSM    H8F10372   5.251   6.276   9.839 -0.9790  0.3514  0.1044
  102OSM    H8G10373   5.221   6.166   9.957 -1.1549 -0.7886 -3.2467
  102OSM    C9F10374   5.365   6.322  10.008 -0.0601  0.0450 -0.1813
  102OSM    H9F10375   5.393   6.284  10.108 -1.8280 -1.7166 -0.2779
  102OSM   C10F10376   5.458   6.403   9.949  1.1457  0.3843 -1.0280
  102OSM   H10F10377   5.543   6.424  10.015 -0.0287  1.2026  0.2923
  102OSM   C11F10378   5.440   6.476   9.821  0.0153 -0.0818 -0.2254
  102OSM   H11F10379   5.457   6.584   9.841 -1.8110  0.1260  0.3128
  102OSM   H11G10380   5.338   6.459   9.782 -0.1684 -2.2007  1.0001
  102OSM   C12F10381   5.529   6.402   9.711 -0.5235 -0.5915  0.2687
  102OSM   H12F10382   5.519   6.292   9.707  0.8296 -0.8272  1.8768
  102OSM   H12G10383   5.634   6.430   9.736 -0.7559  0.6063 -0.0531
  102OSM   C13F10384   5.507   6.447   9.561 -0.0694  0.3264 -0.9412
  102OSM   H13F10385   5.526   6.556   9.558 -0.3532  0.3708 -1.1895
  102OSM   H13G10386   5.404   6.431   9.523 -0.5600 -0.0427  0.4707
  102OSM   C14F10387   5.601   6.373   9.466 -0.3598  0.7758 -0.0713
  102OSM   H14F10388   5.571   6.266   9.460 -0.5961  0.6785  1.9499
  102OSM   H14G10389   5.693   6.393   9.525 -0.1672  3.2223 -1.0994
  102OSM   C15F10390   5.615   6.430   9.327 -0.0491  0.1134 -0.2865
  102OSM   H15F10391   5.618   6.539   9.344 -1.2451  0.2831 -0.9898
  102OSM   H15G10392   5.521   6.407   9.272 -1.2411  1.6996  0.9936
  102OSM   C16F10393   5.740   6.378   9.254 -0.1302  0.1343  0.0354
  102OSM   H16F10394   5.778   6.283   9.298 -0.8910  0.5837  1.7115
  102OSM   H16G10395   5.830   6.440   9.273  1.3295 -1.6562 -0.7047
  102OSM   C17F10396   5.716   6.356   9.107  0.5832  0.0539  1.0349
  102OSM   H17F10397   5.690   6.453   9.059  2.1756 -0.7470 -1.7062
  102OSM   H17G10398   5.629   6.288   9.096 -1.1133  2.3590 -0.8933
  102OSM   C18F10399   5.840   6.292   9.037  0.3264 -0.4692 -0.3717
  102OSM   H18F10400   5.916   6.372   9.047 -1.2419  1.0670 -0.2111
  102OSM   H18G10401   5.819   6.270   8.930  0.8435  0.4863 -0.6777
  102OSM   H18H10402   5.866   6.191   9.076  0.5269 -0.4086 -0.3507
  103OSM      N10403   5.763   1.247  11.213  0.3589  0.0232 -0.1774
  103OSM    C1510404   5.666   1.132  11.209  0.9137 -0.4323  0.2220
  103OSM   H15A10405   5.577   1.153  11.266  1.4771 -0.0106  0.9678
  103OSM   H15B10406   5.696   1.034  11.245 -2.0978 -0.8046  2.1580
  103OSM   H15C10407   5.633   1.115  11.108 -0.2342  1.8508  0.1553
  103OSM    C1410408   5.704   1.355  11.131  0.6881 -0.0471 -0.0307
  103OSM   H14A10409   5.752   1.450  11.151  3.2938 -1.4728  0.9216
  103OSM   H14B10410   5.598   1.369  11.150  0.4435  0.7421 -1.7633
  103OSM   H14C10411   5.701   1.335  11.025  2.2687 -0.3435 -0.0392
  103OSM    C1310412   5.779   1.293  11.356  0.6775 -0.4939  0.5930
  103OSM   H13A10413   5.866   1.357  11.361  1.0886 -0.9538 -0.4044
  103OSM   H13B10414   5.798   1.209  11.421  0.4901 -1.3685 -0.4609
  103OSM   H13C10415   5.694   1.347  11.396  0.9539  0.9624 -0.6974
  103OSM    C1210416   5.899   1.209  11.159 -0.4803 -0.1093 -0.0489
  103OSM   H12A10417   5.961   1.297  11.169 -0.3055 -0.1202 -0.9080
  103OSM   H12B10418   5.899   1.203  11.051  0.5847  1.4387 -0.1658
  103OSM    C1110419   5.978   1.092  11.221 -0.0558 -0.0327  0.4066
  103OSM   H11A10420   5.976   1.099  11.332  0.5493 -0.7976  0.4830
  103OSM   H11B10421   6.084   1.099  11.187  0.2521 -2.6297  0.6145
  103OSM      P10422   5.986   0.871  11.079  0.1393 -0.4722  0.3032
  103OSM    O1310423   6.128   0.855  11.100 -0.0970 -0.6753  0.2632
  103OSM    O1410424   5.906   0.745  11.066 -0.4714  0.3470  0.0434
  103OSM    O1110425   5.966   0.950  10.946  0.0023  0.7258 -0.4976
  103OSM    O1210426   5.922   0.965  11.187  0.2804 -0.0037 -0.8819
  103OSM    C1S10427   5.829   0.987  10.902 -1.0100  0.5536  0.7376
  103OSM    H1S10428   5.807   1.080  10.958  0.8798 -0.0611  2.6365
  103OSM    H1T10429   5.745   0.920  10.928 -2.2339  1.0890 -1.6387
  103OSM     NF10430   5.697   1.086  10.715  0.1584  0.4064 -0.2518
  103OSM    HNF10431   5.624   1.031  10.675 -1.2218  0.9277  1.4263
  103OSM    C2S10432   5.827   1.015  10.744 -0.0389  0.1780  0.5182
  103OSM    H2S10433   5.904   1.089  10.713  0.2361 -1.1007 -2.1843
  103OSM    C3S10434   5.841   0.883  10.666  0.0710  0.7555 -0.1973
  103OSM    H3S10435   5.756   0.817  10.690  0.4844  0.0284 -0.7169
  103OSM     O310436   5.957   0.813  10.714 -0.5646  0.4593  0.6034
  103OSM    HO310437   5.978   0.836  10.805  0.8284  1.0400  0.1662
  103OSM    C4S10438   5.840   0.918  10.523 -0.0584 -0.0808  0.3355
  103OSM    H4S10439   5.905   1.003  10.498 -1.2917  1.4981  2.2999
  103OSM    C5S10440   5.765   0.889  10.422  0.9657 -0.5544  0.6053
  103OSM    H5S10441   5.681   0.819  10.434  0.2359  0.3356  0.8219
  103OSM    C6S10442   5.785   0.948  10.288 -0.7968  0.0118  0.4487
  103OSM    H6S10443   5.882   1.002  10.280  0.7895 -2.3485  2.4591
  103OSM    H6T10444   5.708   1.021  10.255 -1.7596 -0.5654  1.3796
  103OSM    C7S10445   5.796   0.849  10.170 -0.0268 -0.2810  0.0622
  103OSM    H7S10446   5.873   0.776  10.202 -1.9477 -2.5043 -0.1792
  103OSM    H7T10447   5.835   0.901  10.079  1.1751  2.1389  1.8449
  103OSM    C8S10448   5.665   0.791  10.117  0.1633 -0.1476 -0.2229
  103OSM    H8S10449   5.590   0.874  10.112 -0.6705 -0.6393  2.3042
  103OSM    H8T10450   5.629   0.720  10.194  2.5121 -0.0103  1.0915
  103OSM    C9S10451   5.679   0.715   9.981  0.1507  0.2329 -0.1425
  103OSM    H9S10452   5.745   0.627   9.992 -1.7600 -1.4170 -1.2951
  103OSM    H9T10453   5.718   0.779   9.899  1.9649 -0.5871  0.0281
  103OSM   C10S10454   5.540   0.662   9.934 -0.0002  0.5373 -0.1817
  103OSM   H10S10455   5.469   0.744   9.956 -1.2449 -0.3477 -0.8100
  103OSM   H10T10456   5.496   0.580   9.995 -2.3426 -0.4730 -3.0238
  103OSM   C11S10457   5.546   0.624   9.788 -0.5190 -0.0812 -0.5928
  103OSM   H11S10458   5.649   0.584   9.772  0.2594  0.8314  1.6096
  103OSM   H11T10459   5.552   0.720   9.733  0.3382  0.8929  1.0900
  103OSM   C12S10460   5.432   0.545   9.738  0.5268  0.3471  0.0817
  103OSM   H12S10461   5.341   0.600   9.772  1.1225  0.4343  1.5988
  103OSM   H12T10462   5.421   0.444   9.782 -0.0414  0.5368  0.3771
  103OSM   C13S10463   5.433   0.531   9.584  0.2288 -0.0613  0.1546
  103OSM   H13S10464   5.533   0.493   9.553  0.6016  0.8376  0.2132
  103OSM   H13T10465   5.410   0.630   9.538  1.7554  0.4717  0.4697
  103OSM   C14S10466   5.335   0.417   9.545  0.4638  0.8637  0.6283
  103OSM   H14S10467   5.232   0.446   9.575 -1.1823 -2.6669 -0.9737
  103OSM   H14T10468   5.364   0.325   9.601 -0.0924  1.9870  2.8592
  103OSM   C15S10469   5.350   0.388   9.393 -0.1170 -0.9269  0.1320
  103OSM   H15S10470   5.285   0.304   9.360 -0.3135 -0.3680 -0.9409
  103OSM   H15T10471   5.451   0.361   9.355 -0.3908 -1.9432  0.1155
  103OSM   C16S10472   5.295   0.511   9.313 -0.1396 -0.0258 -0.3799
  103OSM   H16S10473   5.356   0.602   9.332 -1.6760  0.8258  0.5754
  103OSM   H16T10474   5.197   0.540   9.354  1.3749 -0.0919  3.7312
  103OSM   C17S10475   5.283   0.473   9.167 -0.4334  0.6558  0.7276
  103OSM   H17S10476   5.372   0.419   9.129  0.2241  2.3479 -0.2260
  103OSM   H17T10477   5.284   0.565   9.104  1.2803 -1.5384 -2.7707
  103OSM   C18S10478   5.163   0.396   9.120  0.4817 -0.4359  0.0290
  103OSM   H18S10479   5.157   0.302   9.178  0.7376  0.1797  1.0839
  103OSM   H18T10480   5.167   0.379   9.010  0.9855 -0.9034  0.1128
  103OSM   H18U10481   5.069   0.451   9.141 -0.1559 -2.4660  2.9613
  103OSM    C1F10482   5.668   1.215  10.726 -0.1599 -0.0536  0.2185
  103OSM     OF10483   5.748   1.301  10.759 -0.5183  0.4252 -0.1628
  103OSM    C2F10484   5.527   1.257  10.690  0.6311  0.4346 -0.1433
  103OSM    H2F10485   5.475   1.271  10.787 -1.4798 -0.1816 -1.1135
  103OSM    H2G10486   5.472   1.175  10.639 -1.7100  1.7682  0.0681
  103OSM    C3F10487   5.527   1.387  10.616 -0.8069 -0.1529 -0.2386
  103OSM    H3F10488   5.582   1.467  10.670 -0.3145 -1.3622  1.1134
  103OSM    H3G10489   5.422   1.421  10.602 -0.5836  1.4799  1.6075
  103OSM    C4F10490   5.582   1.378  10.471 -0.1807 -0.1798 -0.2229
  103OSM    H4F10491   5.524   1.298  10.419 -0.9644 -0.5265  1.1295
  103OSM    H4G10492   5.689   1.349  10.473  0.3012  1.5460  1.1224
  103OSM    C5F10493   5.580   1.509  10.393  0.3459  0.2860  0.5178
  103OSM    H5F10494   5.659   1.582  10.422 -1.1285  2.6690 -1.0747
  103OSM    H5G10495   5.486   1.555  10.429 -1.3351 -2.7852  0.3493
  103OSM    C6F10496   5.582   1.485  10.238  0.5386 -0.0115  0.1930
  103OSM    H6F10497   5.582   1.591  10.205  2.6387 -0.3453 -1.0191
  103OSM    H6G10498   5.493   1.427  10.205 -0.4367  1.5716 -0.0943
  103OSM    C7F10499   5.707   1.416  10.177  0.2642 -0.2218 -0.0328
  103OSM    H7F10500   5.694   1.315  10.221 -1.6306  0.1841  0.3839
  103OSM    H7G10501   5.798   1.471  10.209 -0.1874  0.2836  0.4025
  103OSM    C8F10502   5.705   1.422  10.017  0.4757 -0.1873  0.6493
  103OSM    H8F10503   5.806   1.391   9.985 -0.3167 -0.9655 -1.2309
  103OSM    H8G10504   5.701   1.525   9.977 -1.7221 -1.2612 -2.2487
  103OSM    C9F10505   5.591   1.342   9.954 -0.3108 -0.1242  0.1922
  103OSM    H9F10506   5.489   1.357   9.992 -1.6312  1.7194 -3.5308
  103OSM   C10F10507   5.599   1.263   9.845 -0.8057 -0.0631  0.3927
  103OSM   H10F10508   5.505   1.218   9.809  0.7445 -1.1927 -2.6167
  103OSM   C11F10509   5.720   1.234   9.764  0.1394 -0.2590 -0.1876
  103OSM   H11F10510   5.808   1.240   9.831 -0.2242 -1.0743  0.3796
  103OSM   H11G10511   5.740   1.308   9.683  1.0596 -0.4628 -0.1510
  103OSM   C12F10512   5.722   1.093   9.701 -0.0189  0.0937  0.3778
  103OSM   H12F10513   5.727   1.016   9.780 -0.4772  1.2474  1.5830
  103OSM   H12G10514   5.822   1.080   9.654  0.4801  1.5040  0.9767
  103OSM   C13F10515   5.616   1.085   9.583  0.1807  0.3295  0.5088
  103OSM   H13F10516   5.623   0.979   9.550 -0.5224  0.8880 -1.5443
  103OSM   H13G10517   5.508   1.109   9.601  0.0177 -0.8527  1.2460
  103OSM   C14F10518   5.661   1.169   9.463  0.4810 -0.0513  0.0655
  103OSM   H14F10519   5.770   1.152   9.448  0.6908 -1.3295  2.5131
  103OSM   H14G10520   5.652   1.279   9.476 -0.2008  0.0691 -1.1980
  103OSM   C15F10521   5.578   1.135   9.335  0.0520  1.4078 -0.1505
  103OSM   H15F10522   5.472   1.147   9.366  0.6361  1.5239  2.0254
  103OSM   H15G10523   5.585   1.030   9.301  1.4746  1.7495 -1.0408
  103OSM   C16F10524   5.624   1.220   9.214 -0.5121  0.0310  0.5824
  103OSM   H16F10525   5.735   1.213   9.210 -0.4986 -0.5531  1.6004
  103OSM   H16G10526   5.602   1.324   9.245 -1.8229 -0.9800  3.3533
  103OSM   C17F10527   5.551   1.186   9.089  0.5076  0.6623  0.9262
  103OSM   H17F10528   5.560   1.076   9.078 -0.6800  0.6287  0.1759
  103OSM   H17G10529   5.601   1.222   8.996 -2.1558  0.2186 -0.7619
  103OSM   C18F10530   5.405   1.232   9.086 -0.1560  0.8354  0.4745
  103OSM   H18F10531   5.393   1.342   9.099 -3.0976  0.5229  1.1016
  103OSM   H18G10532   5.356   1.183   9.174 -0.1396 -0.4847 -0.2314
  103OSM   H18H10533   5.350   1.210   8.992  1.0290 -0.9896  0.1488
  104OSM      N10534   3.525   0.742  10.940  0.5741  0.0292 -0.2749
  104OSM    C1510535   3.488   0.649  10.831 -0.2478 -0.3073 -0.4162
  104OSM   H15A10536   3.523   0.686  10.736 -1.8478 -2.0544 -1.7779
  104OSM   H15B10537   3.380   0.647  10.828 -0.4220  0.8665  2.3561
  104OSM   H15C10538   3.531   0.550  10.835 -1.6727 -0.9868 -1.0711
  104OSM    C1410539   3.449   0.864  10.923  0.0889  0.5006  0.1562
  104OSM   H14A10540   3.456   0.911  10.826 -0.5490 -1.3473 -0.8270
  104OSM   H14B10541   3.468   0.937  11.001 -1.7627  0.6056  0.5607
  104OSM   H14C10542   3.344   0.842  10.938 -0.3903  2.2786 -0.3790
  104OSM    C1310543   3.488   0.674  11.067  0.1593 -0.5215  0.6172
  104OSM   H13A10544   3.381   0.659  11.068  0.0065 -0.0354 -1.7442
  104OSM   H13B10545   3.498   0.737  11.154 -0.8994  1.5555 -0.6888
  104OSM   H13C10546   3.534   0.580  11.092 -1.1487 -0.8634  1.9112
  104OSM    C1210547   3.677   0.765  10.927  0.4212  0.1307  0.5418
  104OSM   H12A10548   3.733   0.674  10.943 -1.4397 -0.7649  2.5426
  104OSM   H12B10549   3.717   0.828  11.006  1.2833  1.1936 -0.7032
  104OSM    C1110550   3.732   0.807  10.791 -0.0133 -0.1474 -0.2973
  104OSM   H11A10551   3.701   0.911  10.770 -0.5498  0.0506  1.3206
  104OSM   H11B10552   3.692   0.749  10.705 -0.1154 -1.7061  0.7381
  104OSM      P10553   3.953   0.668  10.753 -0.4393 -0.0892 -0.1989
  104OSM    O1310554   4.092   0.686  10.807  0.7723 -0.4822 -0.1166
  104OSM    O1410555   3.891   0.546  10.798 -0.2033  0.9241  0.0363
  104OSM    O1110556   3.934   0.683  10.592 -0.2083 -0.1885 -0.5090
  104OSM    O1210557   3.870   0.796  10.796 -0.0239  0.0591  0.1929
  104OSM    C1S10558   3.960   0.803  10.523 -0.0982 -0.9225 -0.2191
  104OSM    H1S10559   4.044   0.863  10.562 -1.1962 -0.5403  1.6981
  104OSM    H1T10560   3.874   0.873  10.531  2.1463  2.2982 -2.1175
  104OSM     NF10561   3.993   0.908  10.308  0.1407 -0.7859 -0.3047
  104OSM    HNF10562   3.913   0.951  10.267  1.1133  1.3440 -0.1127
  104OSM    C2S10563   3.983   0.782  10.374  0.4140  0.9351 -0.6640
  104OSM    H2S10564   4.078   0.725  10.377 -0.5444 -0.9960 -3.2777
  104OSM    C3S10565   3.885   0.685  10.306  0.1807  0.4071 -0.0683
  104OSM    H3S10566   3.784   0.731  10.305 -0.5402 -1.0898  0.1067
  104OSM     O310567   3.867   0.563  10.378 -0.1433 -0.4718  0.0858
  104OSM    HO310568   3.900   0.584  10.465 -0.7447  1.6224 -0.1516
  104OSM    C4S10569   3.938   0.660  10.163  0.0782  0.1227 -0.2354
  104OSM    H4S10570   4.017   0.584  10.159 -2.4388 -2.8145  1.0031
  104OSM    C5S10571   3.910   0.732  10.053 -0.0648 -0.0379  0.5593
  104OSM    H5S10572   3.842   0.818  10.062 -1.3457 -0.9464 -0.1468
  104OSM    C6S10573   3.970   0.706   9.915 -0.5768 -0.0319 -0.3044
  104OSM    H6S10574   4.078   0.735   9.909 -1.1308  1.8320 -3.2062
  104OSM    H6T10575   3.929   0.769   9.833 -0.5353 -1.4018 -1.4052
  104OSM    C7S10576   3.951   0.555   9.888 -0.1032  0.1775  0.0783
  104OSM    H7S10577   3.842   0.544   9.872 -0.2723 -0.9250  1.7897
  104OSM    H7T10578   3.968   0.489   9.975  0.1313  0.5043  0.2808
  104OSM    C8S10579   4.019   0.496   9.756  0.7449 -0.8433 -0.2587
  104OSM    H8S10580   4.002   0.387   9.742 -0.3425 -0.6678 -0.3955
  104OSM    H8T10581   4.128   0.514   9.768  0.4722 -0.5744  2.5094
  104OSM    C9S10582   3.974   0.582   9.635  0.4393  0.7038  0.6282
  104OSM    H9S10583   4.012   0.686   9.641  0.9531  0.5174  0.6972
  104OSM    H9T10584   3.863   0.585   9.635  0.3436 -0.7207 -1.0880
  104OSM   C10S10585   4.008   0.508   9.505  0.1013 -0.1581  0.1051
  104OSM   H10S10586   3.943   0.418   9.498 -0.3331  0.2955 -3.5600
  104OSM   H10T10587   4.107   0.459   9.515 -1.5707 -3.6370  1.3942
  104OSM   C11S10588   3.999   0.600   9.385  0.1667 -0.0404  0.5310
  104OSM   H11S10589   4.071   0.685   9.393  1.3180 -1.0230  0.9189
  104OSM   H11T10590   3.897   0.643   9.383 -0.5770 -1.6105 -3.0268
  104OSM   C12S10591   4.021   0.519   9.255  0.0315  0.1735 -0.6063
  104OSM   H12S10592   3.959   0.427   9.257  0.1550  0.0777  2.3281
  104OSM   H12T10593   4.122   0.473   9.262  0.0995  0.4588  0.4272
  104OSM   C13S10594   3.995   0.601   9.134  0.0196 -0.7167 -0.1315
  104OSM   H13S10595   4.066   0.686   9.129 -0.0467 -0.6134  0.5846
  104OSM   H13T10596   3.896   0.651   9.140  0.4762  0.0064  1.8135
  104OSM   C14S10597   4.009   0.527   9.000 -0.1615  0.2881  0.2720
  104OSM   H14S10598   3.981   0.596   8.917  0.1358 -1.2460 -1.1605
  104OSM   H14T10599   3.930   0.449   9.006 -1.3031  1.5081  2.5845
  104OSM   C15S10600   4.146   0.448   8.979 -0.2931 -0.6859 -0.9573
  104OSM   H15S10601   4.196   0.427   9.076 -0.6801 -0.6070 -0.7391
  104OSM   H15T10602   4.209   0.521   8.924  1.9555 -0.7752  1.3372
  104OSM   C16S10603   4.129   0.324   8.895 -0.2285 -0.2679  0.0620
  104OSM   H16S10604   4.057   0.337   8.811  0.7285  1.9788 -0.4991
  104OSM   H16T10605   4.097   0.238   8.958  0.8320 -1.3845 -0.8690
  104OSM   C17S10606   4.257   0.287   8.825 -0.6815  0.0754  0.5826
  104OSM   H17S10607   4.292   0.375   8.766  1.6736 -2.1643 -1.5882
  104OSM   H17T10608   4.246   0.206   8.750 -0.8340 -1.6193  2.3547
  104OSM   C18S10609   4.373   0.259   8.912 -0.1579  0.7950 -0.1105
  104OSM   H18S10610   4.394   0.350   8.973 -3.3070  1.4800  0.1335
  104OSM   H18T10611   4.465   0.243   8.852 -0.1758  3.6052 -1.0350
  104OSM   H18U10612   4.362   0.170   8.977  1.7433  2.7304  3.1060
  104OSM    C1F10613   4.107   0.980  10.306 -0.6755  0.0358  0.4227
  104OSM     OF10614   4.212   0.930  10.341  0.0251  0.4154  0.3887
  104OSM    C2F10615   4.104   1.114  10.245 -0.0415 -0.3494 -0.4695
  104OSM    H2F10616   4.167   1.171  10.316 -2.2987  2.2455 -0.3737
  104OSM    H2G10617   4.000   1.153  10.240  0.2648  0.4771 -0.4802
  104OSM    C3F10618   4.180   1.128  10.105 -0.0949 -0.0635 -0.0116
  104OSM    H3F10619   4.275   1.071  10.103  0.8243  1.3191  1.7940
  104OSM    H3G10620   4.210   1.235  10.100 -2.1817  0.5657 -0.2080
  104OSM    C4F10621   4.090   1.092   9.984 -0.0437  0.2210  0.0542
  104OSM    H4F10622   3.989   1.121  10.019  0.7030  2.0496  0.8466
  104OSM    H4G10623   4.079   0.981   9.982 -1.1788  0.1926  3.1611
  104OSM    C5F10624   4.130   1.158   9.857 -0.6243  0.2400 -0.5005
  104OSM    H5F10625   4.234   1.150   9.820 -1.4382  1.0902 -3.2328
  104OSM    H5G10626   4.125   1.268   9.871  1.6521  0.3541 -0.2031
  104OSM    C6F10627   4.038   1.129   9.734  0.3855 -0.0210 -0.3934
  104OSM    H6F10628   3.934   1.161   9.757  0.0485 -0.7757 -0.8316
  104OSM    H6G10629   4.045   1.019   9.723  0.6867 -0.0739  0.2789
  104OSM    C7F10630   4.071   1.194   9.601  0.0950  0.0314 -0.0365
  104OSM    H7F10631   4.169   1.150   9.572 -0.5816 -1.6178  0.1067
  104OSM    H7G10632   4.099   1.299   9.625  1.3621 -0.8247  2.6165
  104OSM    C8F10633   3.962   1.183   9.493 -0.1660 -0.1514 -0.0256
  104OSM    H8F10634   3.879   1.253   9.521 -0.4074 -0.7369  0.7687
  104OSM    H8G10635   3.920   1.081   9.502  0.9029 -0.5527  0.6415
  104OSM    C9F10636   4.019   1.212   9.358  0.1277  0.0101  0.2302
  104OSM    H9F10637   4.020   1.317   9.325  4.5209 -0.8575 -3.2827
  104OSM   C10F10638   4.056   1.129   9.263  0.1676 -0.4952  0.4920
  104OSM   H10F10639   4.095   1.171   9.169 -0.9903 -1.0262 -0.2600
  104OSM   C11F10640   4.060   0.980   9.276  0.3544  0.7419 -0.8924
  104OSM   H11F10641   3.974   0.930   9.227  0.2170  1.1521 -1.0775
  104OSM   H11G10642   4.063   0.948   9.382 -0.9426  1.3351 -0.6535
  104OSM   C12F10643   4.189   0.923   9.203  0.2568  0.0367 -0.1686
  104OSM   H12F10644   4.185   0.816   9.232  0.7014  0.4168  1.3922
  104OSM   H12G10645   4.281   0.967   9.248 -0.2707  0.7199  0.2471
  104OSM   C13F10646   4.192   0.945   9.051 -0.0210 -0.0173  0.0860
  104OSM   H13F10647   4.216   1.052   9.035 -0.7845  0.3821  1.5218
  104OSM   H13G10648   4.091   0.943   9.005  0.5513  2.1072 -1.3886
  104OSM   C14F10649   4.291   0.850   8.983  0.4361  0.5027 -0.1056
  104OSM   H14F10650   4.249   0.751   9.008  0.2733  1.0248  1.7884
  104OSM   H14G10651   4.398   0.859   9.015  1.1966 -0.0279 -2.3190
  104OSM   C15F10652   4.294   0.850   8.822  0.1928 -0.2391 -0.6139
  104OSM   H15F10653   4.297   0.960   8.802 -1.2832  0.2903  1.7249
  104OSM   H15G10654   4.199   0.803   8.790  1.3229 -2.0355 -1.5142
  104OSM   C16F10655   4.422   0.792   8.757  0.6850  0.1458 -0.1244
  104OSM   H16F10656   4.435   0.686   8.789 -1.0835 -0.3035 -0.8219
  104OSM   H16G10657   4.514   0.841   8.796  1.5474 -2.7034  1.7480
  104OSM   C17F10658   4.404   0.782   8.604 -0.5222 -0.3676 -0.1684
  104OSM   H17F10659   4.349   0.869   8.562 -1.6516 -1.4254 -0.9271
  104OSM   H17G10660   4.340   0.695   8.580 -0.1178 -0.5748 -0.5174
  104OSM   C18F10661   4.535   0.758   8.531  0.2123  0.0926 -0.8632
  104OSM   H18F10662   4.519   0.752   8.421  2.2204 -0.5277 -1.1561
  104OSM   H18G10663   4.584   0.669   8.574  1.0494  1.1545  0.4685
  104OSM   H18H10664   4.598   0.847   8.554 -1.1909  0.8957  0.0371
  105OSM      N10665   3.480   6.692  11.096  0.3143  0.2025  0.4543
  105OSM    C1510666   3.503   6.552  11.162 -0.2270 -0.1102  0.7153
  105OSM   H15A10667   3.597   6.506  11.137 -0.8314  0.2443 -2.6232
  105OSM   H15B10668   3.422   6.483  11.144  0.5856 -0.9975  0.4027
  105OSM   H15C10669   3.517   6.557  11.269  2.3875 -0.4071  0.4427
  105OSM    C1410670   3.343   6.739  11.126 -0.6329  0.1973 -0.1732
  105OSM   H14A10671   3.270   6.666  11.095 -3.3473  3.2511 -1.5599
  105OSM   H14B10672   3.312   6.832  11.080 -3.2706 -0.0225  0.9965
  105OSM   H14C10673   3.334   6.739  11.234 -1.7916  0.1663 -0.2567
  105OSM    C1310674   3.576   6.794  11.134 -0.0936 -0.2123  0.0779
  105OSM   H13A10675   3.677   6.762  11.118 -0.0786  0.8893 -2.7110
  105OSM   H13B10676   3.559   6.831  11.234  0.9658 -0.7042  0.4467
  105OSM   H13C10677   3.572   6.883  11.071  0.9130  0.4440  0.9112
  105OSM    C1210678   3.485   6.669  10.943  0.7049 -0.4351 -0.4149
  105OSM   H12A10679   3.418   6.588  10.920 -3.0537  1.8782  1.3233
  105OSM   H12B10680   3.585   6.652  10.907  1.5626  3.4230 -0.3602
  105OSM    C1110681   3.434   6.784  10.844 -0.4234 -0.1687 -0.2011
  105OSM   H11A10682   3.326   6.804  10.861 -0.7754 -4.1100  4.3054
  105OSM   H11B10683   3.447   6.739  10.743  2.5815  1.7894 -0.8031
  105OSM      P10684   3.483   7.041  10.881 -0.2053 -0.3433  0.4020
  105OSM    O1310685   3.347   7.051  10.933 -0.0368 -0.0760 -0.0540
  105OSM    O1410686   3.590   7.094  10.968 -0.2544  0.4266 -1.0215
  105OSM    O1110687   3.494   7.113  10.745  0.5544  0.1412 -0.2944
  105OSM    O1210688   3.525   6.893  10.844  0.3238  0.2620 -0.6365
  105OSM    C1S10689   3.594   7.110  10.652 -0.4028  0.1184 -0.4129
  105OSM    H1S10690   3.648   7.013  10.658  0.7053  0.6418 -1.4944
  105OSM    H1T10691   3.664   7.196  10.664 -1.8979  1.6872 -2.3531
  105OSM     NF10692   3.656   7.120  10.407 -0.0226 -0.1828 -0.5085
  105OSM    HNF10693   3.714   7.198  10.384 -2.3272  0.8243 -3.6161
  105OSM    C2S10694   3.544   7.137  10.504 -0.2663 -0.1757 -0.2065
  105OSM    H2S10695   3.470   7.055  10.493 -0.4321 -0.6931  3.5290
  105OSM    C3S10696   3.469   7.276  10.484 -0.5809 -0.4438  0.5832
  105OSM    H3S10697   3.531   7.367  10.499 -1.0110  0.0026 -0.2359
  105OSM     O310698   3.356   7.285  10.563  0.4436 -0.6154  0.1723
  105OSM    HO310699   3.365   7.213  10.627  5.0980 -0.7785 -0.3204
  105OSM    C4S10700   3.425   7.275  10.339  0.1312 -0.1909  0.1707
  105OSM    H4S10701   3.338   7.211  10.318 -1.1672  0.5939  2.6810
  105OSM    C5S10702   3.481   7.348  10.242 -0.1169 -0.1308 -0.1430
  105OSM    H5S10703   3.579   7.392  10.264  0.2254 -0.8136 -0.2665
  105OSM    C6S10704   3.445   7.364  10.099  0.1310 -0.1656  0.5097
  105OSM    H6S10705   3.414   7.469  10.080  0.2022 -0.2948 -0.3673
  105OSM    H6T10706   3.372   7.288  10.064  0.5075 -1.9519  3.2932
  105OSM    C7S10707   3.576   7.345  10.022  0.6466  0.0289 -0.1570
  105OSM    H7S10708   3.642   7.267  10.067 -0.2044 -0.1125  0.9037
  105OSM    H7T10709   3.637   7.435  10.043  1.3770 -0.7807  1.4188
  105OSM    C8S10710   3.565   7.343   9.869  0.0097  1.5023 -0.2794
  105OSM    H8S10711   3.663   7.382   9.835  0.1570  2.5363  1.2073
  105OSM    H8T10712   3.483   7.408   9.830 -0.1707  1.8040  0.5766
  105OSM    C9S10713   3.538   7.199   9.819 -0.1460 -0.1847 -0.3982
  105OSM    H9S10714   3.465   7.147   9.885  0.3117 -0.9824 -0.5125
  105OSM    H9T10715   3.629   7.135   9.827 -1.2714 -1.7556  0.3823
  105OSM   C10S10716   3.462   7.199   9.685  0.1335 -0.8977 -0.1053
  105OSM   H10S10717   3.396   7.288   9.689  0.8138 -0.4187  0.9608
  105OSM   H10T10718   3.414   7.099   9.668 -1.0606 -0.1602 -1.3230
  105OSM   C11S10719   3.572   7.213   9.568 -0.0027 -0.1427 -0.3680
  105OSM   H11S10720   3.644   7.131   9.589  2.3149  1.1539 -2.7658
  105OSM   H11T10721   3.620   7.313   9.576 -0.9337  0.3577 -0.8911
  105OSM   C12S10722   3.517   7.193   9.424 -0.7369 -0.0691  0.3674
  105OSM   H12S10723   3.481   7.293   9.389  2.8795  0.5471 -2.1804
  105OSM   H12T10724   3.423   7.134   9.429 -0.6966 -0.0800  1.1318
  105OSM   C13S10725   3.620   7.153   9.316 -0.0100 -0.4697  0.6198
  105OSM   H13S10726   3.667   7.057   9.346 -0.9083 -1.2797 -0.4677
  105OSM   H13T10727   3.699   7.231   9.318 -2.6517  2.4306  0.8306
  105OSM   C14S10728   3.560   7.142   9.172 -0.3261 -0.3955  0.5911
  105OSM   H14S10729   3.455   7.108   9.184 -0.2521 -0.8815 -0.0684
  105OSM   H14T10730   3.615   7.072   9.106 -2.1228  1.3769 -3.0853
  105OSM   C15S10731   3.577   7.276   9.107 -0.0219 -0.0336 -0.8682
  105OSM   H15S10732   3.675   7.327   9.105  0.8662 -1.4877  1.3309
  105OSM   H15T10733   3.518   7.346   9.169  2.1067  1.6823 -0.6844
  105OSM   C16S10734   3.520   7.272   8.964  0.2540  0.4528 -0.0025
  105OSM   H16S10735   3.475   7.372   8.947 -1.7832 -0.3036  0.6920
  105OSM   H16T10736   3.431   7.206   8.955  0.6166  0.1212 -1.5974
  105OSM   C17S10737   3.636   7.234   8.873  1.4229 -0.7076  0.2512
  105OSM   H17S10738   3.675   7.140   8.918  1.2985 -0.8526  0.0570
  105OSM   H17T10739   3.719   7.306   8.891 -0.0492  0.4116  3.4066
  105OSM   C18S10740   3.590   7.230   8.725 -0.2801  0.6039 -0.5182
  105OSM   H18S10741   3.583   7.332   8.680  0.6746 -0.2176 -2.6592
  105OSM   H18T10742   3.496   7.174   8.712 -0.2425  0.7293 -1.3664
  105OSM   H18U10743   3.662   7.180   8.657 -0.0284  0.0441  0.1526
  105OSM    C1F10744   3.695   7.006  10.358  0.0267  0.9488 -0.3600
  105OSM     OF10745   3.669   6.897  10.411  0.2798 -0.2676 -0.0747
  105OSM    C2F10746   3.763   7.004  10.228  0.5717  0.2026  0.1380
  105OSM    H2F10747   3.810   7.103  10.213 -1.0530  0.8394 -1.0658
  105OSM    H2G10748   3.692   6.970  10.149 -0.5454  0.0875  1.1501
  105OSM    C3F10749   3.881   6.906  10.216 -0.0196  0.4967  0.5972
  105OSM    H3F10750   3.845   6.802  10.235 -1.2138  0.6047 -0.8541
  105OSM    H3G10751   3.955   6.928  10.295 -0.2632 -2.8370  1.9401
  105OSM    C4F10752   3.924   6.924  10.068  0.5151  0.3773 -0.0955
  105OSM    H4F10753   4.034   6.907  10.065  0.0130 -4.4815  0.1606
  105OSM    H4G10754   3.893   7.023  10.030 -2.1975  0.2732  1.6306
  105OSM    C5F10755   3.862   6.820   9.978 -0.3124 -0.1902 -0.5218
  105OSM    H5F10756   3.752   6.823   9.989 -0.0981  0.0673  2.2256
  105OSM    H5G10757   3.884   6.714  10.003 -0.2750 -0.5603 -2.0157
  105OSM    C6F10758   3.893   6.848   9.826 -0.2967  0.6594 -0.0103
  105OSM    H6F10759   4.002   6.866   9.830 -0.3833  1.3828 -0.6482
  105OSM    H6G10760   3.841   6.938   9.786 -0.3076 -0.3626 -2.4397
  105OSM    C7F10761   3.875   6.729   9.729  0.4622  0.1350 -0.3651
  105OSM    H7F10762   3.768   6.728   9.703  0.2733 -2.1549  0.2835
  105OSM    H7G10763   3.904   6.637   9.784 -1.9311 -1.3052 -1.3763
  105OSM    C8F10764   3.961   6.753   9.600  0.4214 -0.1318  0.1198
  105OSM    H8F10765   3.956   6.659   9.542  0.9751 -0.4122  0.5163
  105OSM    H8G10766   4.068   6.771   9.623  0.1595  0.5990  0.8182
  105OSM    C9F10767   3.913   6.872   9.528  0.0721  0.0366  0.0426
  105OSM    H9F10768   3.837   6.935   9.575  0.1477 -1.2843  2.0462
  105OSM   C10F10769   3.932   6.907   9.400  0.3792  0.0064  0.3643
  105OSM   H10F10770   3.889   6.998   9.356 -0.0412 -0.1303  0.4891
  105OSM   C11F10771   4.010   6.820   9.297  0.3099 -0.8018  0.4714
  105OSM   H11F10772   4.081   6.751   9.349  0.6314 -0.0650  1.0300
  105OSM   H11G10773   4.053   6.903   9.238  0.4924 -0.0576  1.6181
  105OSM   C12F10774   3.925   6.742   9.200 -0.5285  0.7301 -0.0802
  105OSM   H12F10775   3.846   6.684   9.252 -1.4600  1.0278 -1.1245
  105OSM   H12G10776   3.984   6.666   9.145 -1.6832 -1.8032  1.9857
  105OSM   C13F10777   3.848   6.831   9.098 -0.1108  0.0372  0.1500
  105OSM   H13F10778   3.911   6.913   9.057 -1.1877  0.0481 -1.5843
  105OSM   H13G10779   3.769   6.890   9.150 -0.8161 -1.8855  1.3529
  105OSM   C14F10780   3.788   6.760   8.979  0.5717  0.1978  0.5664
  105OSM   H14F10781   3.708   6.692   9.014  1.1172  0.4680  2.4066
  105OSM   H14G10782   3.876   6.712   8.931  0.2793 -0.4232  0.6486
  105OSM   C15F10783   3.742   6.867   8.873  0.3647  0.7017 -0.0295
  105OSM   H15F10784   3.834   6.924   8.844  1.5730 -1.2457 -0.1842
  105OSM   H15G10785   3.665   6.932   8.919  1.8494  2.2439  0.4014
  105OSM   C16F10786   3.688   6.802   8.736 -0.7130 -0.2438 -0.6032
  105OSM   H16F10787   3.643   6.885   8.677 -1.3750 -0.0869  0.1101
  105OSM   H16G10788   3.598   6.746   8.769  0.0162  0.4446  2.8529
  105OSM   C17F10789   3.784   6.721   8.656 -0.0684 -0.2902  0.3088
  105OSM   H17F10790   3.737   6.657   8.579 -1.6145 -0.6378  1.4880
  105OSM   H17G10791   3.823   6.642   8.724  2.2963 -1.2127 -1.9700
  105OSM   C18F10792   3.911   6.795   8.604  0.8976  0.3301 -0.0336
  105OSM   H18F10793   3.969   6.834   8.690 -0.0723  0.7787  0.4366
  105OSM   H18G10794   3.883   6.865   8.523 -0.2820  0.4712  0.4827
  105OSM   H18H10795   3.978   6.723   8.552 -0.2258  0.3633 -1.6107
  106OSM      N10796   4.232   4.859  11.158 -0.5122 -0.1876 -0.1184
  106OSM    C1510797   4.210   4.978  11.240  0.9464  0.3293  0.5970
  106OSM   H15A10798   4.114   5.027  11.235  0.0859 -1.3257  0.5177
  106OSM   H15B10799   4.290   5.051  11.232  1.4406 -0.3428 -1.0398
  106OSM   H15C10800   4.218   4.940  11.341  1.4229  1.0453  0.8362
  106OSM    C1410801   4.375   4.810  11.161 -0.4851  0.4385  0.0463
  106OSM   H14A10802   4.390   4.716  11.110 -2.1488 -0.3522  0.9315
  106OSM   H14B10803   4.406   4.792  11.263  1.2497 -0.8185 -0.6448
  106OSM   H14C10804   4.436   4.886  11.115 -0.6838  1.4653  1.4152
  106OSM    C1310805   4.140   4.755  11.219  0.3196  0.1040 -0.2392
  106OSM   H13A10806   4.162   4.659  11.174 -0.9375  0.1709 -1.0675
  106OSM   H13B10807   4.034   4.768  11.200  0.5544  0.5231 -1.3247
  106OSM   H13C10808   4.164   4.753  11.324  0.7234  0.1349 -0.3307
  106OSM    C1210809   4.178   4.873  11.020 -0.1211  0.6902 -0.0174
  106OSM   H12A10810   4.071   4.880  11.031 -0.2091 -1.1788  0.7108
  106OSM   H12B10811   4.190   4.781  10.965  1.5873  0.0496  1.3302
  106OSM    C1110812   4.234   4.989  10.929  0.4329 -0.5855 -0.3282
  106OSM   H11A10813   4.213   4.951  10.826  1.6136 -0.9084 -0.4584
  106OSM   H11B10814   4.344   4.987  10.944  0.2601  1.6724  1.9697
  106OSM      P10815   4.070   5.181  10.889  0.2495 -0.4899 -0.3920
  106OSM    O1310816   3.941   5.120  10.931 -0.5944  0.0999  0.1082
  106OSM    O1410817   4.087   5.327  10.906 -0.0111 -0.7796 -0.4884
  106OSM    O1110818   4.109   5.153  10.742  0.3303 -0.3638  0.6917
  106OSM    O1210819   4.184   5.116  10.969 -0.2793 -0.3580 -0.2405
  106OSM    C1S10820   4.220   5.230  10.689  0.0490  0.2860 -0.2294
  106OSM    H1S10821   4.315   5.226  10.747 -0.0903 -1.2461 -0.0687
  106OSM    H1T10822   4.192   5.338  10.680 -2.3350 -0.3607 -1.3986
  106OSM     NF10823   4.359   5.277  10.488  0.2417 -0.2934 -0.4279
  106OSM    HNF10824   4.336   5.336  10.412  1.7827 -0.8856 -1.3842
  106OSM    C2S10825   4.251   5.191  10.544 -0.2529  0.4924 -0.1433
  106OSM    H2S10826   4.293   5.088  10.550 -1.1340  0.0267 -1.5542
  106OSM    C3S10827   4.125   5.180  10.446  0.1951 -0.5091 -0.5157
  106OSM    H3S10828   4.066   5.274  10.443 -0.5979 -1.0256 -1.3731
  106OSM     O310829   4.038   5.079  10.499  0.0184  0.1837  0.0434
  106OSM    HO310830   4.065   5.070  10.591  0.0632 -3.7753 -0.1825
  106OSM    C4S10831   4.163   5.147  10.308 -0.5262 -0.8525 -0.5937
  106OSM    H4S10832   4.161   5.040  10.285 -2.6916 -1.4769  2.0761
  106OSM    C5S10833   4.182   5.241  10.216 -0.3839  0.0508  0.1543
  106OSM    H5S10834   4.183   5.346  10.250  1.9059  0.8703 -2.1244
  106OSM    C6S10835   4.232   5.215  10.077  0.0433  0.0869 -0.0558
  106OSM    H6S10836   4.343   5.219  10.069  0.0921 -0.7293  0.0512
  106OSM    H6T10837   4.178   5.288  10.013 -3.4890 -0.3577  2.1828
  106OSM    C7S10838   4.205   5.072  10.029 -0.4636  0.7247  0.5057
  106OSM    H7S10839   4.096   5.054  10.034 -0.5693  1.0171 -0.5535
  106OSM    H7T10840   4.262   5.004  10.096  0.5978  1.1818  0.0837
  106OSM    C8S10841   4.242   5.032   9.887  0.2258  0.3857 -0.6874
  106OSM    H8S10842   4.217   4.924   9.879  2.6322 -0.1814 -1.5021
  106OSM    H8T10843   4.351   5.036   9.868 -0.1641  1.0596 -3.1297
  106OSM    C9S10844   4.174   5.107   9.773  0.3466 -0.8868 -0.6516
  106OSM    H9S10845   4.198   5.216   9.776  1.4154 -1.1390  1.1131
  106OSM    H9T10846   4.071   5.110   9.815  1.0021  2.3062  1.0364
  106OSM   C10S10847   4.175   5.049   9.636  0.4219 -0.1214 -0.0179
  106OSM   H10S10848   4.078   5.067   9.584 -0.5745 -1.4329  1.2917
  106OSM   H10T10849   4.178   4.938   9.637  2.2094 -0.2185 -3.2638
  106OSM   C11S10850   4.282   5.106   9.545  0.0308  0.0648  0.5476
  106OSM   H11S10851   4.367   5.101   9.617 -0.3867 -0.6817  1.0127
  106OSM   H11T10852   4.272   5.214   9.521  3.1865 -0.0669 -1.8833
  106OSM   C12S10853   4.310   5.024   9.416 -0.1088 -0.2279  0.6499
  106OSM   H12S10854   4.311   4.915   9.439 -0.3678 -0.8735 -2.1169
  106OSM   H12T10855   4.413   5.052   9.384 -0.7213  0.4725 -0.7590
  106OSM   C13S10856   4.213   5.067   9.306  0.0836 -0.0684 -0.0324
  106OSM   H13S10857   4.209   5.177   9.291  1.9171  0.0408  0.0778
  106OSM   H13T10858   4.111   5.034   9.336 -0.1300 -0.5494 -1.2394
  106OSM   C14S10859   4.255   5.010   9.173 -0.1826  0.9098  0.1983
  106OSM   H14S10860   4.267   4.899   9.171  2.1752  1.0988 -0.3936
  106OSM   H14T10861   4.359   5.037   9.141  0.7098 -2.2124  0.0977
  106OSM   C15S10862   4.161   5.052   9.055  0.4203 -1.0062 -0.2786
  106OSM   H15S10863   4.166   5.163   9.059  1.5944 -1.0279 -0.7207
  106OSM   H15T10864   4.055   5.028   9.075 -0.4493  2.7920  0.5427
  106OSM   C16S10865   4.212   5.003   8.917  0.0072  0.2226 -0.4607
  106OSM   H16S10866   4.313   5.049   8.904  1.6351 -2.7060  0.7550
  106OSM   H16T10867   4.152   5.047   8.835 -1.0808  3.6044  1.9321
  106OSM   C17S10868   4.242   4.854   8.897  0.0237 -0.4277  0.0448
  106OSM   H17S10869   4.251   4.801   8.995 -1.7469  0.4578  0.7517
  106OSM   H17T10870   4.338   4.845   8.843  0.4503 -4.8713  1.1949
  106OSM   C18S10871   4.134   4.789   8.810 -1.1742 -0.0804 -0.1329
  106OSM   H18S10872   4.049   4.764   8.878  1.8922 -0.3433  4.0074
  106OSM   H18T10873   4.172   4.691   8.772 -1.9185 -1.0020  1.3620
  106OSM   H18U10874   4.094   4.857   8.732  0.4964  1.3193  0.1791
  106OSM    C1F10875   4.484   5.267  10.529  0.1396  0.3866  0.5465
  106OSM     OF10876   4.517   5.207  10.634 -0.1003  1.0025 -0.1507
  106OSM    C2F10877   4.586   5.342  10.445 -0.1582 -0.1318 -0.0067
  106OSM    H2F10878   4.643   5.409  10.513 -0.1195 -0.0861 -0.0844
  106OSM    H2G10879   4.534   5.413  10.378  0.0257 -0.6008 -0.6612
  106OSM    C3F10880   4.683   5.254  10.371  1.1836 -0.1259 -0.3482
  106OSM    H3F10881   4.752   5.195  10.435  0.9041 -1.2006 -1.0211
  106OSM    H3G10882   4.750   5.321  10.312  1.6689  0.2534  0.6032
  106OSM    C4F10883   4.611   5.150  10.279  0.8883 -0.2402  1.2857
  106OSM    H4F10884   4.537   5.206  10.218  1.2878 -1.3502 -0.2782
  106OSM    H4G10885   4.551   5.067  10.319 -1.2705  0.5978 -0.0297
  106OSM    C5F10886   4.708   5.086  10.177  0.4197  0.4644 -0.6029
  106OSM    H5F10887   4.756   4.998  10.226 -2.5464 -0.8186  0.2313
  106OSM    H5G10888   4.787   5.157  10.145 -0.0543  1.4783  0.4245
  106OSM    C6F10889   4.630   5.032  10.063  0.1093  0.4462  0.4421
  106OSM    H6F10890   4.571   5.109  10.008  1.0563  0.5207 -0.5122
  106OSM    H6G10891   4.569   4.944  10.093  2.8337 -2.3421 -1.5341
  106OSM    C7F10892   4.731   4.975   9.964 -0.0534 -0.7789 -0.0856
  106OSM    H7F10893   4.770   4.879  10.004 -0.2912  0.0005  2.1522
  106OSM    H7G10894   4.815   5.048   9.961 -0.8233  0.2894  1.9802
  106OSM    C8F10895   4.674   4.956   9.819  0.1041 -0.1448 -0.5504
  106OSM    H8F10896   4.761   4.924   9.758  0.4964  1.3900 -0.8385
  106OSM    H8G10897   4.651   5.058   9.783  0.0718 -0.1563 -0.5616
  106OSM    C9F10898   4.564   4.846   9.814  0.7141 -0.3583  1.3617
  106OSM    H9F10899   4.483   4.871   9.883 -0.5294  1.3483 -0.5950
  106OSM   C10F10900   4.560   4.743   9.728 -0.0245  0.0526 -0.8782
  106OSM   H10F10901   4.479   4.670   9.745 -0.2820  0.9274  2.4339
  106OSM   C11F10902   4.656   4.707   9.619 -0.5836 -0.6020 -0.1764
  106OSM   H11F10903   4.751   4.661   9.654  0.0211  0.6674 -0.0709
  106OSM   H11G10904   4.688   4.797   9.562 -1.5570 -0.5015 -0.5871
  106OSM   C12F10905   4.576   4.607   9.523 -0.7368 -0.2473 -0.6465
  106OSM   H12F10906   4.484   4.653   9.482 -0.5906 -0.6179 -1.3970
  106OSM   H12G10907   4.544   4.522   9.588  2.1100 -0.5833  0.4898
  106OSM   C13F10908   4.666   4.562   9.400  0.3939  0.1516  0.4609
  106OSM   H13F10909   4.731   4.477   9.431 -1.8965 -1.7381  0.3622
  106OSM   H13G10910   4.731   4.644   9.362  0.3876  0.9873  2.1377
  106OSM   C14F10911   4.586   4.513   9.274  0.1594  1.0189 -0.2210
  106OSM   H14F10912   4.492   4.568   9.257  0.0984  0.8574 -0.4046
  106OSM   H14G10913   4.573   4.403   9.287 -1.3361  0.8858 -2.3673
  106OSM   C15F10914   4.656   4.541   9.139 -0.8692 -0.0926  0.0164
  106OSM   H15F10915   4.750   4.485   9.123 -0.8338 -0.5433  1.6248
  106OSM   H15G10916   4.673   4.649   9.121  1.8321 -0.3339  0.6912
  106OSM   C16F10917   4.573   4.495   9.028  0.2853  0.0382  0.0680
  106OSM   H16F10918   4.466   4.519   9.041  0.6347  2.3498 -0.9281
  106OSM   H16G10919   4.574   4.385   9.013 -1.1781 -0.2195  1.5561
  106OSM   C17F10920   4.605   4.555   8.896  0.1771  0.5556  0.8995
  106OSM   H17F10921   4.708   4.521   8.875 -0.2416 -2.4013  3.0292
  106OSM   H17G10922   4.599   4.666   8.899 -0.0502  0.5364  1.5246
  106OSM   C18F10923   4.510   4.509   8.781  0.2484  0.6231  0.6107
  106OSM   H18F10924   4.556   4.545   8.687 -2.7898  2.3496 -0.3838
  106OSM   H18G10925   4.414   4.564   8.795  0.2509  0.8639 -0.2602
  106OSM   H18H10926   4.495   4.399   8.784 -0.2478  0.6670 -0.0465
  107OSM      N10927   5.594   4.696  10.958 -0.7013  0.1345  0.0707
  107OSM    C1510928   5.506   4.720  10.846  0.4510 -0.3927 -0.2519
  107OSM   H15A10929   5.548   4.700  10.748  2.3047  1.6163  0.0406
  107OSM   H15B10930   5.480   4.825  10.849 -0.1309 -0.5332 -0.3342
  107OSM   H15C10931   5.414   4.664  10.855 -0.1312  0.3626 -1.2830
  107OSM    C1410932   5.727   4.764  10.931  0.2979  0.3460 -0.2452
  107OSM   H14A10933   5.698   4.865  10.908 -1.6177 -0.5487 -2.1160
  107OSM   H14B10934   5.773   4.719  10.844  0.2057 -1.6656  0.6843
  107OSM   H14C10935   5.802   4.751  11.007  0.0069  0.5912  0.0849
  107OSM    C1310936   5.530   4.755  11.077  0.3701  0.3080 -0.2512
  107OSM   H13A10937   5.494   4.852  11.049 -1.9460 -0.0280  1.2498
  107OSM   H13B10938   5.591   4.777  11.163 -2.1707  1.0843  1.4601
  107OSM   H13C10939   5.447   4.694  11.109  1.4240 -2.4088 -2.2772
  107OSM    C1210940   5.624   4.551  10.982  0.1697 -0.6432 -0.3386
  107OSM   H12A10941   5.528   4.509  11.010  1.6684 -1.7754  3.9690
  107OSM   H12B10942   5.692   4.543  11.066  0.1647  1.7728 -0.0309
  107OSM    C1110943   5.676   4.464  10.867 -0.2654 -0.0434 -0.4357
  107OSM   H11A10944   5.759   4.520  10.819 -2.0196  1.8292 -1.4801
  107OSM   H11B10945   5.594   4.457  10.792  0.9130 -2.8977 -1.6149
  107OSM      P10946   5.825   4.288  10.995 -0.3213  0.1592 -0.8857
  107OSM    O1310947   5.878   4.413  11.049  0.3571 -0.0929 -0.0131
  107OSM    O1410948   5.796   4.185  11.099 -0.0260  0.5103 -0.6176
  107OSM    O1110949   5.911   4.232  10.883 -0.7064  0.0464 -0.0420
  107OSM    O1210950   5.694   4.334  10.923  0.1408 -0.0976  0.2479
  107OSM    C1S10951   5.867   4.129  10.788 -0.7312 -0.1790  0.1922
  107OSM    H1S10952   5.788   4.066  10.835 -0.1257 -1.9356 -1.0403
  107OSM    H1T10953   5.949   4.059  10.761  0.4023  1.7124 -1.5215
  107OSM     NF10954   5.761   4.117  10.557 -0.9292  0.4459  0.4466
  107OSM    HNF10955   5.820   4.093  10.480  0.1710 -0.6584  1.5865
  107OSM    C2S10956   5.817   4.208  10.661 -0.2182  0.2902  0.0353
  107OSM    H2S10957   5.732   4.273  10.693  0.7419  2.9875 -2.4286
  107OSM    C3S10958   5.926   4.314  10.611  0.1924  0.1638  0.1789
  107OSM    H3S10959   6.023   4.260  10.601  2.6861  4.1223  0.7467
  107OSM     O310960   5.956   4.418  10.699  0.6085 -0.2393 -0.2127
  107OSM    HO310961   5.941   4.381  10.786  0.2608  0.5984  0.0958
  107OSM    C4S10962   5.883   4.373  10.484 -0.1931 -0.1809  0.1788
  107OSM    H4S10963   5.804   4.448  10.503 -2.0232 -1.9029 -0.2996
  107OSM    C5S10964   5.937   4.354  10.361  0.4492  0.4664 -0.0201
  107OSM    H5S10965   6.023   4.287  10.348 -0.5864 -0.4911 -2.6830
  107OSM    C6S10966   5.891   4.409  10.225  0.3578  0.6111  0.2971
  107OSM    H6S10967   5.974   4.467  10.180  1.8946  0.8842  3.2413
  107OSM    H6T10968   5.802   4.475  10.231  1.7259  2.3811  3.0071
  107OSM    C7S10969   5.840   4.298  10.123 -0.5116 -0.3935  0.8829
  107OSM    H7S10970   5.748   4.248  10.158 -0.3010 -2.1674 -0.9185
  107OSM    H7T10971   5.905   4.208  10.123  0.3033  0.1687  1.6892
  107OSM    C8S10972   5.816   4.362   9.988 -0.4958  0.6322  0.5579
  107OSM    H8S10973   5.905   4.424   9.964 -0.6453  1.5237  2.1588
  107OSM    H8T10974   5.737   4.439  10.001 -2.0857 -0.7867 -0.2962
  107OSM    C9S10975   5.768   4.268   9.876 -0.4218 -0.0248  0.1639
  107OSM    H9S10976   5.685   4.208   9.920 -0.0146 -0.4299  0.3951
  107OSM    H9T10977   5.852   4.200   9.851 -0.8667 -0.7539  0.6013
  107OSM   C10S10978   5.718   4.345   9.749 -0.6883  0.0150  0.1361
  107OSM   H10S10979   5.775   4.440   9.746 -0.3575 -0.0837  2.0273
  107OSM   H10T10980   5.612   4.373   9.766 -0.5846  0.2479  0.3999
  107OSM   C11S10981   5.749   4.271   9.616 -0.3366 -0.8563 -0.3546
  107OSM   H11S10982   5.854   4.237   9.612  0.2574  0.9063 -1.1110
  107OSM   H11T10983   5.723   4.343   9.535  1.5068  1.0042  0.6063
  107OSM   C12S10984   5.653   4.153   9.599 -0.4949 -0.4584  0.6375
  107OSM   H12S10985   5.548   4.188   9.583  0.1725  1.8803  1.0395
  107OSM   H12T10986   5.648   4.097   9.695  2.6962 -1.6173  0.2323
  107OSM   C13S10987   5.695   4.070   9.476  0.7290  0.7279  0.1639
  107OSM   H13S10988   5.634   3.977   9.472  1.5212  0.1871  0.4166
  107OSM   H13T10989   5.793   4.028   9.507  0.3045  1.0877  2.0837
  107OSM   C14S10990   5.710   4.151   9.344 -0.2304 -0.4176  0.3957
  107OSM   H14S10991   5.790   4.228   9.341  0.5369 -1.1522  1.4008
  107OSM   H14T10992   5.612   4.200   9.323  0.3968  0.5245 -0.4478
  107OSM   C15S10993   5.731   4.075   9.210  0.1980  0.6335  0.0562
  107OSM   H15S10994   5.644   4.011   9.184  1.0520 -0.1394 -0.9924
  107OSM   H15T10995   5.824   4.014   9.220 -0.9790 -1.0403  1.1702
  107OSM   C16S10996   5.750   4.169   9.091  0.7707 -0.0540 -0.4173
  107OSM   H16S10997   5.854   4.198   9.114  0.3314 -0.2498  2.1041
  107OSM   H16T10998   5.682   4.254   9.112  0.2326 -0.4949 -0.3456
  107OSM   C17S10999   5.738   4.104   8.950 -0.8267 -0.2824 -0.2505
  107OSM   H17S11000   5.749   4.180   8.870 -0.4292  0.7808  0.7908
  107OSM   H17T11001   5.635   4.065   8.937 -0.6802 -0.1568 -1.9636
  107OSM   C18S11002   5.857   4.002   8.943  1.4503 -0.4920  0.0984
  107OSM   H18S11003   5.836   3.933   8.859  0.9587  1.1605 -1.1946
  107OSM   H18T11004   5.874   3.936   9.031 -0.5999 -1.4615 -0.1753
  107OSM   H18U11005   5.954   4.054   8.932  1.0332  0.6628  1.5309
  107OSM    C1F11006   5.668   4.023  10.590 -0.1198 -0.3353 -0.2679
  107OSM     OF11007   5.605   4.012  10.696 -0.1877 -0.1241 -0.2992
  107OSM    C2F11008   5.645   3.929  10.483 -1.1445 -0.0502  0.4502
  107OSM    H2F11009   5.568   3.853  10.508 -0.7891 -1.7987 -3.1435
  107OSM    H2G11010   5.749   3.891  10.473 -0.2107  2.1824  1.0449
  107OSM    C3F11011   5.594   3.998  10.349 -0.2867 -0.2237 -0.6428
  107OSM    H3F11012   5.664   4.068  10.299 -1.2958  0.0359 -1.7333
  107OSM    H3G11013   5.497   4.049  10.366  0.8848  1.5161  1.3979
  107OSM    C4F11014   5.559   3.884  10.250  0.1627  0.3253  0.1310
  107OSM    H4F11015   5.484   3.825  10.306 -0.7526  2.2202  0.9969
  107OSM    H4G11016   5.645   3.814  10.242  0.5059  0.5104  1.8063
  107OSM    C5F11017   5.503   3.944  10.120  0.6501 -0.4036  0.0236
  107OSM    H5F11018   5.576   4.021  10.086  2.0517 -1.8583 -0.3824
  107OSM    H5G11019   5.403   3.990  10.134  1.2571  0.6928  0.8634
  107OSM    C6F11020   5.503   3.851  10.001  0.3201  0.2671  0.2235
  107OSM    H6F11021   5.437   3.762  10.009 -0.2303  0.7490  1.2792
  107OSM    H6G11022   5.608   3.821   9.981 -0.0146  0.2954 -1.7616
  107OSM    C7F11023   5.446   3.930   9.880  0.1001 -0.4580  0.2426
  107OSM    H7F11024   5.468   4.038   9.896  0.9574 -0.4912 -0.6219
  107OSM    H7G11025   5.336   3.911   9.884  0.0795 -1.1787 -1.9773
  107OSM    C8F11026   5.499   3.880   9.749  0.0014  0.3805  0.0012
  107OSM    H8F11027   5.605   3.907   9.733 -0.0913  0.8411  0.1461
  107OSM    H8G11028   5.452   3.930   9.661 -0.2268  1.2613  0.6032
  107OSM    C9F11029   5.495   3.727   9.728  0.2286  0.7970  0.7561
  107OSM    H9F11030   5.554   3.665   9.798  0.7039  0.9454  0.4910
  107OSM   C10F11031   5.438   3.671   9.624 -0.0806  0.3438  0.6152
  107OSM   H10F11032   5.449   3.561   9.621 -0.4575  0.3127  0.3077
  107OSM   C11F11033   5.351   3.734   9.520 -0.1789 -0.0957  1.1579
  107OSM   H11F11034   5.316   3.833   9.555 -0.3509  0.1383  0.3625
  107OSM   H11G11035   5.257   3.675   9.526  1.1427 -2.2568  1.7081
  107OSM   C12F11036   5.411   3.750   9.375 -0.2070 -1.2026 -0.6759
  107OSM   H12F11037   5.499   3.817   9.378 -0.0148 -1.4701 -0.3511
  107OSM   H12G11038   5.336   3.816   9.326  2.5570  2.3456 -0.5067
  107OSM   C13F11039   5.436   3.621   9.297  0.3415  0.5677 -0.1369
  107OSM   H13F11040   5.366   3.540   9.327  0.3501  1.4740  2.5767
  107OSM   H13G11041   5.540   3.586   9.318  1.1025  2.1536 -1.0203
  107OSM   C14F11042   5.405   3.650   9.153  0.6381  0.4606 -0.4293
  107OSM   H14F11043   5.431   3.756   9.134  0.9583  0.6505  0.9368
  107OSM   H14G11044   5.300   3.624   9.128  1.3984 -0.3524 -3.0317
  107OSM   C15F11045   5.479   3.553   9.068 -0.0120  0.0462 -0.2169
  107OSM   H15F11046   5.483   3.449   9.107 -0.7333 -0.9198 -2.5424
  107OSM   H15G11047   5.586   3.581   9.064  0.0584 -0.1857 -0.0044
  107OSM   C16F11048   5.415   3.548   8.926 -0.4702  0.7343 -0.1815
  107OSM   H16F11049   5.319   3.495   8.944  0.8168 -1.8361 -0.5066
  107OSM   H16G11050   5.486   3.483   8.871  0.6374  1.1190  0.7601
  107OSM   C17F11051   5.408   3.683   8.855 -0.6063 -0.1711  0.1034
  107OSM   H17F11052   5.345   3.756   8.910  0.2199 -0.3796  1.3707
  107OSM   H17G11053   5.370   3.672   8.751  1.8190 -1.6221 -0.7240
  107OSM   C18F11054   5.544   3.738   8.826  0.3136 -0.4301 -0.2301
  107OSM   H18F11055   5.538   3.833   8.770  0.6996  0.6919  1.5543
  107OSM   H18G11056   5.609   3.666   8.772 -1.1709 -0.6919 -1.7509
  107OSM   H18H11057   5.605   3.754   8.918  3.0090  2.2701 -2.2990
  108OSM      N11058   2.495   0.664  10.788 -0.0287 -0.5881  0.5656
  108OSM    C1511059   2.610   0.677  10.688  0.4117  0.0950 -0.2887
  108OSM   H15A11060   2.584   0.730  10.598  0.7015 -1.0407 -1.0709
  108OSM   H15B11061   2.647   0.577  10.669 -2.0270 -0.7849 -0.7467
  108OSM   H15C11062   2.687   0.728  10.743  0.8787  1.1933 -1.8786
  108OSM    C1411063   2.547   0.569  10.890  0.6505 -0.0103 -0.8196
  108OSM   H14A11064   2.467   0.555  10.961  1.1847 -1.1662 -0.4206
  108OSM   H14B11065   2.637   0.604  10.939 -1.3522  0.4568  2.8224
  108OSM   H14C11066   2.572   0.480  10.833 -0.0497 -1.5533  1.1886
  108OSM    C1311067   2.472   0.797  10.857 -0.0896 -0.0809  0.9273
  108OSM   H13A11068   2.549   0.849  10.911  0.9789  0.1554 -0.7484
  108OSM   H13B11069   2.392   0.779  10.927 -0.2776 -2.0922  0.2614
  108OSM   H13C11070   2.422   0.862  10.786 -0.2986 -1.2878 -0.0568
  108OSM    C1211071   2.366   0.611  10.727  0.1136  0.2434 -0.2362
  108OSM   H12A11072   2.339   0.661  10.636  1.6170  1.8218  0.1217
  108OSM   H12B11073   2.291   0.632  10.802  0.9801  0.5431  0.5725
  108OSM    C1111074   2.370   0.454  10.698  0.8973  0.2173  0.0961
  108OSM   H11A11075   2.462   0.425  10.643 -1.0893 -0.3005 -3.1994
  108OSM   H11B11076   2.282   0.439  10.632  1.6147 -2.1558 -0.3882
  108OSM      P11077   2.229   0.383  10.911 -0.1349 -0.4583  0.3798
  108OSM    O1311078   2.222   0.257  10.990  0.2279  0.0340  0.4450
  108OSM    O1411079   2.236   0.513  10.987 -0.0965  0.5016  0.3410
  108OSM    O1111080   2.101   0.388  10.823 -0.0984 -0.0292  1.2931
  108OSM    O1211081   2.352   0.374  10.817  0.0440 -0.2826 -0.0642
  108OSM    C1S11082   2.012   0.506  10.840 -0.0541 -0.3659  0.1045
  108OSM    H1S11083   2.065   0.603  10.836 -0.3776 -0.2040 -2.9227
  108OSM    H1T11084   1.946   0.496  10.928 -0.4751 -1.9490 -0.3486
  108OSM     NF11085   1.858   0.645  10.699  0.0664  0.7236 -0.8946
  108OSM    HNF11086   1.770   0.651  10.745 -0.0373  3.0357 -1.2652
  108OSM    C2S11087   1.917   0.513  10.710 -0.1009 -0.7210  0.1090
  108OSM    H2S11088   1.980   0.496  10.620  0.1986  1.4881 -0.1526
  108OSM    C3S11089   1.816   0.398  10.718  0.0039 -0.4910  0.3684
  108OSM    H3S11090   1.767   0.421  10.816 -0.2311  3.9599 -0.5943
  108OSM     O311091   1.878   0.269  10.713 -0.6545  0.1862  0.4667
  108OSM    HO311092   1.972   0.288  10.717 -0.6131  0.3087 -0.8606
  108OSM    C4S11093   1.724   0.396  10.602 -0.0613  0.0950  0.1062
  108OSM    H4S11094   1.772   0.345  10.517 -0.8115  0.2758 -0.4354
  108OSM    C5S11095   1.594   0.407  10.604 -0.2507 -0.5963  0.1316
  108OSM    H5S11096   1.543   0.435  10.697 -1.6707 -0.7510 -0.5664
  108OSM    C6S11097   1.509   0.396  10.480 -0.0230 -0.2674 -0.0908
  108OSM    H6S11098   1.426   0.468  10.497  0.3069 -0.1476  1.0866
  108OSM    H6T11099   1.455   0.299  10.475 -4.0242  1.7667 -0.7948
  108OSM    C7S11100   1.589   0.402  10.348  0.0806 -0.6469 -0.0933
  108OSM    H7S11101   1.673   0.330  10.358 -0.0475 -0.9992 -1.2767
  108OSM    H7T11102   1.630   0.504  10.335  0.4387 -0.8687 -0.7282
  108OSM    C8S11103   1.497   0.361  10.235 -0.8077 -0.1834 -0.2758
  108OSM    H8S11104   1.404   0.422  10.240 -1.9282 -1.8989  1.1363
  108OSM    H8T11105   1.479   0.251  10.233 -1.2871 -0.1104 -0.1362
  108OSM    C9S11106   1.577   0.393  10.105 -0.1121  0.0417 -0.2645
  108OSM    H9S11107   1.660   0.322  10.089 -0.1306  0.0973 -0.6306
  108OSM    H9T11108   1.607   0.500  10.107  3.1189 -0.7709  0.6685
  108OSM   C10S11109   1.471   0.381   9.992  0.7957  1.1867 -0.1713
  108OSM   H10S11110   1.415   0.476  10.004  0.8475  0.9913  1.8839
  108OSM   H10T11111   1.405   0.299  10.027  3.5942 -0.5240  1.4015
  108OSM   C11S11112   1.530   0.372   9.855  0.1024  0.4242 -0.1027
  108OSM   H11S11113   1.565   0.267   9.851 -1.5504 -0.3176  2.4992
  108OSM   H11T11114   1.616   0.439   9.835  0.2312 -0.3318 -2.3684
  108OSM   C12S11115   1.430   0.382   9.739 -0.5189 -1.1465 -0.0679
  108OSM   H12S11116   1.391   0.485   9.730  0.9877 -0.6241 -1.0271
  108OSM   H12T11117   1.339   0.323   9.763 -0.7405 -0.7476  0.0616
  108OSM   C13S11118   1.485   0.344   9.595  0.3765 -0.4613  0.3454
  108OSM   H13S11119   1.427   0.266   9.542  1.6739  0.4327 -2.6377
  108OSM   H13T11120   1.586   0.305   9.621  1.0117  0.8092 -0.0806
  108OSM   C14S11121   1.481   0.461   9.502 -0.6048 -0.4338 -0.2018
  108OSM   H14S11122   1.538   0.547   9.544  0.8998 -2.6047  2.4963
  108OSM   H14T11123   1.371   0.479   9.503 -0.4924  0.6765 -2.1190
  108OSM   C15S11124   1.544   0.422   9.364 -0.4339  0.1793  0.0343
  108OSM   H15S11125   1.507   0.327   9.320 -1.2131 -0.0813  1.2101
  108OSM   H15T11126   1.651   0.396   9.379  0.3485  1.9167 -1.9717
  108OSM   C16S11127   1.558   0.536   9.263  0.4733  0.3907 -0.4300
  108OSM   H16S11128   1.602   0.625   9.314  1.0689  0.4825 -1.0806
  108OSM   H16T11129   1.461   0.575   9.226  0.0259 -0.5652 -0.2951
  108OSM   C17S11130   1.651   0.502   9.150 -0.1899  0.5308  0.2698
  108OSM   H17S11131   1.615   0.419   9.086 -1.7405 -0.2521  2.0835
  108OSM   H17T11132   1.752   0.478   9.190 -1.0034 -0.3204  1.9372
  108OSM   C18S11133   1.690   0.617   9.045  0.0797  0.1091 -0.4524
  108OSM   H18S11134   1.778   0.579   8.988  0.5961  1.5776 -0.6853
  108OSM   H18T11135   1.706   0.711   9.102 -0.3456  0.5148 -0.9889
  108OSM   H18U11136   1.607   0.627   8.972  0.8516  0.5323 -1.3054
  108OSM    C1F11137   1.917   0.751  10.649  0.2702  0.0631 -0.4929
  108OSM     OF11138   2.031   0.747  10.608  0.0570 -0.3971 -0.3798
  108OSM    C2F11139   1.836   0.879  10.639 -0.0233 -0.1972  0.3487
  108OSM    H2F11140   1.878   0.953  10.711  0.0876  0.0919 -0.0114
  108OSM    H2G11141   1.732   0.868  10.678 -0.5937 -1.2924 -1.3771
  108OSM    C3F11142   1.839   0.930  10.494  0.1698 -0.0996  0.0959
  108OSM    H3F11143   1.947   0.938  10.468  0.2918 -3.0002 -0.6215
  108OSM    H3G11144   1.789   1.029  10.487  0.2270 -0.1438 -1.2197
  108OSM    C4F11145   1.761   0.851  10.387  0.0772  0.4039 -0.3343
  108OSM    H4F11146   1.658   0.849  10.428 -0.1362 -2.2742 -0.7817
  108OSM    H4G11147   1.792   0.744  10.380  1.0137  0.6027  0.4995
  108OSM    C5F11148   1.771   0.918  10.257 -0.0732 -0.4200 -0.1403
  108OSM    H5F11149   1.881   0.930  10.246  0.0987 -1.5443  0.2348
  108OSM    H5G11150   1.727   1.020  10.260  0.9923  0.1073 -1.4935
  108OSM    C6F11151   1.706   0.846  10.141 -0.7936 -0.7618  0.0012
  108OSM    H6F11152   1.599   0.820  10.156 -0.4843 -2.6866 -0.8128
  108OSM    H6G11153   1.769   0.755  10.136  0.1539 -0.1063 -0.3952
  108OSM    C7F11154   1.720   0.928  10.013 -0.5378 -0.1357  0.7012
  108OSM    H7F11155   1.828   0.952  10.001 -0.6091 -1.0198 -2.8708
  108OSM    H7G11156   1.673   1.028  10.007  1.7123  0.9734  0.5038
  108OSM    C8F11157   1.682   0.848   9.889  0.7132  0.8909  0.2807
  108OSM    H8F11158   1.745   0.756   9.884 -0.3440  0.1134  0.7854
  108OSM    H8G11159   1.708   0.916   9.806  1.6448  0.2186 -0.0023
  108OSM    C9F11160   1.531   0.821   9.897  0.0562  0.0238  0.9461
  108OSM    H9F11161   1.510   0.744   9.973 -0.2310  0.3512  1.2032
  108OSM   C10F11162   1.436   0.862   9.809  0.0299  0.0953 -0.2846
  108OSM   H10F11163   1.330   0.844   9.831 -0.3302  1.0523 -1.1480
  108OSM   C11F11164   1.458   0.967   9.704  0.3863  0.6600  0.1024
  108OSM   H11F11165   1.533   1.045   9.728  2.4653 -0.7285 -1.5261
  108OSM   H11G11166   1.362   1.020   9.684 -0.5290 -0.6186  0.9812
  108OSM   C12F11167   1.494   0.914   9.563  0.1661  0.0738 -0.2388
  108OSM   H12F11168   1.419   0.844   9.520  0.7370 -1.1959  0.7411
  108OSM   H12G11169   1.586   0.851   9.569  0.0466  0.0489  2.4382
  108OSM   C13F11170   1.536   1.022   9.468  0.2638  0.1228 -0.1096
  108OSM   H13F11171   1.639   1.053   9.494  0.2862 -0.6371  0.7485
  108OSM   H13G11172   1.458   1.101   9.474 -0.1229 -0.3304  1.1743
  108OSM   C14F11173   1.554   0.979   9.320 -0.0298  0.4284  0.6514
  108OSM   H14F11174   1.647   0.917   9.314  0.7784  1.7258 -1.4003
  108OSM   H14G11175   1.579   1.070   9.263 -1.1654 -1.2651 -2.8424
  108OSM   C15F11176   1.440   0.905   9.260  0.3098 -0.5414  0.2679
  108OSM   H15F11177   1.336   0.935   9.283  0.0633 -1.6100  0.5958
  108OSM   H15G11178   1.453   0.797   9.282  1.8578 -0.7261 -1.3522
  108OSM   C16F11179   1.453   0.892   9.110  0.1013 -0.3969 -0.0363
  108OSM   H16F11180   1.397   0.803   9.076 -1.1635  0.8177 -1.2773
  108OSM   H16G11181   1.559   0.876   9.080  0.6855  1.7626  0.6565
  108OSM   C17F11182   1.409   1.019   9.040 -0.3186 -0.4960 -0.0508
  108OSM   H17F11183   1.485   1.099   9.055  0.7932 -1.2211 -1.5481
  108OSM   H17G11184   1.312   1.048   9.085 -0.2286  1.0535 -0.8190
  108OSM   C18F11185   1.400   1.000   8.887 -0.3144  0.1393 -0.2504
  108OSM   H18F11186   1.349   0.904   8.866  0.6839  0.0428 -2.4748
  108OSM   H18G11187   1.501   1.012   8.844 -0.1730  0.6642  0.2139
  108OSM   H18H11188   1.344   1.081   8.834 -0.1364  0.2534 -0.2654
  109OSM      N11189   4.031   1.095  10.918  0.3684 -0.2160  0.3954
  109OSM    C1511190   4.162   1.040  10.892 -0.3368 -1.0158  0.4469
  109OSM   H15A11191   4.220   1.057  10.982  0.0789 -1.0484  0.1868
  109OSM   H15B11192   4.208   1.081  10.804  0.7142 -0.5128  1.1990
  109OSM   H15C11193   4.143   0.937  10.866 -1.7977 -0.5367 -0.4448
  109OSM    C1411194   3.990   1.033  11.043  0.9887  0.3119 -0.5901
  109OSM   H14A11195   3.884   1.040  11.063  1.1118 -0.7838  0.5608
  109OSM   H14B11196   4.048   1.062  11.129  2.0270 -0.1473 -1.1148
  109OSM   H14C11197   4.005   0.928  11.024  2.1687  0.0259  1.6793
  109OSM    C1311198   4.031   1.245  10.944  0.3521 -0.0655 -0.6945
  109OSM   H13A11199   4.082   1.266  11.036 -0.8293  1.8672 -0.4104
  109OSM   H13B11200   3.930   1.279  10.961 -0.6601 -2.5577 -1.3119
  109OSM   H13C11201   4.070   1.300  10.859  0.7197  0.4235 -0.2119
  109OSM    C1211202   3.931   1.066  10.811 -0.3379  0.2851  0.4185
  109OSM   H12A11203   3.837   1.074  10.864 -1.3382  0.7593 -1.3546
  109OSM   H12B11204   3.941   0.968  10.767  1.6092  0.8869 -0.5903
  109OSM    C1111205   3.942   1.167  10.689 -0.0873  0.0371 -0.2287
  109OSM   H11A11206   3.914   1.110  10.598  1.2540 -1.2640  0.1310
  109OSM   H11B11207   4.042   1.207  10.661 -1.0472  1.0210 -2.5108
  109OSM      P11208   3.709   1.262  10.725 -0.0591  0.4611  0.2307
  109OSM    O1311209   3.685   1.198  10.857  0.8837  0.4156 -0.1142
  109OSM    O1411210   3.638   1.384  10.684  0.4140 -0.3171 -0.1518
  109OSM    O1111211   3.690   1.146  10.620  0.0511  0.3066  0.2371
  109OSM    O1211212   3.863   1.283  10.710  0.6716 -0.3859  0.1663
  109OSM    C1S11213   3.665   1.164  10.480 -0.5385 -0.2874 -1.2316
  109OSM    H1S11214   3.759   1.175  10.422 -0.2527 -0.1553 -0.7498
  109OSM    H1T11215   3.609   1.257  10.456 -0.1818  0.6930  1.4034
  109OSM     NF11216   3.557   1.089  10.279  0.3895  0.0800  0.4422
  109OSM    HNF11217   3.477   1.144  10.255 -2.6337 -3.5419  1.1875
  109OSM    C2S11218   3.579   1.055  10.420 -0.3631  0.5898 -0.1729
  109OSM    H2S11219   3.636   0.961  10.436 -2.4931 -0.5595  1.1242
  109OSM    C3S11220   3.454   1.052  10.509  0.6073 -0.4445  1.0507
  109OSM    H3S11221   3.407   1.153  10.516 -0.6417 -0.9698  0.5205
  109OSM     O311222   3.473   0.995  10.638 -0.1537 -0.1227 -0.3471
  109OSM    HO311223   3.553   1.035  10.672 -0.5032  1.5868 -1.3900
  109OSM    C4S11224   3.348   0.975  10.429  0.0514  0.2139  0.3297
  109OSM    H4S11225   3.366   0.867  10.440  0.4668  0.4699  2.8758
  109OSM    C5S11226   3.256   1.028  10.345  0.0034  0.4607  0.0578
  109OSM    H5S11227   3.238   1.136  10.329  1.2962  0.6276 -0.4072
  109OSM    C6S11228   3.167   0.944  10.260  0.4098  0.1616 -0.0612
  109OSM    H6S11229   3.078   0.913  10.319 -1.0143 -0.1539 -2.2892
  109OSM    H6T11230   3.217   0.847  10.239 -0.1578  0.2827 -2.1296
  109OSM    C7S11231   3.124   1.018  10.126 -0.8375  0.8291 -0.5755
  109OSM    H7S11232   3.056   1.102  10.152 -0.8176  0.3981  0.9603
  109OSM    H7T11233   3.057   0.944  10.078 -1.5251  1.3007 -0.3608
  109OSM    C8S11234   3.246   1.072  10.041  0.4384  0.6156  0.2449
  109OSM    H8S11235   3.323   0.992  10.042  0.2992  0.4358 -1.3441
  109OSM    H8T11236   3.294   1.161  10.087  1.9337  0.6834 -1.3298
  109OSM    C9S11237   3.198   1.096   9.896  0.0608 -0.7664  0.3958
  109OSM    H9S11238   3.160   1.003   9.850 -1.2394 -0.8963  1.6310
  109OSM    H9T11239   3.296   1.119   9.849 -0.3466 -0.5669 -0.3579
  109OSM   C10S11240   3.093   1.208   9.866  0.0080  0.6092 -0.1230
  109OSM   H10S11241   3.137   1.302   9.908  2.0716  0.7345 -2.3457
  109OSM   H10T11242   3.002   1.166   9.914  0.9175 -0.4373  0.7351
  109OSM   C11S11243   3.079   1.230   9.712  0.9972  1.1778 -0.2609
  109OSM   H11S11244   3.166   1.281   9.665  0.9169  2.0372  0.4889
  109OSM   H11T11245   2.998   1.306   9.704  1.4031  1.6436  0.0503
  109OSM   C12S11246   3.025   1.106   9.627  0.3322  0.1040 -0.0335
  109OSM   H12S11247   2.943   1.065   9.691  1.1049  0.8976  1.5213
  109OSM   H12T11248   3.106   1.033   9.609  0.4214  0.8562 -3.2403
  109OSM   C13S11249   2.972   1.163   9.494 -0.8723  0.6024 -0.2710
  109OSM   H13S11250   2.888   1.233   9.517 -1.1857  1.0438 -2.5517
  109OSM   H13T11251   2.924   1.075   9.445  0.8465  0.3440 -1.5863
  109OSM   C14S11252   3.083   1.215   9.404  0.2673  0.5810 -0.5466
  109OSM   H14S11253   3.179   1.164   9.426  0.0861 -0.9246 -2.9250
  109OSM   H14T11254   3.086   1.326   9.396  1.6929  0.6114 -0.0398
  109OSM   C15S11255   3.058   1.183   9.250  0.3223 -0.5308  0.3708
  109OSM   H15S11256   2.959   1.228   9.225  0.1022  0.7466  3.2011
  109OSM   H15T11257   3.044   1.073   9.243  0.1083 -0.4566 -0.5077
  109OSM   C16S11258   3.160   1.236   9.146  0.2682  0.8281 -0.0953
  109OSM   H16S11259   3.260   1.189   9.154  0.3921  1.2892  1.2721
  109OSM   H16T11260   3.183   1.340   9.179 -0.7126  0.9764  0.1551
  109OSM   C17S11261   3.107   1.238   8.998  0.1730  0.2653 -0.1924
  109OSM   H17S11262   3.184   1.288   8.935  2.3670 -2.0119  0.4981
  109OSM   H17T11263   3.021   1.308   9.000  0.0414  0.1078  1.8991
  109OSM   C18S11264   3.066   1.097   8.959  0.0886 -0.3719 -0.1108
  109OSM   H18S11265   3.000   1.120   8.873 -0.1651 -2.0097 -0.3803
  109OSM   H18T11266   3.027   1.042   9.047  1.0853  0.0646  0.6286
  109OSM   H18U11267   3.160   1.049   8.923  0.9241 -0.0193  1.5016
  109OSM    C1F11268   3.651   1.057  10.184  0.6878 -0.1981 -0.3997
  109OSM     OF11269   3.742   0.988  10.217  0.1145  0.0680  0.4351
  109OSM    C2F11270   3.645   1.113  10.048 -0.1369  0.1483 -0.6424
  109OSM    H2F11271   3.720   1.195  10.041 -1.2858  1.2125 -0.8329
  109OSM    H2G11272   3.548   1.167  10.039  0.4935  1.7407  1.2167
  109OSM    C3F11273   3.680   1.011   9.936 -0.2289  0.5568 -0.2705
  109OSM    H3F11274   3.642   0.908   9.953  1.6516 -0.4983 -2.0587
  109OSM    H3G11275   3.791   1.008   9.942 -0.2780  0.4698  0.8432
  109OSM    C4F11276   3.635   1.047   9.796 -0.5788  0.3873 -0.3654
  109OSM    H4F11277   3.690   1.135   9.757 -0.1750  1.3108  2.1456
  109OSM    H4G11278   3.526   1.066   9.783 -0.8125  0.5521  1.5777
  109OSM    C5F11279   3.667   0.929   9.703  0.1238 -0.6322 -0.3712
  109OSM    H5F11280   3.615   0.835   9.732 -0.6602  0.5973  2.5725
  109OSM    H5G11281   3.776   0.910   9.716  0.0155 -1.2262 -0.2918
  109OSM    C6F11282   3.631   0.960   9.563  0.1828  0.2999  0.7935
  109OSM    H6F11283   3.650   1.067   9.542  1.6874 -0.3754 -1.8005
  109OSM    H6G11284   3.521   0.946   9.555 -0.1074  1.9020  1.6526
  109OSM    C7F11285   3.700   0.878   9.455 -0.0169 -0.2933  0.2100
  109OSM    H7F11286   3.722   0.780   9.502  2.8257  0.2904  0.2949
  109OSM    H7G11287   3.799   0.920   9.427  0.4961 -0.8673  1.1269
  109OSM    C8F11288   3.613   0.857   9.323 -0.2756 -0.5195 -0.7340
  109OSM    H8F11289   3.532   0.787   9.353 -0.7523 -0.0481 -0.8937
  109OSM    H8G11290   3.675   0.806   9.246 -0.0027 -1.2190 -0.0586
  109OSM    C9F11291   3.556   0.992   9.273  0.3369  0.6500  0.0092
  109OSM    H9F11292   3.490   1.042   9.346 -2.2879  0.5332 -2.1279
  109OSM   C10F11293   3.593   1.055   9.163  0.1766  0.4924  0.2966
  109OSM   H10F11294   3.544   1.150   9.137 -0.9188 -0.2131 -0.2845
  109OSM   C11F11295   3.701   1.004   9.067 -0.4319  0.1278  0.4088
  109OSM   H11F11296   3.779   0.950   9.125  0.1920 -0.0043 -0.5304
  109OSM   H11G11297   3.758   1.090   9.026 -0.9677 -0.3023 -1.3178
  109OSM   C12F11298   3.651   0.909   8.959  0.2207 -0.0202 -0.3847
  109OSM   H12F11299   3.571   0.953   8.896  0.8191  0.6346 -0.6988
  109OSM   H12G11300   3.612   0.811   8.994  1.8468 -1.0321 -1.2992
  109OSM   C13F11301   3.757   0.851   8.860  0.1643 -0.2017 -0.0765
  109OSM   H13F11302   3.713   0.760   8.814  1.0584 -1.0553  0.7086
  109OSM   H13G11303   3.831   0.809   8.931 -0.1076 -3.3894 -1.5033
  109OSM   C14F11304   3.804   0.951   8.747  0.2845 -0.2769  0.2970
  109OSM   H14F11305   3.912   0.938   8.723  0.1015  0.8295 -1.2408
  109OSM   H14G11306   3.788   1.054   8.786  0.7611  0.0339 -0.3118
  109OSM   C15F11307   3.716   0.933   8.621  0.0356 -0.4114 -0.1398
  109OSM   H15F11308   3.611   0.924   8.658  1.0996 -1.7712  2.8275
  109OSM   H15G11309   3.743   0.845   8.559 -0.1125 -0.9441  0.5437
  109OSM   C16F11310   3.726   1.052   8.534 -0.6466 -0.6828  0.1004
  109OSM   H16F11311   3.827   1.061   8.489 -0.7246  0.4022  0.1045
  109OSM   H16G11312   3.732   1.139   8.604  1.0233 -0.9111  0.2857
  109OSM   C17F11313   3.627   1.058   8.417  0.1617 -0.3525 -1.0471
  109OSM   H17F11314   3.653   1.139   8.346  0.6467 -1.0236 -1.6479
  109OSM   H17G11315   3.525   1.088   8.448  0.7531 -1.2719  2.1390
  109OSM   C18F11316   3.603   0.925   8.342 -0.4296 -0.2646 -0.5068
  109OSM   H18F11317   3.698   0.872   8.323 -0.4373 -0.1279 -0.9464
  109OSM   H18G11318   3.565   0.952   8.240  1.0971 -0.6123 -1.1902
  109OSM   H18H11319   3.533   0.855   8.392 -0.2665 -1.4667 -1.8982
  110OSM      N11320   4.150   6.250  11.015  0.6204  0.3284 -0.0843
  110OSM    C1511321   4.249   6.142  11.023 -0.0383 -0.0666  0.4949
  110OSM   H15A11322   4.348   6.181  11.001 -0.6690  2.2374  1.4095
  110OSM   H15B11323   4.230   6.065  10.950 -0.6547  0.1631  0.4099
  110OSM   H15C11324   4.251   6.094  11.120  0.0138 -1.1049 -0.0127
  110OSM    C1411325   4.027   6.198  11.081 -0.3616 -0.3862  0.9213
  110OSM   H14A11326   4.069   6.162  11.174  0.9719 -0.6645  0.2399
  110OSM   H14B11327   4.002   6.106  11.030 -0.3554 -1.0849  2.1390
  110OSM   H14C11328   3.953   6.275  11.100  0.3244 -0.2007  3.0798
  110OSM    C1311329   4.203   6.361  11.100 -0.2984 -0.0790  0.3718
  110OSM   H13A11330   4.129   6.427  11.142  0.9321  0.5355  1.6662
  110OSM   H13B11331   4.278   6.420  11.048 -0.8454  2.0449  1.8679
  110OSM   H13C11332   4.252   6.332  11.191  0.2806 -0.6229 -0.1024
  110OSM    C1211333   4.130   6.302  10.875 -0.1181  0.4003 -0.2027
  110OSM   H12A11334   4.125   6.225  10.799  0.5962  1.0841 -0.9565
  110OSM   H12B11335   4.215   6.364  10.854 -1.5502  2.1564 -1.1146
  110OSM    C1111336   3.995   6.385  10.847 -0.4529 -0.2687 -0.2828
  110OSM   H11A11337   3.911   6.317  10.876 -3.3736  2.1380 -2.4569
  110OSM   H11B11338   3.984   6.400  10.737  0.2509 -0.9517 -0.4572
  110OSM      P11339   3.859   6.562  10.989  0.1317 -0.0294  0.2542
  110OSM    O1311340   3.797   6.455  11.068 -0.3154  0.4454  0.2012
  110OSM    O1411341   3.902   6.678  11.070 -0.2711  0.4870  0.1743
  110OSM    O1111342   3.780   6.602  10.862 -0.0677 -0.1367  0.7291
  110OSM    O1211343   3.986   6.512  10.908  0.0928 -0.1232  0.1959
  110OSM    C1S11344   3.804   6.716  10.785 -0.5684  0.1846 -0.5157
  110OSM    H1S11345   3.881   6.782  10.830 -1.5207  0.1366  1.2741
  110OSM    H1T11346   3.722   6.791  10.795 -1.5229 -1.0232  1.4079
  110OSM     NF11347   3.876   6.807  10.570 -0.6607 -0.0187  0.3493
  110OSM    HNF11348   3.804   6.860  10.526 -0.2550 -0.5206 -0.9454
  110OSM    C2S11349   3.825   6.688  10.632 -0.0691 -0.4970  1.1332
  110OSM    H2S11350   3.895   6.602  10.636  0.0704 -0.4897 -0.6003
  110OSM    C3S11351   3.687   6.635  10.581  0.2732  0.4363  0.6868
  110OSM    H3S11352   3.605   6.708  10.597 -1.3707 -1.4560  1.3710
  110OSM     O311353   3.646   6.517  10.660 -0.0105 -0.6036  0.7172
  110OSM    HO311354   3.694   6.539  10.740  0.9243  0.8850 -0.2014
  110OSM    C4S11355   3.700   6.595  10.441  1.2981  0.0745  0.7418
  110OSM    H4S11356   3.802   6.560  10.418  2.2026  0.9686  2.9937
  110OSM    C5S11357   3.600   6.585  10.348 -0.2620  0.2159  0.3736
  110OSM    H5S11358   3.504   6.626  10.384  0.0093  2.8710 -1.6492
  110OSM    C6S11359   3.609   6.531  10.206  0.7821 -0.7246 -0.6784
  110OSM    H6S11360   3.631   6.611  10.132  0.6742 -0.1811 -0.1361
  110OSM    H6T11361   3.518   6.477  10.172  0.4556 -1.7143  1.5648
  110OSM    C7S11362   3.730   6.432  10.200  0.1323  0.2995  0.2830
  110OSM    H7S11363   3.748   6.376  10.294  1.1874  1.3443  0.7413
  110OSM    H7T11364   3.822   6.486  10.167 -0.6021  1.3959  0.0005
  110OSM    C8S11365   3.698   6.334  10.086 -0.2228 -0.0888 -1.0445
  110OSM    H8S11366   3.598   6.296  10.116  0.1838 -0.3864 -0.0310
  110OSM    H8T11367   3.777   6.256  10.089 -0.1262  0.0263 -0.3646
  110OSM    C9S11368   3.693   6.395   9.953  0.1213 -0.0126  0.4570
  110OSM    H9S11369   3.774   6.468   9.934  2.2451 -2.0909  1.0275
  110OSM    H9T11370   3.597   6.452   9.956 -0.4860 -1.0462  1.5779
  110OSM   C10S11371   3.709   6.295   9.837  0.2535  0.2979  0.0888
  110OSM   H10S11372   3.605   6.257   9.850 -0.3589  1.9581  0.3294
  110OSM   H10T11373   3.796   6.230   9.859  0.7750  0.5191 -1.2286
  110OSM   C11S11374   3.734   6.369   9.703  0.7189 -0.0195  0.5919
  110OSM   H11S11375   3.828   6.425   9.720  0.0032  0.6961  2.4751
  110OSM   H11T11376   3.659   6.445   9.675  0.7549  0.3228  1.4005
  110OSM   C12S11377   3.749   6.276   9.581 -0.2728 -0.4803  0.7214
  110OSM   H12S11378   3.651   6.227   9.563 -0.0383 -0.1195 -1.9920
  110OSM   H12T11379   3.815   6.192   9.610 -2.5041 -1.9811  1.7077
  110OSM   C13S11380   3.783   6.347   9.460 -0.6093  0.3233  0.2623
  110OSM   H13S11381   3.875   6.408   9.468  1.0601 -1.9195 -0.6562
  110OSM   H13T11382   3.716   6.427   9.422 -2.3731 -2.2044 -2.4386
  110OSM   C14S11383   3.791   6.260   9.331  0.3016 -0.2336 -0.3908
  110OSM   H14S11384   3.848   6.170   9.363 -1.6270 -1.4854 -0.3474
  110OSM   H14T11385   3.856   6.308   9.255 -0.2486  1.9136  0.4482
  110OSM   C15S11386   3.652   6.206   9.277  0.0555  0.3517 -0.6072
  110OSM   H15S11387   3.596   6.163   9.363 -0.2433 -0.2743 -1.1084
  110OSM   H15T11388   3.670   6.117   9.213  1.5333  2.5066 -3.3984
  110OSM   C16S11389   3.556   6.318   9.219 -0.0532  0.2295 -0.3959
  110OSM   H16S11390   3.624   6.399   9.185  1.0009  0.0685  1.2003
  110OSM   H16T11391   3.492   6.342   9.307 -0.5717 -0.0446 -0.6939
  110OSM   C17S11392   3.466   6.261   9.117 -0.2369 -0.1274 -0.4271
  110OSM   H17S11393   3.401   6.179   9.154 -2.4899  0.5317 -2.6153
  110OSM   H17T11394   3.529   6.217   9.037  0.7070 -0.9110  0.7105
  110OSM   C18S11395   3.373   6.359   9.051 -0.1686 -0.1672 -0.4040
  110OSM   H18S11396   3.337   6.437   9.122 -0.3217 -0.6858  0.0993
  110OSM   H18T11397   3.281   6.308   9.013  0.0042 -0.2238 -0.7508
  110OSM   H18U11398   3.431   6.403   8.967 -0.4326 -1.8541 -1.5141
  110OSM    C1F11399   4.003   6.843  10.574  0.0121  0.5451 -0.5464
  110OSM     OF11400   4.090   6.765  10.604 -0.7338  0.4860 -0.3879
  110OSM    C2F11401   4.038   6.976  10.535 -0.2204  0.7211 -0.1247
  110OSM    H2F11402   3.954   7.048  10.541 -0.1593  0.6730  2.4439
  110OSM    H2G11403   4.084   6.973  10.434  0.5775 -2.6283  0.2346
  110OSM    C3F11404   4.161   7.038  10.613  0.1534  0.1236 -0.1207
  110OSM    H3F11405   4.250   6.977  10.587  0.4479  0.3863  0.2532
  110OSM    H3G11406   4.144   7.012  10.719  2.1077 -0.3076  0.1234
  110OSM    C4F11407   4.192   7.184  10.599 -0.2188 -0.5135 -0.1021
  110OSM    H4F11408   4.228   7.234  10.692  0.4095  2.4009 -1.7883
  110OSM    H4G11409   4.098   7.234  10.566  1.6290  2.0830 -1.8503
  110OSM    C5F11410   4.295   7.218  10.484  0.6485 -0.0550  0.4782
  110OSM    H5F11411   4.393   7.166  10.498  0.5169 -0.6349 -0.6874
  110OSM    H5G11412   4.320   7.326  10.492  1.1679 -0.2027  0.9157
  110OSM    C6F11413   4.230   7.189  10.346  0.0730  0.3778 -0.4186
  110OSM    H6F11414   4.121   7.209  10.353  0.1834  0.7771  0.2734
  110OSM    H6G11415   4.246   7.081  10.328  0.7526  0.0962  1.6359
  110OSM    C7F11416   4.301   7.252  10.228  0.2053 -0.2532  0.2632
  110OSM    H7F11417   4.410   7.264  10.248  0.6800  4.6163 -3.5790
  110OSM    H7G11418   4.253   7.352  10.223 -1.2715 -0.9229  0.4299
  110OSM    C8F11419   4.259   7.185  10.090 -0.3347  0.5738 -0.2513
  110OSM    H8F11420   4.275   7.265  10.015 -3.6793  0.8205 -0.8305
  110OSM    H8G11421   4.149   7.167  10.091 -0.6537  2.3550 -0.8797
  110OSM    C9F11422   4.333   7.056  10.060 -0.5839  0.2155  0.7339
  110OSM    H9F11423   4.340   6.986  10.145 -2.4402 -0.0320  0.7236
  110OSM   C10F11424   4.397   7.016   9.949 -0.1401 -0.2030 -0.0317
  110OSM   H10F11425   4.437   6.914   9.942 -1.3419 -0.7025  0.1545
  110OSM   C11F11426   4.396   7.101   9.829 -0.1267 -0.1674  0.2512
  110OSM   H11F11427   4.497   7.105   9.783 -0.5718 -4.6008 -1.5234
  110OSM   H11G11428   4.381   7.211   9.842  2.4110  0.3489 -0.5787
  110OSM   C12F11429   4.292   7.044   9.723 -0.5155  0.4146 -0.5858
  110OSM   H12F11430   4.290   7.118   9.640  2.6663  1.3765  0.0525
  110OSM   H12G11431   4.188   7.022   9.757 -0.5892  0.6217 -0.6762
  110OSM   C13F11432   4.351   6.914   9.660  0.1882 -0.5492 -1.0511
  110OSM   H13F11433   4.290   6.824   9.686 -1.2014  0.1131 -1.8796
  110OSM   H13G11434   4.453   6.905   9.704  0.8149  2.3302 -1.7113
  110OSM   C14F11435   4.357   6.932   9.508 -0.1307  0.2042  0.1279
  110OSM   H14F11436   4.416   7.020   9.475  2.7098 -1.1480  1.2574
  110OSM   H14G11437   4.255   6.954   9.471 -0.3534 -0.7963  0.0977
  110OSM   C15F11438   4.421   6.810   9.445 -0.3155 -0.3289  1.0135
  110OSM   H15F11439   4.402   6.718   9.505  2.7544 -0.7017  1.5948
  110OSM   H15G11440   4.531   6.807   9.460 -0.2192  0.4936  0.5192
  110OSM   C16F11441   4.412   6.813   9.289  0.4924 -0.2991 -0.9408
  110OSM   H16F11442   4.486   6.890   9.259  2.0216 -1.0474  0.7665
  110OSM   H16G11443   4.312   6.849   9.255 -0.9158 -1.6279  1.5668
  110OSM   C17F11444   4.445   6.684   9.221  0.5268 -0.1805 -0.8002
  110OSM   H17F11445   4.548   6.652   9.247  0.3415 -1.1806 -1.2448
  110OSM   H17G11446   4.452   6.702   9.112 -0.2344  1.4607 -0.5983
  110OSM   C18F11447   4.340   6.573   9.243 -0.6383 -0.1396  0.3473
  110OSM   H18F11448   4.338   6.538   9.349 -1.2416  0.2508  0.4694
  110OSM   H18G11449   4.358   6.483   9.181 -1.3495 -1.1044  1.4964
  110OSM   H18H11450   4.242   6.617   9.213  1.2649  3.3433 -1.3614
  111OSM      N11451   6.119   5.115  10.678  0.4650  0.7878  0.1383
  111OSM    C1511452   6.168   5.074  10.816 -0.0845 -0.6500  0.1714
  111OSM   H15A11453   6.151   4.970  10.840 -1.9212 -0.5246 -0.4021
  111OSM   H15B11454   6.100   5.118  10.888 -0.2369 -2.8307  1.4525
  111OSM   H15C11455   6.269   5.109  10.826  0.3840 -1.6175 -0.8661
  111OSM    C1411456   6.205   5.036  10.585 -0.4026 -0.4026  0.5001
  111OSM   H14A11457   6.306   5.045  10.622 -0.5568  0.3641  0.7336
  111OSM   H14B11458   6.201   5.066  10.482  2.3971  0.4795  0.5662
  111OSM   H14C11459   6.189   4.929  10.593  0.4929 -0.5518  0.4557
  111OSM    C1311460   5.980   5.062  10.662  0.1338  0.0474 -0.2273
  111OSM   H13A11461   5.906   5.112  10.723  0.5304 -0.6812  0.8691
  111OSM   H13B11462   5.979   4.959  10.693  1.7569  0.3459  0.9267
  111OSM   H13C11463   5.948   5.075  10.560 -1.9721 -0.3196  0.3479
  111OSM    C1211464   6.116   5.260  10.644  0.3528 -0.4492 -0.4582
  111OSM   H12A11465   6.062   5.274  10.551  0.4872 -1.1862 -0.6576
  111OSM   H12B11466   6.220   5.281  10.625  0.1160  0.4001 -0.8518
  111OSM    C1111467   6.049   5.358  10.750 -0.8573  0.5754  0.2654
  111OSM   H11A11468   6.056   5.460  10.706  0.6142 -0.1101 -1.1991
  111OSM   H11B11469   6.109   5.364  10.843 -0.4070 -2.8745  0.3396
  111OSM      P11470   5.809   5.429  10.813 -0.1490  0.1280 -0.3960
  111OSM    O1311471   5.684   5.361  10.855  0.2747 -0.0979 -0.0221
  111OSM    O1411472   5.855   5.544  10.896 -0.0796 -0.3476  0.2875
  111OSM    O1111473   5.779   5.482  10.666 -1.2592  0.2544  0.1125
  111OSM    O1211474   5.914   5.314  10.783 -0.0087 -0.1817  0.6604
  111OSM    C1S11475   5.748   5.392  10.560 -0.2027 -0.2011  0.5081
  111OSM    H1S11476   5.737   5.284  10.583 -0.4582 -0.2166  0.3059
  111OSM    H1T11477   5.822   5.402  10.478 -0.5301 -1.3128  0.0733
  111OSM     NF11478   5.585   5.361  10.391  0.1539  0.1034 -0.2835
  111OSM    HNF11479   5.604   5.383  10.296 -0.6644 -2.2190 -1.0439
  111OSM    C2S11480   5.623   5.449  10.498 -0.5015 -0.5299 -0.5629
  111OSM    H2S11481   5.551   5.433  10.582  1.0702 -2.0289  0.5642
  111OSM    C3S11482   5.641   5.592  10.462 -0.1091  0.5053  0.2115
  111OSM    H3S11483   5.719   5.593  10.383  0.1580  3.2130  0.4274
  111OSM     O311484   5.678   5.684  10.561  0.6295 -0.5013 -0.1977
  111OSM    HO311485   5.711   5.627  10.630 -0.4325 -1.3086 -0.3305
  111OSM    C4S11486   5.528   5.647  10.384  0.2440 -0.6716  0.1303
  111OSM    H4S11487   5.547   5.660  10.276  1.1142  0.1138  0.3660
  111OSM    C5S11488   5.406   5.689  10.432  0.7864 -0.2779  0.4086
  111OSM    H5S11489   5.384   5.675  10.538 -1.0986 -2.0794 -0.1532
  111OSM    C6S11490   5.288   5.750  10.355 -0.2798  0.8582  0.6858
  111OSM    H6S11491   5.284   5.859  10.379  0.0440  0.6425  1.7370
  111OSM    H6T11492   5.196   5.695  10.384 -0.7473  0.5148 -1.2660
  111OSM    C7S11493   5.297   5.755  10.198 -0.6615 -0.3432  0.2800
  111OSM    H7S11494   5.272   5.659  10.149  0.3328 -1.5036  1.9529
  111OSM    H7T11495   5.400   5.782  10.167 -1.9464  2.5500 -1.9555
  111OSM    C8S11496   5.193   5.857  10.140  0.3407 -0.0911  0.4081
  111OSM    H8S11497   5.225   5.963  10.153 -0.4772  0.1475  0.5604
  111OSM    H8T11498   5.100   5.855  10.201  1.6864  0.9701  2.6115
  111OSM    C9S11499   5.162   5.838   9.989 -0.6245  0.1930 -0.3913
  111OSM    H9S11500   5.159   5.728   9.972 -1.9324  0.4545 -2.1883
  111OSM    H9T11501   5.255   5.872   9.939  1.0801 -2.1764  0.9804
  111OSM   C10S11502   5.043   5.911   9.927 -0.0134  0.3580 -0.1043
  111OSM   H10S11503   5.044   6.013   9.969  1.9826  0.6137 -0.6747
  111OSM   H10T11504   4.942   5.867   9.947  0.2679  0.0445  0.6486
  111OSM   C11S11505   5.068   5.937   9.777  0.2584  0.0321 -0.6153
  111OSM   H11S11506   5.172   5.975   9.770 -0.6124  2.5936 -0.6041
  111OSM   H11T11507   4.999   6.017   9.743  1.1282  1.5724  1.1034
  111OSM   C12S11508   5.029   5.812   9.692 -0.1003 -0.4150 -0.7144
  111OSM   H12S11509   4.928   5.778   9.724  0.4750 -1.6053 -0.1212
  111OSM   H12T11510   5.096   5.726   9.710 -2.2081 -1.7512  1.3583
  111OSM   C13S11511   5.031   5.845   9.546  0.0407  0.6649  0.0586
  111OSM   H13S11512   5.140   5.862   9.530  0.1850  3.6628  3.0873
  111OSM   H13T11513   4.969   5.928   9.507 -1.9970 -0.9438 -0.3024
  111OSM   C14S11514   4.989   5.726   9.463 -1.2721  0.3361 -0.2182
  111OSM   H14S11515   4.882   5.702   9.484 -1.6200 -0.2550 -2.4564
  111OSM   H14T11516   5.058   5.646   9.497  0.1547  1.2771 -0.8353
  111OSM   C15S11517   5.007   5.743   9.318 -1.2239  0.0059 -0.1189
  111OSM   H15S11518   5.116   5.759   9.301 -1.4100  1.2071 -0.2468
  111OSM   H15T11519   4.949   5.832   9.286 -0.0017  1.2273  0.9634
  111OSM   C16S11520   4.945   5.631   9.229  0.4682 -0.4486  0.0035
  111OSM   H16S11521   4.843   5.613   9.269  0.8393 -2.4542  0.1718
  111OSM   H16T11522   4.998   5.534   9.243 -0.0343 -0.7580 -0.1937
  111OSM   C17S11523   4.945   5.671   9.083  0.4538  0.0559  0.1204
  111OSM   H17S11524   5.047   5.713   9.070  0.4668 -0.1483 -0.4543
  111OSM   H17T11525   4.870   5.751   9.070 -1.3587 -1.9947 -3.7020
  111OSM   C18S11526   4.923   5.558   8.981  0.0901  0.5451  0.1838
  111OSM   H18S11527   4.816   5.531   8.982  0.1325  0.1421  2.8763
  111OSM   H18T11528   4.972   5.462   9.006 -1.4951 -0.7940 -1.5712
  111OSM   H18U11529   4.980   5.567   8.886  0.6918  0.2408  0.5091
  111OSM    C1F11530   5.551   5.237  10.411 -0.5093  0.4444  0.2184
  111OSM     OF11531   5.514   5.190  10.520 -0.1275 -0.6488  0.3770
  111OSM    C2F11532   5.583   5.142  10.301  0.5387 -0.0921 -0.8235
  111OSM    H2F11533   5.680   5.103  10.337 -0.1644 -0.4462  0.7637
  111OSM    H2G11534   5.600   5.202  10.209  3.8762  0.2287 -0.1179
  111OSM    C3F11535   5.483   5.029  10.293  0.3054  0.2613 -0.3135
  111OSM    H3F11536   5.486   4.967  10.385  1.0350 -0.4729 -0.8207
  111OSM    H3G11537   5.520   4.966  10.209 -0.2557 -1.0860  0.4202
  111OSM    C4F11538   5.331   5.075  10.270 -0.1375 -0.2979 -0.5776
  111OSM    H4F11539   5.330   5.147  10.186 -3.3591 -0.5946 -0.9146
  111OSM    H4G11540   5.296   5.138  10.354  0.1556  2.0317 -2.0980
  111OSM    C5F11541   5.241   4.953  10.260  0.2956 -0.5136 -0.3513
  111OSM    H5F11542   5.132   4.974  10.263  0.6479  1.3826  1.3294
  111OSM    H5G11543   5.246   4.898  10.357 -1.7067 -0.1564 -0.0067
  111OSM    C6F11544   5.263   4.860  10.143  0.1887  0.2956 -0.4428
  111OSM    H6F11545   5.201   4.768  10.150 -1.1602  1.2026 -0.2301
  111OSM    H6G11546   5.371   4.832  10.150 -0.3521 -1.6947  0.6487
  111OSM    C7F11547   5.222   4.922  10.006  0.4538  0.3903  0.4911
  111OSM    H7F11548   5.276   5.019  10.002  0.6691  0.2207 -0.9396
  111OSM    H7G11549   5.112   4.939   9.997  0.5686  0.6576 -0.4371
  111OSM    C8F11550   5.251   4.820   9.897 -0.1512 -0.1309  0.3334
  111OSM    H8F11551   5.355   4.782   9.905 -0.0332  0.5813  3.4687
  111OSM    H8G11552   5.254   4.881   9.804  0.1260  1.4593  1.3485
  111OSM    C9F11553   5.157   4.697   9.886  0.3597 -0.5654  0.0236
  111OSM    H9F11554   5.149   4.638   9.979 -1.0704  1.2344  1.1160
  111OSM   C10F11555   5.100   4.654   9.773  0.4759  0.1707 -0.7007
  111OSM   H10F11556   5.042   4.561   9.772  0.2728  0.3042 -1.5526
  111OSM   C11F11557   5.111   4.715   9.639 -0.1984 -0.0033  0.2943
  111OSM   H11F11558   5.205   4.773   9.625 -0.1911  0.4315  2.0339
  111OSM   H11G11559   5.033   4.791   9.619  2.4444  2.9695  0.5233
  111OSM   C12F11560   5.092   4.602   9.532 -0.2896  0.2558 -0.1685
  111OSM   H12F11561   4.990   4.562   9.550 -0.7232  2.1797  2.3723
  111OSM   H12G11562   5.173   4.530   9.554  0.5439  1.2273  0.0184
  111OSM   C13F11563   5.104   4.651   9.389 -0.2440  0.6376  0.7077
  111OSM   H13F11564   5.212   4.672   9.373 -0.2690 -0.6963 -1.8587
  111OSM   H13G11565   5.036   4.735   9.365  0.5863  1.1229  0.0316
  111OSM   C14F11566   5.075   4.548   9.276  0.2746  0.0012 -0.1575
  111OSM   H14F11567   4.967   4.521   9.277 -0.4027  2.4783 -0.2073
  111OSM   H14G11568   5.133   4.455   9.295 -0.7110 -0.6552 -0.3064
  111OSM   C15F11569   5.113   4.601   9.134  0.5161 -0.1218  0.4788
  111OSM   H15F11570   5.218   4.636   9.128  0.7235 -0.3920  2.1289
  111OSM   H15G11571   5.057   4.696   9.121  2.3519  0.8130 -1.1198
  111OSM   C16F11572   5.067   4.494   9.032 -0.0851  0.0530  0.1324
  111OSM   H16F11573   4.969   4.461   9.071 -1.6246  2.0224 -1.8447
  111OSM   H16G11574   5.132   4.404   9.038 -0.9294 -0.9875 -3.5985
  111OSM   C17F11575   5.051   4.540   8.884 -0.3281  0.8496 -0.5997
  111OSM   H17F11576   5.150   4.579   8.852  0.4127 -1.2737 -1.0291
  111OSM   H17G11577   4.976   4.622   8.883 -1.1878  0.0915 -0.2938
  111OSM   C18F11578   4.995   4.427   8.795 -0.3256 -0.1913 -0.0877
  111OSM   H18F11579   4.894   4.407   8.837  0.1961  1.6327  2.2806
  111OSM   H18G11580   5.056   4.336   8.776 -2.0748 -1.5435  0.5890
  111OSM   H18H11581   4.987   4.471   8.694 -1.9078 -0.1635  0.0349
  112OSM      N11582   6.070   2.572  11.065 -0.0700  0.4407 -0.1937
  112OSM    C1511583   6.140   2.610  10.936  0.2778  0.1784 -0.8426
  112OSM   H15A11584   6.076   2.581  10.854  1.2485  0.4017 -1.7023
  112OSM   H15B11585   6.239   2.567  10.928  0.3751  0.5925 -2.1940
  112OSM   H15C11586   6.157   2.716  10.941 -1.4024  0.4880 -1.2375
  112OSM    C1411587   6.168   2.582  11.185 -0.1519 -0.1472  0.4500
  112OSM   H14A11588   6.122   2.557  11.280 -0.7220 -4.2244 -0.7082
  112OSM   H14B11589   6.199   2.685  11.191  0.6227 -0.4286  1.6985
  112OSM   H14C11590   6.253   2.517  11.174 -0.5312 -0.3053 -2.3357
  112OSM    C1311591   5.963   2.663  11.096 -0.1020  0.0884 -0.0001
  112OSM   H13A11592   5.884   2.658  11.022 -1.6930  2.3061  1.4082
  112OSM   H13B11593   5.996   2.766  11.090 -2.4224  0.8780 -0.4083
  112OSM   H13C11594   5.907   2.639  11.186 -2.0949 -1.2868 -1.5157
  112OSM    C1211595   6.030   2.427  11.061  0.1053  0.1175  0.2946
  112OSM   H12A11596   6.002   2.387  11.157 -0.3687  0.5601  0.3428
  112OSM   H12B11597   6.123   2.373  11.055 -0.6185 -1.1877  0.3840
  112OSM    C1111598   5.926   2.393  10.953  0.5558  0.1594 -0.0061
  112OSM   H11A11599   5.928   2.283  10.936 -0.8055  0.0602  0.3560
  112OSM   H11B11600   5.953   2.437  10.855 -0.9149 -2.3287 -1.6276
  112OSM      P11601   5.710   2.353  11.091 -0.0344 -0.2975  0.1901
  112OSM    O1311602   5.795   2.277  11.183 -0.2744 -0.3541  0.4834
  112OSM    O1411603   5.597   2.432  11.147  0.5188  0.0981 -0.8411
  112OSM    O1111604   5.641   2.254  10.990  0.0357 -0.5289  0.2006
  112OSM    O1211605   5.794   2.444  10.986  0.3299  0.3530  0.1090
  112OSM    C1S11606   5.586   2.297  10.871 -0.4311 -0.3827  0.6820
  112OSM    H1S11607   5.578   2.407  10.860  2.0911 -0.0375  1.6378
  112OSM    H1T11608   5.481   2.260  10.865 -1.2632  1.9913 -2.4799
  112OSM     NF11609   5.582   2.274  10.618 -0.2540 -0.6053  0.5025
  112OSM    HNF11610   5.517   2.206  10.585 -0.1058 -0.4925 -0.0348
  112OSM    C2S11611   5.659   2.236  10.739 -0.2431 -0.1235  0.4830
  112OSM    H2S11612   5.756   2.290  10.737 -0.0993 -0.3758  0.5844
  112OSM    C3S11613   5.676   2.083  10.746  0.1543 -0.7893 -0.4352
  112OSM    H3S11614   5.570   2.051  10.737  0.1169 -0.5543 -0.8468
  112OSM     O311615   5.734   2.046  10.872  0.2699  0.2978 -0.3813
  112OSM    HO311616   5.715   2.122  10.928 -0.7761 -0.9680  1.0715
  112OSM    C4S11617   5.756   2.022  10.632  0.2240 -0.2655 -0.2829
  112OSM    H4S11618   5.680   1.998  10.556 -2.4265  1.0943  1.7745
  112OSM    C5S11619   5.884   1.986  10.621  0.3828 -1.0638  0.0288
  112OSM    H5S11620   5.951   2.023  10.700 -2.0108 -0.2191  1.7882
  112OSM    C6S11621   5.936   1.927  10.492 -0.0265  0.1302 -0.3110
  112OSM    H6S11622   6.006   1.847  10.521  1.1294  1.0011 -0.6173
  112OSM    H6T11623   5.995   2.001  10.432  0.3677 -0.5176 -0.7375
  112OSM    C7S11624   5.832   1.858  10.403  0.2456  0.1049  0.4206
  112OSM    H7S11625   5.756   1.931  10.368  0.0263 -0.1622  0.3360
  112OSM    H7T11626   5.782   1.777  10.461  0.8790 -1.7045 -1.4456
  112OSM    C8S11627   5.899   1.781  10.292 -0.3022 -0.4389  0.1897
  112OSM    H8S11628   5.846   1.684  10.278  1.0321 -1.1951  0.1699
  112OSM    H8T11629   5.996   1.734  10.319 -0.8175 -1.9872 -0.5364
  112OSM    C9S11630   5.915   1.846  10.154  0.5791 -0.3137 -0.2589
  112OSM    H9S11631   5.983   1.933  10.168  1.5988 -1.2024  0.4173
  112OSM    H9T11632   5.820   1.880  10.106 -0.2744 -1.0289  0.8980
  112OSM   C10S11633   5.974   1.752  10.051 -0.2736 -0.2076 -0.4456
  112OSM   H10S11634   5.889   1.695  10.007 -0.3829  1.0689 -1.9838
  112OSM   H10T11635   6.043   1.687  10.107  1.1317  1.2390 -0.4198
  112OSM   C11S11636   6.036   1.834   9.937  0.7604 -0.1459  0.2653
  112OSM   H11S11637   6.130   1.779   9.916 -0.3768 -2.4216  0.8671
  112OSM   H11T11638   6.067   1.934   9.974  0.6290 -0.3588  0.9651
  112OSM   C12S11639   5.945   1.864   9.819 -0.0006  0.0339  0.0440
  112OSM   H12S11640   5.852   1.907   9.861 -0.3133 -0.3043 -0.2955
  112OSM   H12T11641   5.926   1.769   9.764  0.3104 -0.1603  0.2658
  112OSM   C13S11642   6.006   1.966   9.720  0.6850  0.3481 -0.3047
  112OSM   H13S11643   6.114   1.970   9.744  0.3585 -0.7770  1.5617
  112OSM   H13T11644   5.959   2.063   9.748 -0.1295 -0.4999  1.4805
  112OSM   C14S11645   5.985   1.935   9.574  0.0354  0.1374  0.1437
  112OSM   H14S11646   5.882   1.904   9.546  1.0370 -1.2624 -2.2871
  112OSM   H14T11647   6.039   1.844   9.541  0.4339  0.6336 -0.6232
  112OSM   C15S11648   6.035   2.047   9.480 -0.4060 -0.1128  0.4475
  112OSM   H15S11649   6.142   2.065   9.504 -0.3367 -0.2836  0.2740
  112OSM   H15T11650   5.970   2.132   9.508  0.9997  0.4350  2.2487
  112OSM   C16S11651   5.996   2.029   9.329  0.2285 -0.4480 -0.9298
  112OSM   H16S11652   5.893   1.987   9.323 -0.2589  0.2660  1.3974
  112OSM   H16T11653   6.072   1.964   9.281  2.9209  2.1339 -0.4479
  112OSM   C17S11654   5.991   2.167   9.257 -0.3708  0.4318 -0.3054
  112OSM   H17S11655   6.090   2.215   9.254 -0.5793  0.8764 -0.1606
  112OSM   H17T11656   5.931   2.240   9.316 -1.2605  0.1798 -0.8746
  112OSM   C18S11657   5.930   2.152   9.117  1.0313 -0.4442  0.0456
  112OSM   H18S11658   5.830   2.102   9.124 -0.2813  2.1886  1.5788
  112OSM   H18T11659   5.995   2.095   9.048  1.8579  1.7277 -1.0487
  112OSM   H18U11660   5.908   2.248   9.067 -0.1391 -0.2003  0.9798
  112OSM    C1F11661   5.575   2.408  10.579 -0.8859  0.5400  0.0650
  112OSM     OF11662   5.632   2.501  10.638  0.7403 -0.8294 -0.6933
  112OSM    C2F11663   5.484   2.419  10.458  0.2192  0.0610 -0.6157
  112OSM    H2F11664   5.381   2.403  10.494  1.0408  1.1743  2.4803
  112OSM    H2G11665   5.502   2.325  10.400  3.5292  0.2815 -0.1840
  112OSM    C3F11666   5.502   2.540  10.364 -0.8752  0.2840  0.1086
  112OSM    H3F11667   5.605   2.541  10.323 -0.5769 -1.0223  0.7739
  112OSM    H3G11668   5.497   2.636  10.420  3.1829  0.5467  0.3258
  112OSM    C4F11669   5.398   2.547  10.253  0.0988 -0.0930 -0.1009
  112OSM    H4F11670   5.295   2.568  10.288  0.1401 -0.0303 -0.0182
  112OSM    H4G11671   5.397   2.455  10.191  2.7293 -1.4767  1.7531
  112OSM    C5F11672   5.434   2.657  10.158 -0.0329 -0.1243 -0.1818
  112OSM    H5F11673   5.537   2.645  10.118 -0.7052 -0.4749 -1.8581
  112OSM    H5G11674   5.442   2.750  10.219 -0.4566 -1.6935  2.4503
  112OSM    C6F11675   5.334   2.680  10.039 -0.1559 -0.1607  0.3733
  112OSM    H6F11676   5.227   2.683  10.065 -0.1074 -1.5471  0.8434
  112OSM    H6G11677   5.345   2.589   9.975 -0.7832 -0.7944  1.1509
  112OSM    C7F11678   5.381   2.799   9.960  0.7722 -0.1652 -0.2984
  112OSM    H7F11679   5.477   2.773   9.911  0.7365 -1.1799  0.1506
  112OSM    H7G11680   5.411   2.882  10.027  0.4917  0.2788 -0.7196
  112OSM    C8F11681   5.273   2.831   9.849  0.5889  0.4520  0.0389
  112OSM    H8F11682   5.170   2.846   9.889  0.6953 -2.0697  1.4337
  112OSM    H8G11683   5.263   2.741   9.785 -0.0283 -0.3519  1.2271
  112OSM    C9F11684   5.334   2.950   9.784  1.1228  0.1601 -0.3959
  112OSM    H9F11685   5.335   3.045   9.840 -1.4786  0.1135 -0.1235
  112OSM   C10F11686   5.383   2.956   9.658 -0.3123 -0.3586  0.2364
  112OSM   H10F11687   5.424   3.052   9.624 -1.0268  0.5545  1.8898
  112OSM   C11F11688   5.400   2.842   9.554  0.1413 -0.2270 -0.3859
  112OSM   H11F11689   5.313   2.774   9.541  0.7222 -0.8902 -0.8401
  112OSM   H11G11690   5.494   2.788   9.577  0.2740  0.7627  1.7295
  112OSM   C12F11691   5.422   2.890   9.410  0.3385 -0.0355 -0.0045
  112OSM   H12F11692   5.413   2.803   9.342  0.6784  0.1497 -0.2918
  112OSM   H12G11693   5.525   2.930   9.399  0.4801  0.1860  1.7974
  112OSM   C13F11694   5.311   2.983   9.348 -0.1490  0.1292  0.0301
  112OSM   H13F11695   5.286   3.072   9.410 -2.3340  0.6171 -1.4323
  112OSM   H13G11696   5.229   2.913   9.323  2.9374 -2.9813 -2.2461
  112OSM   C14F11697   5.352   3.032   9.213 -0.2457 -0.2651 -0.0668
  112OSM   H14F11698   5.373   2.940   9.154 -0.7847 -1.2011  1.1322
  112OSM   H14G11699   5.442   3.095   9.203 -1.3540  1.5197  0.6706
  112OSM   C15F11700   5.238   3.104   9.140 -0.0978  0.3124 -0.3509
  112OSM   H15F11701   5.236   3.209   9.174 -0.3458 -0.0795  0.8842
  112OSM   H15G11702   5.144   3.051   9.166 -0.2101  0.7855  0.2207
  112OSM   C16F11703   5.246   3.098   8.982  0.8385  0.7381 -1.1744
  112OSM   H16F11704   5.277   2.997   8.946  0.7138 -0.3149  1.3980
  112OSM   H16G11705   5.327   3.168   8.955 -0.1042  1.6332 -1.7297
  112OSM   C17F11706   5.127   3.148   8.905  0.1472 -0.7457 -0.7977
  112OSM   H17F11707   5.031   3.142   8.962  1.9009 -0.7945  2.3962
  112OSM   H17G11708   5.124   3.097   8.807 -1.9412 -1.7317 -0.2878
  112OSM   C18F11709   5.155   3.302   8.890  0.1298  0.6268 -0.3095
  112OSM   H18F11710   5.077   3.340   8.821 -1.2654  0.3409  1.0689
  112OSM   H18G11711   5.248   3.324   8.833 -0.9477 -0.5532 -2.6797
  112OSM   H18H11712   5.149   3.358   8.986 -1.9684  0.6463 -0.4178
  113OSM      N11713   3.488   4.800  11.263  0.4168  0.5611  0.6867
  113OSM    C1511714   3.591   4.906  11.298 -0.3923 -0.2211  0.4759
  113OSM   H15A11715   3.660   4.879  11.376  1.9990  1.3333 -0.9799
  113OSM   H15B11716   3.553   5.008  11.300 -0.3983 -0.2133 -0.0337
  113OSM   H15C11717   3.663   4.903  11.218 -0.6645  1.0412  0.1509
  113OSM    C1411718   3.551   4.670  11.230 -0.5463 -0.0016  0.0754
  113OSM   H14A11719   3.480   4.595  11.198 -0.6327 -0.1823  0.6657
  113OSM   H14B11720   3.602   4.631  11.317 -3.3654 -2.2889  0.8664
  113OSM   H14C11721   3.616   4.675  11.144  0.3020  1.1884  0.7555
  113OSM    C1311722   3.402   4.792  11.386  0.4701 -0.4412  0.4560
  113OSM   H13A11723   3.469   4.766  11.466  1.2151 -0.4307 -0.1477
  113OSM   H13B11724   3.334   4.708  11.374  1.1422 -1.0082  0.5123
  113OSM   H13C11725   3.343   4.879  11.409 -1.4676 -1.7558  0.7677
  113OSM    C1211726   3.412   4.852  11.148  1.4142  0.5171 -0.3756
  113OSM   H12A11727   3.346   4.930  11.183 -0.4152 -1.3775  0.7243
  113OSM   H12B11728   3.350   4.769  11.115  2.1189 -0.9812  1.8281
  113OSM    C1111729   3.489   4.906  11.026 -0.4064 -0.0630  0.0860
  113OSM   H11A11730   3.427   4.911  10.934 -1.1202 -0.2700  0.5474
  113OSM   H11B11731   3.557   4.821  11.008 -2.9546 -2.0729 -0.6652
  113OSM      P11732   3.467   5.164  11.091 -0.1546 -0.0148  0.0980
  113OSM    O1311733   3.405   5.157  11.225  0.1350  0.5172  0.0359
  113OSM    O1411734   3.553   5.284  11.069  0.1883 -0.6815  0.4236
  113OSM    O1111735   3.349   5.161  10.990  0.3301 -0.0925 -0.1561
  113OSM    O1211736   3.554   5.030  11.050  0.3339 -0.3234 -0.4844
  113OSM    C1S11737   3.366   5.174  10.849  0.0347  0.8003  0.3069
  113OSM    H1S11738   3.435   5.097  10.811 -0.9636 -1.5057  2.8532
  113OSM    H1T11739   3.391   5.278  10.817 -0.7891  0.9483  0.1156
  113OSM     NF11740   3.228   5.171  10.636  0.2990 -0.7409 -0.0201
  113OSM    HNF11741   3.179   5.249  10.598  2.2791  0.1315 -0.9522
  113OSM    C2S11742   3.222   5.151  10.776 -1.1571  0.0380 -0.0997
  113OSM    H2S11743   3.205   5.043  10.794 -0.0921 -0.0823  0.2825
  113OSM    C3S11744   3.103   5.222  10.852 -0.2476  0.4995 -0.1463
  113OSM    H3S11745   3.116   5.330  10.830  1.4617  0.5732  0.9773
  113OSM     O311746   3.096   5.209  10.996 -0.7167  0.0980 -0.5672
  113OSM    HO311747   3.183   5.176  11.019 -0.9677 -1.5036 -1.7500
  113OSM    C4S11748   2.963   5.187  10.804  0.1809 -0.1202  0.0319
  113OSM    H4S11749   2.929   5.248  10.719  1.2736 -0.5190 -0.7199
  113OSM    C5S11750   2.883   5.082  10.838  0.3979 -0.6383 -0.0444
  113OSM    H5S11751   2.923   5.012  10.913 -3.0956 -0.5912  2.0803
  113OSM    C6S11752   2.742   5.046  10.785 -0.0462 -0.5975 -0.1675
  113OSM    H6S11753   2.668   5.076  10.862  0.0743  0.3175 -0.3917
  113OSM    H6T11754   2.721   4.939  10.764  2.1370 -0.5773 -3.0610
  113OSM    C7S11755   2.715   5.113  10.652  0.7670 -0.0500 -0.7660
  113OSM    H7S11756   2.741   5.221  10.649  0.2430  0.1695  1.4900
  113OSM    H7T11757   2.610   5.092  10.623  0.9908 -0.4364 -1.3141
  113OSM    C8S11758   2.779   5.035  10.533 -0.3427 -0.1689 -0.0057
  113OSM    H8S11759   2.756   4.927  10.530  0.5478 -0.3408 -1.5553
  113OSM    H8T11760   2.889   5.049  10.538  0.1341 -2.6796 -1.5169
  113OSM    C9S11761   2.735   5.086  10.388  0.1868  0.5548 -0.5667
  113OSM    H9S11762   2.624   5.077  10.382  0.0917  0.8714  0.5126
  113OSM    H9T11763   2.786   5.023  10.311  1.0887  1.8640 -1.0624
  113OSM   C10S11764   2.779   5.230  10.360 -0.6945 -0.2323  0.3156
  113OSM   H10S11765   2.886   5.235  10.389 -1.2463  0.0468  2.5132
  113OSM   H10T11766   2.730   5.311  10.419 -0.3275  1.2077 -1.2906
  113OSM   C11S11767   2.767   5.273  10.209  0.2992  0.0343  0.0599
  113OSM   H11S11768   2.819   5.202  10.140 -2.1574  0.6104 -2.5602
  113OSM   H11T11769   2.815   5.373  10.202 -0.1748  0.2521 -0.0878
  113OSM   C12S11770   2.618   5.278  10.177  0.2683 -0.2871  0.7282
  113OSM   H12S11771   2.565   5.318  10.266  0.3774 -0.9298  1.0874
  113OSM   H12T11772   2.571   5.177  10.174 -1.4696  0.4885 -0.5249
  113OSM   C13S11773   2.598   5.354  10.046  0.6001  0.1760 -0.4741
  113OSM   H13S11774   2.620   5.463  10.050  1.0823  0.0716 -0.0771
  113OSM   H13T11775   2.488   5.357  10.031  0.4624 -0.4250  0.3650
  113OSM   C14S11776   2.667   5.300   9.921 -0.6826 -0.4991  1.2971
  113OSM   H14S11777   2.645   5.193   9.902 -1.7362  0.0240 -0.7109
  113OSM   H14T11778   2.777   5.305   9.938 -0.5187 -0.7946  0.4050
  113OSM   C15S11779   2.629   5.395   9.798  0.2682 -0.3654 -0.7464
  113OSM   H15S11780   2.678   5.493   9.814 -2.6909  1.2565 -0.9078
  113OSM   H15T11781   2.521   5.423   9.803  0.5158  0.4692  0.5065
  113OSM   C16S11782   2.681   5.340   9.663  0.5918  0.0664  0.1671
  113OSM   H16S11783   2.646   5.235   9.673  1.1424  0.0227  1.8710
  113OSM   H16T11784   2.792   5.344   9.652  0.5964 -1.2079 -0.4324
  113OSM   C17S11785   2.620   5.403   9.528  0.5992  0.9776  0.2468
  113OSM   H17S11786   2.664   5.504   9.512  0.6264  0.7949 -0.9097
  113OSM   H17T11787   2.512   5.400   9.552  0.6177  0.5948  0.2985
  113OSM   C18S11788   2.644   5.319   9.401 -0.1267 -0.1995 -0.1813
  113OSM   H18S11789   2.566   5.331   9.323 -1.1844 -1.0752  0.7124
  113OSM   H18T11790   2.647   5.209   9.419  1.8486 -0.0627  0.5600
  113OSM   H18U11791   2.744   5.346   9.361  0.2312 -0.1433  0.7207
  113OSM    C1F11792   3.308   5.108  10.549  0.0816 -0.8630 -0.4668
  113OSM     OF11793   3.383   5.022  10.589  0.1178 -0.2112  0.2802
  113OSM    C2F11794   3.299   5.141  10.400  0.6910  0.0212 -0.2513
  113OSM    H2F11795   3.328   5.246  10.376 -1.1723  1.1322  1.9506
  113OSM    H2G11796   3.199   5.122  10.356  0.4479  0.4704  0.1021
  113OSM    C3F11797   3.397   5.041  10.334 -0.1628 -0.2390  0.3581
  113OSM    H3F11798   3.384   4.932  10.351  1.0591 -0.9499 -2.5800
  113OSM    H3G11799   3.500   5.067  10.365 -0.6569  0.4154  1.5306
  113OSM    C4F11800   3.388   5.054  10.177  0.1789  0.7033  0.5079
  113OSM    H4F11801   3.398   5.161  10.153  1.1429 -0.0021 -2.6965
  113OSM    H4G11802   3.292   5.014  10.137  0.6584  0.7790 -0.7673
  113OSM    C5F11803   3.485   4.963  10.101 -0.4337 -0.4505 -0.7496
  113OSM    H5F11804   3.456   4.859  10.127 -0.2808  0.2388  2.4936
  113OSM    H5G11805   3.580   4.997  10.146 -0.5807  0.6954 -1.2597
  113OSM    C6F11806   3.492   4.978   9.951 -0.1319  0.1341  0.3466
  113OSM    H6F11807   3.387   4.966   9.916 -0.9101  0.5842  2.4149
  113OSM    H6G11808   3.546   4.894   9.902 -0.3788  1.2013 -1.9293
  113OSM    C7F11809   3.563   5.107   9.892  0.2116 -0.2803 -0.6076
  113OSM    H7F11810   3.505   5.198   9.917 -0.9000 -0.6125 -1.8530
  113OSM    H7G11811   3.536   5.102   9.784  0.6326 -1.2881 -0.6798
  113OSM    C8F11812   3.714   5.120   9.917 -0.2908 -0.7248  0.0272
  113OSM    H8F11813   3.720   5.139  10.026  0.4700  0.6123 -0.2354
  113OSM    H8G11814   3.772   5.199   9.865  2.5083 -2.6902 -0.0744
  113OSM    C9F11815   3.806   5.005   9.887 -0.5231  0.5914  0.3875
  113OSM    H9F11816   3.848   4.957   9.977  1.4966  1.8910  0.2030
  113OSM   C10F11817   3.838   4.947   9.766 -0.0410 -0.4179  0.8267
  113OSM   H10F11818   3.916   4.871   9.756  1.2157  1.0438 -1.2176
  113OSM   C11F11819   3.790   4.994   9.632  0.6914  0.4355  0.2773
  113OSM   H11F11820   3.867   4.967   9.557  2.7114  3.8909  0.9008
  113OSM   H11G11821   3.780   5.104   9.619 -0.4396  0.3656  0.4347
  113OSM   C12F11822   3.652   4.942   9.585 -0.6224 -0.1950  0.0879
  113OSM   H12F11823   3.600   5.012   9.516 -0.9288  0.4267  0.9294
  113OSM   H12G11824   3.585   4.929   9.672 -0.4696 -0.7423  0.1276
  113OSM   C13F11825   3.671   4.810   9.500  0.4345 -0.1645 -0.2476
  113OSM   H13F11826   3.565   4.775   9.500  0.9964 -2.0985  2.2770
  113OSM   H13G11827   3.747   4.742   9.543 -0.7116  0.6108  3.3490
  113OSM   C14F11828   3.710   4.842   9.350 -0.4077 -0.3241  0.3414
  113OSM   H14F11829   3.806   4.897   9.342 -0.2238 -0.8908 -2.2878
  113OSM   H14G11830   3.632   4.914   9.316 -2.3454 -2.0279  0.9392
  113OSM   C15F11831   3.721   4.713   9.257  0.3241 -0.2003 -0.2502
  113OSM   H15F11832   3.794   4.639   9.296  1.6868  1.1000 -0.2255
  113OSM   H15G11833   3.774   4.756   9.170 -0.5162  2.1787  0.3290
  113OSM   C16F11834   3.589   4.646   9.231 -0.0883  0.3421 -0.4377
  113OSM   H16F11835   3.547   4.615   9.329 -2.7050  0.6073 -1.4064
  113OSM   H16G11836   3.623   4.554   9.179 -1.0125 -0.5031  0.4047
  113OSM   C17F11837   3.502   4.716   9.130  0.4185  0.3772  0.2947
  113OSM   H17F11838   3.482   4.822   9.157  2.1981  0.9411 -0.4645
  113OSM   H17G11839   3.407   4.660   9.129 -0.3958  1.6775  1.2942
  113OSM   C18F11840   3.561   4.712   8.986  0.1550  0.0608  0.0012
  113OSM   H18F11841   3.477   4.708   8.913 -0.7242  2.2687  0.7910
  113OSM   H18G11842   3.618   4.619   8.967 -0.3283 -0.0226 -1.1390
  113OSM   H18H11843   3.618   4.805   8.962 -0.1421 -0.0552 -1.2381
  114OSM      N11844   4.962   1.147  11.251  0.8175 -0.3066  1.0058
  114OSM    C1511845   5.059   1.260  11.245  0.6136 -0.9457  0.7468
  114OSM   H15A11846   5.025   1.357  11.279 -0.2497 -1.2841  0.8590
  114OSM   H15B11847   5.108   1.267  11.149  1.5325  3.7850  1.3240
  114OSM   H15C11848   5.141   1.231  11.310  1.6678 -0.7629 -0.4504
  114OSM    C1411849   4.989   1.056  11.137  0.1290  0.1854 -0.4818
  114OSM   H14A11850   5.093   1.027  11.127 -0.7272 -2.8123 -1.6608
  114OSM   H14B11851   4.963   1.099  11.042 -0.2843  0.5519 -0.2096
  114OSM   H14C11852   4.928   0.968  11.147  3.2358 -2.3644 -1.9668
  114OSM    C1311853   4.985   1.066  11.372  0.5943  0.2861 -0.2803
  114OSM   H13A11854   4.906   0.996  11.394  1.6089 -0.4868  1.0571
  114OSM   H13B11855   4.978   1.123  11.463  1.5046 -1.3955  0.8983
  114OSM   H13C11856   5.075   1.007  11.365 -0.4283 -1.5497  1.1526
  114OSM    C1211857   4.815   1.196  11.246  0.0493  0.4936  0.5424
  114OSM   H12A11858   4.759   1.104  11.244  1.3971 -0.3522 -0.3499
  114OSM   H12B11859   4.801   1.233  11.146 -1.0244 -1.3396 -0.0271
  114OSM    C1111860   4.766   1.297  11.343 -0.7341  0.3298 -0.5576
  114OSM   H11A11861   4.807   1.266  11.441  2.6675 -1.8665 -2.4220
  114OSM   H11B11862   4.656   1.284  11.340 -0.5357 -1.8185 -0.2081
  114OSM      P11863   4.765   1.508  11.184 -0.1173  0.1734  0.0681
  114OSM    O1311864   4.646   1.582  11.232  0.5433  0.4653  0.5043
  114OSM    O1411865   4.886   1.586  11.134 -0.2512 -0.2116  0.1924
  114OSM    O1111866   4.725   1.400  11.086 -0.2098  0.0046  0.8886
  114OSM    O1211867   4.820   1.422  11.313 -0.2748  0.0910 -0.4944
  114OSM    C1S11868   4.655   1.430  10.964  0.1858 -0.0914 -0.1863
  114OSM    H1S11869   4.590   1.519  10.971  0.3986  0.4508 -3.5587
  114OSM    H1T11870   4.592   1.344  10.931  1.3333 -0.6359 -1.0545
  114OSM     NF11871   4.684   1.485  10.725 -0.3698 -0.9765  0.0613
  114OSM    HNF11872   4.687   1.414  10.655  0.4007 -0.7189 -0.1748
  114OSM    C2S11873   4.756   1.454  10.845  0.2513  0.8005 -0.3430
  114OSM    H2S11874   4.826   1.534  10.876  1.9723 -0.0678 -1.7721
  114OSM    C3S11875   4.845   1.326  10.819 -0.3381 -0.2044  0.2428
  114OSM    H3S11876   4.776   1.240  10.801 -0.1425 -0.2167 -0.4830
  114OSM     O311877   4.919   1.285  10.931  0.4979 -0.5954 -0.0286
  114OSM    HO311878   4.881   1.347  10.994 -1.7914 -0.4128 -1.4595
  114OSM    C4S11879   4.940   1.339  10.701 -0.1395 -0.1408  0.4715
  114OSM    H4S11880   4.897   1.292  10.612  2.3537 -1.3357 -0.1805
  114OSM    C5S11881   5.054   1.412  10.702  0.5641  0.0657  0.1169
  114OSM    H5S11882   5.090   1.450  10.799  3.3459 -1.0622 -0.3842
  114OSM    C6S11883   5.143   1.446  10.588  0.4293  0.1678  0.2586
  114OSM    H6S11884   5.226   1.372  10.591 -0.6572 -1.1844 -1.1829
  114OSM    H6T11885   5.185   1.545  10.614 -0.4610  0.3359  1.0925
  114OSM    C7S11886   5.085   1.444  10.444  0.0672  0.6589 -0.0137
  114OSM    H7S11887   4.990   1.501  10.437 -0.0606  0.3525 -0.8453
  114OSM    H7T11888   5.064   1.336  10.424  1.7923  0.0600  1.1352
  114OSM    C8S11889   5.180   1.501  10.336  0.0417 -0.2117  0.6615
  114OSM    H8S11890   5.285   1.490  10.371  0.9599  3.2826 -0.5934
  114OSM    H8T11891   5.169   1.610  10.319  1.2689 -0.1148  0.4043
  114OSM    C9S11892   5.161   1.430  10.201  0.7260  1.1165  0.5144
  114OSM    H9S11893   5.054   1.409  10.180  1.3137 -2.1082  0.1174
  114OSM    H9T11894   5.218   1.335  10.208 -0.9492  0.0008 -0.2797
  114OSM   C10S11895   5.211   1.504  10.080  0.0965 -0.2123  0.9280
  114OSM   H10S11896   5.322   1.504  10.086  0.3644  1.2316 -2.0884
  114OSM   H10T11897   5.171   1.607  10.074 -0.2608 -0.1769  2.9952
  114OSM   C11S11898   5.176   1.427   9.948  0.4502 -0.3394 -0.3730
  114OSM   H11S11899   5.066   1.425   9.930  0.7600 -3.0330 -2.8146
  114OSM   H11T11900   5.206   1.323   9.973  0.0149 -0.3682  0.0368
  114OSM   C12S11901   5.241   1.482   9.823  0.1308  0.1148 -0.6556
  114OSM   H12S11902   5.346   1.447   9.823  0.2200 -0.0023  2.8006
  114OSM   H12T11903   5.232   1.592   9.826 -0.9893  0.0249  1.2506
  114OSM   C13S11904   5.170   1.424   9.698  0.0076  0.1742 -0.0218
  114OSM   H13S11905   5.068   1.385   9.718  0.7807 -1.1304  1.5414
  114OSM   H13T11906   5.234   1.342   9.660 -1.6427 -0.5627 -1.3365
  114OSM   C14S11907   5.163   1.539   9.595  0.4419  0.3015  0.8022
  114OSM   H14S11908   5.257   1.599   9.596  0.9030 -0.3849  2.4255
  114OSM   H14T11909   5.083   1.611   9.621  1.1622  1.1303  0.7758
  114OSM   C15S11910   5.133   1.484   9.447 -0.2475 -0.3328  0.0087
  114OSM   H15S11911   5.036   1.432   9.462 -0.4933  0.2348  0.4284
  114OSM   H15T11912   5.220   1.419   9.422 -1.1277 -1.6778  0.2956
  114OSM   C16S11913   5.085   1.599   9.358  0.6690 -0.3525 -0.4010
  114OSM   H16S11914   5.156   1.684   9.354  1.8288 -1.1522  1.4864
  114OSM   H16T11915   4.994   1.640   9.407  1.8946  0.0937  1.6225
  114OSM   C17S11916   5.049   1.554   9.214 -0.3274  0.7677  0.2500
  114OSM   H17S11917   5.126   1.484   9.175 -1.6655 -2.9079  3.4865
  114OSM   H17T11918   5.053   1.643   9.148 -0.1708  0.0311 -0.7482
  114OSM   C18S11919   4.906   1.479   9.208 -0.4691 -0.5459 -0.1287
  114OSM   H18S11920   4.898   1.435   9.106 -0.4700  0.3990 -0.5407
  114OSM   H18T11921   4.818   1.541   9.237 -0.3369  0.1358 -1.1432
  114OSM   H18U11922   4.908   1.390   9.275 -1.1571 -0.0287  0.5957
  114OSM    C1F11923   4.613   1.599  10.714 -0.3102  0.1623  0.3802
  114OSM     OF11924   4.628   1.696  10.794 -0.2131  0.1208  0.0589
  114OSM    C2F11925   4.515   1.604  10.599 -0.0008 -0.0350 -0.2940
  114OSM    H2F11926   4.445   1.520  10.618  1.6726 -1.3744  0.2363
  114OSM    H2G11927   4.581   1.572  10.515  0.4469 -1.4277  0.5654
  114OSM    C3F11928   4.441   1.740  10.579 -0.2200  0.0308  0.0258
  114OSM    H3F11929   4.516   1.822  10.581 -0.7149  0.4929 -0.1937
  114OSM    H3G11930   4.368   1.758  10.662 -0.8939 -1.2098 -0.2759
  114OSM    C4F11931   4.366   1.733  10.442  0.2661 -0.6992 -1.1590
  114OSM    H4F11932   4.270   1.787  10.457  1.8286  2.2618 -1.1661
  114OSM    H4G11933   4.354   1.632  10.397  0.8840 -0.7692 -1.1681
  114OSM    C5F11934   4.448   1.817  10.338  0.3680 -0.4385  0.2564
  114OSM    H5F11935   4.551   1.782  10.357 -0.6950 -2.9283  1.9645
  114OSM    H5G11936   4.451   1.924  10.364  0.2694 -1.0332  2.9632
  114OSM    C6F11937   4.398   1.798  10.193 -0.1703 -0.5584 -0.6187
  114OSM    H6F11938   4.293   1.832  10.180  0.0101  1.4414  2.2567
  114OSM    H6G11939   4.413   1.692  10.163 -1.5297 -0.9729  0.0893
  114OSM    C7F11940   4.492   1.879  10.099  0.1557 -0.2062  0.1082
  114OSM    H7F11941   4.597   1.843  10.112  0.7350  1.1436 -0.5225
  114OSM    H7G11942   4.491   1.985  10.132  2.9582 -0.6721  2.0986
  114OSM    C8F11943   4.455   1.876   9.949 -0.0297  0.7873 -0.5147
  114OSM    H8F11944   4.546   1.908   9.892 -0.5235  2.0530 -0.6248
  114OSM    H8G11945   4.372   1.948   9.933  0.1283  1.2980  0.8275
  114OSM    C9F11946   4.402   1.746   9.892  0.2654  0.0073  0.3975
  114OSM    H9F11947   4.332   1.686   9.951  0.7897 -3.6628 -2.3546
  114OSM   C10F11948   4.454   1.689   9.776  1.1271 -0.0969  0.9961
  114OSM   H10F11949   4.407   1.598   9.735 -1.6095  1.7452 -0.2949
  114OSM   C11F11950   4.559   1.731   9.680  0.2931 -0.3221  0.1266
  114OSM   H11F11951   4.646   1.661   9.683  0.1443 -0.5707 -1.0219
  114OSM   H11G11952   4.613   1.821   9.716  0.2624 -0.0812 -0.4140
  114OSM   C12F11953   4.528   1.730   9.527 -0.1649  0.2822 -0.5018
  114OSM   H12F11954   4.470   1.823   9.508 -0.0409  0.3632 -0.4796
  114OSM   H12G11955   4.466   1.647   9.487  1.9435 -1.6181 -0.0412
  114OSM   C13F11956   4.655   1.739   9.443  0.1389 -0.1008  0.0895
  114OSM   H13F11957   4.723   1.653   9.459  4.1421  2.9593  1.1154
  114OSM   H13G11958   4.715   1.830   9.462 -1.2269  0.3541  2.5271
  114OSM   C14F11959   4.609   1.741   9.290 -0.7843 -0.7194 -1.2292
  114OSM   H14F11960   4.523   1.673   9.273 -2.0672  0.9942 -1.8636
  114OSM   H14G11961   4.705   1.717   9.239 -0.8130  0.0874 -1.6838
  114OSM   C15F11962   4.571   1.892   9.255  0.4737 -0.3606 -0.2252
  114OSM   H15F11963   4.651   1.961   9.291 -0.9272 -0.7864  4.4110
  114OSM   H15G11964   4.472   1.903   9.303  1.6107  1.6237  1.8308
  114OSM   C16F11965   4.548   1.915   9.105  0.3091  0.1283  0.1480
  114OSM   H16F11966   4.502   2.016   9.101 -1.5753 -0.7322 -1.8299
  114OSM   H16G11967   4.471   1.844   9.067 -0.9719  2.0479 -1.0252
  114OSM   C17F11968   4.671   1.886   9.024 -0.3516 -0.4428  0.2017
  114OSM   H17F11969   4.704   1.780   9.024  0.1546 -0.2947 -0.4396
  114OSM   H17G11970   4.761   1.938   9.063  0.6147 -1.7883 -0.1412
  114OSM   C18F11971   4.659   1.940   8.890  0.3294 -0.6564 -0.9563
  114OSM   H18F11972   4.674   2.049   8.874  1.6979 -0.5777  0.6203
  114OSM   H18G11973   4.554   1.923   8.859  0.6221 -3.0628 -0.8554
  114OSM   H18H11974   4.731   1.888   8.822  1.5307  0.6531 -0.7493
  115OSM      N11975   1.359   6.632  11.338 -0.2257 -0.2416 -0.4737
  115OSM    C1511976   1.352   6.568  11.202 -1.2809  0.8898  0.5258
  115OSM   H15A11977   1.419   6.620  11.135 -0.8878 -1.9534 -1.4395
  115OSM   H15B11978   1.251   6.561  11.165 -1.5321 -0.7722  1.4435
  115OSM   H15C11979   1.388   6.467  11.210  0.7142  1.5682  0.8591
  115OSM    C1411980   1.283   6.767  11.321  0.3234 -0.1480  0.1778
  115OSM   H14A11981   1.179   6.762  11.294  0.4444  1.8871 -0.8058
  115OSM   H14B11982   1.336   6.840  11.262 -1.8278  1.3587  0.0391
  115OSM   H14C11983   1.285   6.809  11.420  2.5252  1.4424 -0.4669
  115OSM    C1311984   1.281   6.548  11.442 -0.5138 -0.0905 -0.1272
  115OSM   H13A11985   1.325   6.449  11.442  1.0047  0.5596  0.5020
  115OSM   H13B11986   1.180   6.535  11.407  0.7958 -0.3610 -4.2699
  115OSM   H13C11987   1.279   6.587  11.543  1.1976  0.9939 -0.4915
  115OSM    C1211988   1.506   6.665  11.367 -0.1498  0.1184 -0.5772
  115OSM   H12A11989   1.562   6.574  11.380 -1.7652 -0.7715  0.4674
  115OSM   H12B11990   1.521   6.718  11.460 -1.7259 -0.1286 -0.1643
  115OSM    C1111991   1.583   6.743  11.259  0.2606  0.1662  0.1099
  115OSM   H11A11992   1.575   6.701  11.157  0.0728 -0.9626  0.5722
  115OSM   H11B11993   1.690   6.744  11.288  0.7261  0.7665 -1.5518
  115OSM      P11994   1.618   6.988  11.179  0.0886 -0.1338  0.1078
  115OSM    O1311995   1.551   7.117  11.191 -0.2113 -0.9175 -0.6243
  115OSM    O1411996   1.766   6.979  11.211  0.5236  0.3249 -0.0407
  115OSM    O1111997   1.602   6.943  11.028  0.2484  0.0467  0.0073
  115OSM    O1211998   1.537   6.873  11.245 -0.3134  0.1878 -0.1239
  115OSM    C1S11999   1.464   6.929  10.980 -0.0212  0.0900 -0.3671
  115OSM    H1S12000   1.397   7.015  11.003 -0.4774 -0.6439  1.2373
  115OSM    H1T12001   1.418   6.845  11.036  1.8853 -0.6077  0.2416
  115OSM     NF12002   1.308   6.892  10.784 -0.4442 -0.0999  0.2225
  115OSM    HNF12003   1.257   6.806  10.785  0.6317 -0.7756 -0.4196
  115OSM    C2S12004   1.451   6.885  10.830 -0.0863 -0.1817 -0.5237
  115OSM    H2S12005   1.516   6.963  10.786  1.4691  0.5711  2.8457
  115OSM    C3S12006   1.517   6.746  10.802 -0.2395 -0.8577  0.1695
  115OSM    H3S12007   1.449   6.679  10.859 -2.1143 -0.1162 -1.0679
  115OSM     O312008   1.649   6.724  10.855  0.6491  0.2519  0.2454
  115OSM    HO312009   1.666   6.790  10.922  2.4887 -2.8169  3.1246
  115OSM    C4S12010   1.510   6.728  10.653 -0.2014 -0.4742  0.2375
  115OSM    H4S12011   1.421   6.677  10.613  1.5488 -2.1984 -1.7063
  115OSM    C5S12012   1.603   6.770  10.561 -0.2324  0.5327 -0.5202
  115OSM    H5S12013   1.701   6.815  10.582  0.7823 -1.0244 -1.7139
  115OSM    C6S12014   1.594   6.748  10.411 -0.3184 -0.3790  0.3534
  115OSM    H6S12015   1.669   6.670  10.387  0.2926 -0.0405  1.1207
  115OSM    H6T12016   1.622   6.833  10.345 -2.2014 -0.8586 -1.1506
  115OSM    C7S12017   1.454   6.706  10.363  0.1468 -0.3801  0.6678
  115OSM    H7S12018   1.377   6.780  10.393  1.3482  1.6375 -0.9770
  115OSM    H7T12019   1.434   6.608  10.412  0.5011 -0.5887  0.4051
  115OSM    C8S12020   1.438   6.698  10.211 -0.1941 -0.1615 -0.0630
  115OSM    H8S12021   1.509   6.623  10.170 -1.1256 -1.5125  0.6812
  115OSM    H8T12022   1.457   6.797  10.164  0.6078  0.6292  1.8141
  115OSM    C9S12023   1.297   6.652  10.171  0.1859  0.4981 -0.2249
  115OSM    H9S12024   1.226   6.724  10.217 -1.4526 -0.2736 -1.4465
  115OSM    H9T12025   1.288   6.559  10.231  2.6953  1.4697  1.8455
  115OSM   C10S12026   1.279   6.626  10.012 -0.5221  0.4718 -0.4447
  115OSM   H10S12027   1.186   6.570   9.991 -1.8889  2.2049  0.6369
  115OSM   H10T12028   1.366   6.568   9.976 -0.4702 -0.8237  1.6128
  115OSM   C11S12029   1.249   6.756   9.930 -0.1643 -0.4944  0.1635
  115OSM   H11S12030   1.334   6.828   9.942  0.7909 -1.7148  0.9339
  115OSM   H11T12031   1.158   6.812   9.962  0.7877  1.2460 -0.0197
  115OSM   C12S12032   1.222   6.735   9.778 -0.8650 -0.2333 -0.4543
  115OSM   H12S12033   1.204   6.832   9.727  2.1466  0.2705 -0.7488
  115OSM   H12T12034   1.128   6.677   9.769 -0.5629 -0.9491  0.8008
  115OSM   C13S12035   1.340   6.667   9.708 -0.3374  0.6710  0.9367
  115OSM   H13S12036   1.354   6.572   9.763  1.1305  1.9593  2.9269
  115OSM   H13T12037   1.426   6.736   9.710  0.0193  0.4970 -2.3862
  115OSM   C14S12038   1.298   6.645   9.555  0.0968  0.7612 -0.1311
  115OSM   H14S12039   1.193   6.609   9.547  1.1644 -3.3036  1.5313
  115OSM   H14T12040   1.363   6.562   9.521 -1.7802 -1.0933  0.5339
  115OSM   C15S12041   1.333   6.764   9.464 -0.4604 -0.5238  0.3542
  115OSM   H15S12042   1.439   6.797   9.460 -0.7036  0.1335 -2.6365
  115OSM   H15T12043   1.282   6.854   9.507  0.9759 -0.6911  2.5831
  115OSM   C16S12044   1.291   6.733   9.316  0.7653 -0.0977  0.6629
  115OSM   H16S12045   1.334   6.633   9.290  0.1847  0.1591 -1.4069
  115OSM   H16T12046   1.353   6.812   9.268  1.3709  1.0591  3.1640
  115OSM   C17S12047   1.142   6.733   9.269  0.1875  0.5079 -0.5140
  115OSM   H17S12048   1.146   6.720   9.159  2.3978  0.5991 -0.4912
  115OSM   H17T12049   1.108   6.837   9.286 -0.1077  1.2619 -4.6146
  115OSM   C18S12050   1.051   6.627   9.325  0.6889 -0.1353 -0.0044
  115OSM   H18S12051   1.098   6.527   9.315  2.2301  0.5903 -0.4456
  115OSM   H18T12052   0.962   6.628   9.258 -0.1815 -0.6106  1.1097
  115OSM   H18U12053   1.020   6.650   9.429 -0.2835 -1.1151 -0.0597
  115OSM    C1F12054   1.238   7.010  10.790  0.0258 -0.2304  0.4351
  115OSM     OF12055   1.294   7.117  10.824  0.5025  0.5686  0.0089
  115OSM    C2F12056   1.091   7.004  10.761  0.6433  0.1633 -0.6337
  115OSM    H2F12057   1.038   6.987  10.857 -2.9192  2.5382 -1.9687
  115OSM    H2G12058   1.060   6.926  10.689 -1.6899 -0.6710  1.1400
  115OSM    C3F12059   1.036   7.140  10.704  0.2071 -0.1420 -0.3504
  115OSM    H3F12060   1.054   7.221  10.779  0.6699  1.6649 -2.3277
  115OSM    H3G12061   0.925   7.147  10.708  0.1264 -0.9832 -0.9179
  115OSM    C4F12062   1.104   7.188  10.577 -0.2283  0.2776  0.3412
  115OSM    H4F12063   1.201   7.234  10.606 -1.2671  1.9783  1.3732
  115OSM    H4G12064   1.031   7.254  10.526  0.1539  0.4292 -0.0111
  115OSM    C5F12065   1.136   7.090  10.461  0.4764 -0.4911 -0.0478
  115OSM    H5F12066   1.191   7.002  10.500 -0.1054 -0.5476  0.6835
  115OSM    H5G12067   1.207   7.136  10.390  0.5168 -0.6702 -0.1243
  115OSM    C6F12068   1.005   7.048  10.394  0.5579 -0.3626  0.5576
  115OSM    H6F12069   0.935   7.126  10.359  1.9321  0.0915 -1.3839
  115OSM    H6G12070   0.953   6.994  10.476  2.2621 -0.1294  1.8570
  115OSM    C7F12071   1.032   6.942  10.281  0.3676  0.6108  0.4244
  115OSM    H7F12072   1.102   6.862  10.311 -2.0722 -2.6107 -1.7911
  115OSM    H7G12073   1.067   6.997  10.191  1.4359  0.8387  0.9656
  115OSM    C8F12074   0.902   6.860  10.258 -0.3141  0.0630 -0.1539
  115OSM    H8F12075   0.826   6.924  10.209 -0.7038 -0.0230  0.3383
  115OSM    H8G12076   0.865   6.826  10.357 -0.0992  1.5280  0.4548
  115OSM    C9F12077   0.925   6.741  10.168  0.0852 -0.1826 -0.0179
  115OSM    H9F12078   1.005   6.670  10.193 -0.0600 -0.5373 -0.5576
  115OSM   C10F12079   0.857   6.723  10.054 -0.1395  0.0975  0.2455
  115OSM   H10F12080   0.882   6.635   9.992  0.2515  0.7626 -0.5531
  115OSM   C11F12081   0.752   6.806   9.993 -0.3188  0.3836 -0.5772
  115OSM   H11F12082   0.801   6.901   9.963  0.5437 -0.1693 -0.9569
  115OSM   H11G12083   0.679   6.833  10.073 -0.0486  0.2425 -0.2853
  115OSM   C12F12084   0.685   6.739   9.867 -0.1680  0.3701 -0.5112
  115OSM   H12F12085   0.579   6.774   9.860 -0.1191  0.6316  0.0131
  115OSM   H12G12086   0.667   6.630   9.876  0.5419  0.1043 -1.9152
  115OSM   C13F12087   0.757   6.770   9.739 -0.6798 -0.1107  0.0244
  115OSM   H13F12088   0.857   6.723   9.741 -0.6553 -0.1631 -1.4020
  115OSM   H13G12089   0.788   6.876   9.729  1.1073 -0.7735 -2.5930
  115OSM   C14F12090   0.672   6.744   9.616  0.3177 -0.0863  0.0098
  115OSM   H14F12091   0.570   6.779   9.639  0.8649  1.8810 -0.3503
  115OSM   H14G12092   0.673   6.635   9.594  0.3022 -0.2019  0.5826
  115OSM   C15F12093   0.727   6.800   9.486 -0.1615 -0.6066 -0.5019
  115OSM   H15F12094   0.820   6.745   9.460  0.5136 -0.3613  1.2508
  115OSM   H15G12095   0.760   6.903   9.511 -1.0855 -0.4657  0.1816
  115OSM   C16F12096   0.627   6.791   9.373 -1.0866 -0.7413 -0.5164
  115OSM   H16F12097   0.534   6.831   9.418 -2.3543 -1.5766 -2.3032
  115OSM   H16G12098   0.606   6.687   9.342 -0.0587 -0.8131 -1.0201
  115OSM   C17F12099   0.673   6.878   9.259  0.2398 -0.4363 -0.3588
  115OSM   H17F12100   0.676   6.980   9.302  0.2633  0.1051 -1.6015
  115OSM   H17G12101   0.585   6.891   9.192  0.7975 -0.8608 -1.1914
  115OSM   C18F12102   0.798   6.833   9.193 -0.5393  0.2717  0.5537
  115OSM   H18F12103   0.789   6.727   9.161  1.0930  0.3640 -0.3118
  115OSM   H18G12104   0.883   6.834   9.264 -0.8465 -0.1966  0.9300
  115OSM   H18H12105   0.821   6.901   9.108 -0.1622 -0.7163 -0.1535
  116OSM      N12106   4.775   4.546  11.147  0.3913  0.1638  0.4261
  116OSM    C1512107   4.797   4.442  11.250  0.0606  0.2924 -0.7400
  116OSM   H15A12108   4.863   4.362  11.220 -0.2884 -0.0859 -0.4974
  116OSM   H15B12109   4.702   4.399  11.279  0.2876  1.0061  1.2003
  116OSM   H15C12110   4.840   4.493  11.335  0.7046 -0.4101 -0.6391
  116OSM    C1412111   4.724   4.467  11.020  0.0169 -0.2354 -0.3684
  116OSM   H14A12112   4.795   4.393  10.987 -0.8428 -2.0851  1.6260
  116OSM   H14B12113   4.699   4.539  10.943  1.2130 -1.1990 -1.6964
  116OSM   H14C12114   4.640   4.407  11.053  0.8430 -1.4242 -0.3609
  116OSM    C1312115   4.663   4.631  11.186 -0.6877  0.0727 -0.0059
  116OSM   H13A12116   4.704   4.685  11.270  0.6095 -1.4652  0.3905
  116OSM   H13B12117   4.570   4.584  11.215 -0.9664  0.3515 -0.4386
  116OSM   H13C12118   4.646   4.707  11.111  1.3335  2.8470  2.1314
  116OSM    C1212119   4.896   4.626  11.129 -0.6848 -0.1647  0.8747
  116OSM   H12A12120   4.987   4.568  11.133 -1.4614 -1.3532  2.9820
  116OSM   H12B12121   4.911   4.693  11.212  0.4455  0.0463  0.5157
  116OSM    C1112122   4.893   4.719  10.996 -0.6480  0.6483 -1.2130
  116OSM   H11A12123   4.882   4.655  10.906  0.3755 -1.0546 -0.1706
  116OSM   H11B12124   4.990   4.774  10.985 -0.8254  1.0875 -0.6196
  116OSM      P12125   4.825   4.968  11.039  0.6036 -0.1878 -0.0318
  116OSM    O1312126   4.694   5.037  11.060 -0.2789 -0.3012  0.5686
  116OSM    O1412127   4.927   4.982  11.144 -0.2156 -0.1621  0.2448
  116OSM    O1112128   4.876   5.033  10.906 -0.6866  0.8707 -0.2673
  116OSM    O1212129   4.792   4.814  11.007  0.4227 -0.5150  0.0559
  116OSM    C1S12130   4.909   4.962  10.786 -0.1434  0.0078  0.0512
  116OSM    H1S12131   4.856   4.866  10.771  0.6386 -0.3945 -0.2138
  116OSM    H1T12132   5.008   4.912  10.795 -1.1148 -2.3773 -1.4945
  116OSM     NF12133   4.963   4.970  10.554 -0.1711  0.4556 -0.4482
  116OSM    HNF12134   5.063   4.979  10.554 -0.1897  2.3931  2.4183
  116OSM    C2S12135   4.904   5.053  10.656 -0.1360  0.3400  0.2796
  116OSM    H2S12136   4.799   5.080  10.633  0.0974  0.1007 -1.1297
  116OSM    C3S12137   4.983   5.191  10.669  0.6409 -0.0739  0.2731
  116OSM    H3S12138   5.079   5.154  10.712 -0.2698 -1.9787  0.7774
  116OSM     O312139   4.925   5.283  10.756 -0.6363 -0.2623  0.3697
  116OSM    HO312140   4.897   5.234  10.833  1.0719  0.3208  1.4135
  116OSM    C4S12141   5.005   5.265  10.545  0.1120 -0.9475 -0.8426
  116OSM    H4S12142   4.916   5.304  10.493 -0.7093 -1.8626 -0.1615
  116OSM    C5S12143   5.126   5.288  10.497  0.2572  0.6125  0.5800
  116OSM    H5S12144   5.215   5.252  10.549  0.0106 -0.0356  0.5658
  116OSM    C6S12145   5.160   5.366  10.371  0.2963 -0.2328  0.0757
  116OSM    H6S12146   5.260   5.330  10.339  1.0978  1.1087  0.9681
  116OSM    H6T12147   5.171   5.474  10.393  3.7822 -0.2543 -1.0406
  116OSM    C7S12148   5.055   5.360  10.252 -0.1189  0.0942  0.2741
  116OSM    H7S12149   4.977   5.439  10.253  0.9649  1.3111 -2.2115
  116OSM    H7T12150   5.008   5.259  10.252  1.3580 -0.6281 -1.2696
  116OSM    C8S12151   5.123   5.374  10.110  0.3072 -0.2225 -0.0312
  116OSM    H8S12152   5.196   5.291  10.102  0.2385 -0.3608  0.6754
  116OSM    H8T12153   5.180   5.468  10.096 -0.5681  0.1145 -1.6314
  116OSM    C9S12154   5.032   5.373   9.986 -0.0397  0.0915  0.2799
  116OSM    H9S12155   4.940   5.429  10.015 -0.4283 -0.5718  0.3707
  116OSM    H9T12156   4.989   5.272   9.970  1.2627 -0.6130  1.0952
  116OSM   C10S12157   5.088   5.434   9.860  0.8752 -1.0892  0.6838
  116OSM   H10S12158   5.198   5.415   9.854  1.1977  0.8169 -0.0338
  116OSM   H10T12159   5.073   5.544   9.862  3.2446 -0.7178  1.1820
  116OSM   C11S12160   5.032   5.385   9.720  0.0269  0.6591 -1.0341
  116OSM   H11S12161   5.091   5.440   9.643  1.5070 -0.0506 -0.4433
  116OSM   H11T12162   4.923   5.405   9.720 -0.1522 -0.0239  1.5301
  116OSM   C12S12163   5.051   5.232   9.695  0.1880 -0.1185 -0.3424
  116OSM   H12S12164   5.027   5.169   9.783 -0.5224 -0.3640 -0.6992
  116OSM   H12T12165   5.160   5.223   9.676  1.2562  4.0025  2.4145
  116OSM   C13S12166   4.956   5.188   9.584  0.3464  0.8227  0.3084
  116OSM   H13S12167   4.854   5.214   9.620  0.3286  0.3758  0.5905
  116OSM   H13T12168   4.967   5.077   9.588  0.6402  0.8699  1.0101
  116OSM   C14S12169   4.990   5.230   9.444 -0.6458 -0.3827 -0.2848
  116OSM   H14S12170   5.083   5.179   9.410 -1.5629 -0.2349 -3.3042
  116OSM   H14T12171   5.015   5.338   9.453 -1.4744 -0.0988 -1.2195
  116OSM   C15S12172   4.871   5.215   9.350 -0.5423  0.0592 -0.1274
  116OSM   H15S12173   4.895   5.249   9.247 -0.8000 -0.3293 -0.3197
  116OSM   H15T12174   4.793   5.289   9.381 -0.2865  0.5664 -0.6695
  116OSM   C16S12175   4.812   5.072   9.342 -1.0898  0.4402 -0.0968
  116OSM   H16S12176   4.765   5.038   9.437 -0.7429  3.2098  1.1877
  116OSM   H16T12177   4.902   5.010   9.322  0.3670  1.7167  1.9939
  116OSM   C17S12178   4.724   5.055   9.221  0.5241  0.7555  0.3618
  116OSM   H17S12179   4.750   5.121   9.134 -0.7279  2.2548  1.0770
  116OSM   H17T12180   4.620   5.084   9.247  0.7646  0.4372  1.7611
  116OSM   C18S12181   4.729   4.914   9.164 -0.1434 -0.3724 -0.3334
  116OSM   H18S12182   4.684   4.843   9.236 -0.0093 -0.6156 -0.4892
  116OSM   H18T12183   4.835   4.883   9.153 -0.6516 -2.3646  0.1101
  116OSM   H18U12184   4.677   4.920   9.066 -1.7750  0.4040  0.5488
  116OSM    C1F12185   4.888   4.875  10.493  0.0202 -0.6269 -0.2773
  116OSM     OF12186   4.766   4.891  10.493  0.1477  0.9826  0.3652
  116OSM    C2F12187   4.951   4.759  10.421  0.6157  0.7171 -0.0757
  116OSM    H2F12188   4.932   4.664  10.475  0.0154  0.5195 -0.6181
  116OSM    H2G12189   5.060   4.777  10.421  0.4014  2.1916  0.5385
  116OSM    C3F12190   4.886   4.736  10.274  0.5372 -0.2239  0.0976
  116OSM    H3F12191   4.903   4.824  10.209  1.0348 -0.7843 -0.5509
  116OSM    H3G12192   4.776   4.734  10.289  0.0963  1.4388 -2.3077
  116OSM    C4F12193   4.926   4.598  10.208  0.8536 -0.2715 -0.0496
  116OSM    H4F12194   4.881   4.523  10.277  1.5389  0.2275  0.9760
  116OSM    H4G12195   5.037   4.586  10.207  1.0929  0.3935  3.7470
  116OSM    C5F12196   4.859   4.571  10.073 -0.2278 -0.3650 -0.0638
  116OSM    H5F12197   4.916   4.635  10.002  1.2322 -1.3625  0.1748
  116OSM    H5G12198   4.753   4.603  10.060 -0.1508  0.0869  0.3789
  116OSM    C6F12199   4.879   4.431  10.021 -0.0494  0.3007  0.4133
  116OSM    H6F12200   4.842   4.355  10.092  0.1228  0.1914  0.3872
  116OSM    H6G12201   4.990   4.424  10.017  0.0984  1.7184  1.3485
  116OSM    C7F12202   4.817   4.403   9.880  0.4515  0.0992  0.1723
  116OSM    H7F12203   4.864   4.308   9.847 -1.3814 -0.5924 -0.5522
  116OSM    H7G12204   4.852   4.483   9.812  0.9574 -1.6934 -1.7731
  116OSM    C8F12205   4.663   4.376   9.886  0.1843 -0.4279  0.3642
  116OSM    H8F12206   4.643   4.395   9.778  1.0890  1.8354  0.5368
  116OSM    H8G12207   4.604   4.453   9.940 -0.5425  0.7168 -1.9530
  116OSM    C9F12208   4.628   4.231   9.918  0.6896  0.1060  0.2145
  116OSM    H9F12209   4.611   4.212  10.025 -0.1786 -0.2588  0.0205
  116OSM   C10F12210   4.619   4.129   9.826  0.0234  0.1948  0.1265
  116OSM   H10F12211   4.602   4.026   9.862 -1.1587 -0.1730 -1.3995
  116OSM   C11F12212   4.648   4.144   9.679 -0.4142  0.0957 -0.0923
  116OSM   H11F12213   4.737   4.083   9.651 -1.1465 -0.6083 -0.9799
  116OSM   H11G12214   4.660   4.247   9.641 -0.4367 -0.2625 -1.1100
  116OSM   C12F12215   4.531   4.087   9.585  0.8163 -0.6162  0.1423
  116OSM   H12F12216   4.436   4.117   9.633  0.6714 -0.7843 -0.0408
  116OSM   H12G12217   4.539   3.977   9.594 -0.6702 -0.7346  0.1405
  116OSM   C13F12218   4.546   4.149   9.440 -0.2968 -0.8172  0.6895
  116OSM   H13F12219   4.561   4.259   9.438  0.6240 -0.9131 -2.2498
  116OSM   H13G12220   4.453   4.123   9.386  0.0498 -2.4162  0.7992
  116OSM   C14F12221   4.662   4.091   9.359  0.1286 -0.3062 -0.0407
  116OSM   H14F12222   4.671   3.980   9.360  1.9908 -0.1938 -0.1521
  116OSM   H14G12223   4.758   4.122   9.405 -1.4133  2.1211  1.7388
  116OSM   C15F12224   4.658   4.138   9.215  0.4028 -0.0119 -0.2724
  116OSM   H15F12225   4.662   4.249   9.218  0.6599 -0.0478  1.8037
  116OSM   H15G12226   4.573   4.092   9.161  0.3205  1.3309 -1.3348
  116OSM   C16F12227   4.778   4.093   9.129 -0.3026 -1.2994  0.2855
  116OSM   H16F12228   4.782   3.983   9.146  1.4532 -1.5219 -1.2501
  116OSM   H16G12229   4.875   4.127   9.169 -0.9307  0.0896  0.6728
  116OSM   C17F12230   4.765   4.116   8.975  0.4207 -0.3557 -0.7562
  116OSM   H17F12231   4.750   4.225   8.963 -3.3568 -0.8693 -2.2393
  116OSM   H17G12232   4.677   4.059   8.938 -0.9375  0.7171  0.6894
  116OSM   C18F12233   4.891   4.062   8.908 -0.1551  0.2559 -0.3798
  116OSM   H18F12234   4.897   4.085   8.799 -2.3041 -1.7421 -1.0206
  116OSM   H18G12235   4.890   3.951   8.908 -0.8758  0.2127 -2.2483
  116OSM   H18H12236   4.985   4.090   8.959  0.4739 -2.8842  0.3911
  117OSM      N12237   3.234   4.152  11.046  0.5631 -0.7538  0.1639
  117OSM    C1512238   3.240   4.206  11.182  0.2123 -0.5231 -0.6448
  117OSM   H15A12239   3.334   4.258  11.191  0.4855 -1.1968  0.9248
  117OSM   H15B12240   3.240   4.131  11.260  0.7827 -0.3625 -0.4815
  117OSM   H15C12241   3.173   4.290  11.191  1.9974  0.8487  0.6741
  117OSM    C1412242   3.353   4.069  11.015 -0.2251  0.3588  0.1450
  117OSM   H14A12243   3.357   4.045  10.910 -0.6149  0.9781 -0.0115
  117OSM   H14B12244   3.351   3.978  11.073 -4.1879  2.2056  3.4232
  117OSM   H14C12245   3.450   4.113  11.034 -0.2141 -0.7448  3.2576
  117OSM    C1312246   3.113   4.057  11.036 -0.0257  0.4666 -0.6812
  117OSM   H13A12247   3.110   3.983  11.115 -0.0444 -0.2000 -1.2890
  117OSM   H13B12248   3.113   3.999  10.944 -2.5082 -0.1551 -0.3732
  117OSM   H13C12249   3.017   4.105  11.024 -0.6597 -1.0778 -2.3091
  117OSM    C1212250   3.225   4.258  10.949  0.2717 -0.2392 -0.4600
  117OSM   H12A12251   3.249   4.214  10.853 -0.4167 -1.2234 -0.1925
  117OSM   H12B12252   3.307   4.327  10.961 -1.4207  2.0707 -1.4568
  117OSM    C1112253   3.100   4.355  10.946 -0.4611 -0.2839  0.1546
  117OSM   H11A12254   3.009   4.293  10.935 -0.6632 -0.3501  1.9359
  117OSM   H11B12255   3.125   4.418  10.858  2.1614 -0.5184  0.6486
  117OSM      P12256   3.178   4.553  11.078  0.2017  0.1028 -0.0052
  117OSM    O1312257   3.142   4.628  11.197  0.5095 -0.2399 -0.1393
  117OSM    O1412258   3.323   4.526  11.068  0.4251  0.1529  0.4765
  117OSM    O1112259   3.133   4.640  10.955 -0.0867 -0.7174  0.5112
  117OSM    O1212260   3.091   4.423  11.074 -0.4294  0.2825  1.3482
  117OSM    C1S12261   3.239   4.700  10.879 -0.6005 -0.0351 -0.1674
  117OSM    H1S12262   3.340   4.655  10.888  0.0951  1.6975  1.3415
  117OSM    H1T12263   3.231   4.805  10.915 -2.8012  0.0971 -0.8961
  117OSM     NF12264   3.323   4.739  10.648  0.0244  0.3364  0.1591
  117OSM    HNF12265   3.354   4.833  10.653  1.8225 -0.1825 -0.5269
  117OSM    C2S12266   3.200   4.706  10.724  0.6009  0.7698 -0.9674
  117OSM    H2S12267   3.164   4.608  10.689 -0.7468  1.4461 -1.5464
  117OSM    C3S12268   3.078   4.798  10.709 -0.6998  0.6115  0.3619
  117OSM    H3S12269   3.114   4.897  10.744  1.5299 -0.1324  0.3096
  117OSM     O312270   2.962   4.749  10.781 -0.2632  0.0379  0.2795
  117OSM    HO312271   2.990   4.674  10.833  1.3235  0.5178  0.1662
  117OSM    C4S12272   3.059   4.821  10.562  0.1334  0.6536 -0.5801
  117OSM    H4S12273   3.125   4.900  10.524  2.5035 -1.3337 -0.8350
  117OSM    C5S12274   2.980   4.753  10.480  0.8497 -0.5458  0.0749
  117OSM    H5S12275   2.900   4.689  10.520 -2.3716  2.1213 -1.6466
  117OSM    C6S12276   2.967   4.773  10.332 -0.2636 -0.9653  0.3398
  117OSM    H6S12277   2.859   4.785  10.308 -0.3892  0.1744  1.3510
  117OSM    H6T12278   3.000   4.678  10.286 -1.6363 -0.9202 -0.7865
  117OSM    C7S12279   3.039   4.900  10.261  0.0905 -0.5035  0.2471
  117OSM    H7S12280   3.148   4.881  10.254  0.3710  1.3611 -1.5264
  117OSM    H7T12281   3.008   4.992  10.316 -1.2551 -0.2259 -0.9185
  117OSM    C8S12282   2.989   4.916  10.116 -0.0096  0.3884 -0.1233
  117OSM    H8S12283   3.014   5.016  10.076 -1.2955  0.7730  0.0013
  117OSM    H8T12284   2.879   4.914  10.126 -0.2595  1.3356 -2.1591
  117OSM    C9S12285   3.040   4.803  10.023  0.3717 -0.4991 -0.3392
  117OSM    H9S12286   3.000   4.710  10.069  0.4786 -0.8135 -0.8786
  117OSM    H9T12287   3.150   4.789  10.010  0.4146  0.7591 -1.4227
  117OSM   C10S12288   2.967   4.813   9.890 -0.1059 -0.1348 -0.9384
  117OSM   H10S12289   2.858   4.822   9.911  0.1326  0.4394  0.1271
  117OSM   H10T12290   2.987   4.711   9.851 -0.3777 -0.6401  0.1836
  117OSM   C11S12291   3.002   4.928   9.795 -0.4929 -0.3634  0.1656
  117OSM   H11S12292   3.108   4.959   9.804 -1.0343  1.7489 -0.1354
  117OSM   H11T12293   2.947   5.023   9.812 -1.5480 -1.1619  1.3877
  117OSM   C12S12294   2.985   4.888   9.645 -0.5495 -0.2068  0.2487
  117OSM   H12S12295   3.017   4.784   9.620  0.8850 -0.1821  1.7544
  117OSM   H12T12296   3.044   4.950   9.575 -1.9663 -0.3733 -1.1429
  117OSM   C13S12297   2.836   4.896   9.608 -0.2818 -0.2469 -0.5818
  117OSM   H13S12298   2.800   5.000   9.617  1.6253  0.4420 -0.2805
  117OSM   H13T12299   2.786   4.843   9.691  2.0878 -0.3316  0.9036
  117OSM   C14S12300   2.806   4.837   9.471 -0.3133 -0.1865 -0.3804
  117OSM   H14S12301   2.703   4.795   9.472 -1.0152  1.2700  2.9202
  117OSM   H14T12302   2.876   4.752   9.453  1.0990  0.3847  2.0175
  117OSM   C15S12303   2.825   4.935   9.353  0.1873  0.1604  0.3411
  117OSM   H15S12304   2.934   4.955   9.355  0.6815 -2.2414  0.5313
  117OSM   H15T12305   2.759   5.022   9.374  0.0174 -0.0266  0.5779
  117OSM   C16S12306   2.806   4.871   9.219  0.3477  0.0998  0.4633
  117OSM   H16S12307   2.865   4.779   9.200  1.4076  0.9128 -0.3356
  117OSM   H16T12308   2.842   4.941   9.140 -0.3115  0.4587  0.4765
  117OSM   C17S12309   2.659   4.824   9.190  0.4303 -0.0799  0.3759
  117OSM   H17S12310   2.594   4.911   9.209  1.5632  0.9190 -0.1948
  117OSM   H17T12311   2.627   4.746   9.262  2.3511 -2.1667 -0.8932
  117OSM   C18S12312   2.651   4.775   9.047  1.1826 -0.0679  0.3650
  117OSM   H18S12313   2.713   4.684   9.032  0.7117 -0.1470 -1.2714
  117OSM   H18T12314   2.699   4.845   8.976  2.9921 -0.4136  1.1997
  117OSM   H18U12315   2.547   4.752   9.015  1.0582 -2.9089  2.4174
  117OSM    C1F12316   3.416   4.650  10.617  0.3628  0.3567  0.1852
  117OSM     OF12317   3.394   4.530  10.633 -0.0872  0.4683 -0.4060
  117OSM    C2F12318   3.546   4.693  10.568  0.0200  0.0509  0.2868
  117OSM    H2F12319   3.618   4.668  10.649  1.8708  1.6044 -0.7812
  117OSM    H2G12320   3.553   4.802  10.548  2.6514 -0.1994 -0.5392
  117OSM    C3F12321   3.594   4.625  10.436  0.1298 -0.0928 -0.4664
  117OSM    H3F12322   3.524   4.638  10.351  0.2212  2.9701 -0.1983
  117OSM    H3G12323   3.600   4.517  10.463 -1.4181  0.1145  0.8881
  117OSM    C4F12324   3.730   4.678  10.387 -0.7452 -0.0902  0.1967
  117OSM    H4F12325   3.808   4.680  10.466  0.9637 -2.1214 -1.3377
  117OSM    H4G12326   3.717   4.783  10.352 -1.1502 -0.4215 -0.6745
  117OSM    C5F12327   3.801   4.597  10.274  0.3403 -0.5620 -0.1000
  117OSM    H5F12328   3.847   4.504  10.314  0.4959 -0.3654  0.1859
  117OSM    H5G12329   3.886   4.658  10.237  2.1046 -1.1046  2.7115
  117OSM    C6F12330   3.711   4.563  10.151 -0.3518  0.2964 -0.3074
  117OSM    H6F12331   3.663   4.657  10.115  0.0011  1.0247  1.0483
  117OSM    H6G12332   3.641   4.485  10.189  1.3255 -1.2052 -0.1878
  117OSM    C7F12333   3.781   4.488  10.035 -0.1520  0.4462 -0.2224
  117OSM    H7F12334   3.837   4.406  10.085  0.3792  0.5574 -0.6263
  117OSM    H7G12335   3.853   4.559   9.989  1.5565  0.4178  2.2076
  117OSM    C8F12336   3.684   4.436   9.938 -0.0181  0.3679 -0.2715
  117OSM    H8F12337   3.610   4.364   9.976  0.2887  0.4175  0.4332
  117OSM    H8G12338   3.747   4.374   9.870 -1.8303  0.3886 -2.0746
  117OSM    C9F12339   3.624   4.551   9.854 -0.1936  0.5015  0.3026
  117OSM    H9F12340   3.592   4.632   9.921  0.4701  2.3919 -1.5764
  117OSM   C10F12341   3.606   4.558   9.717  0.2261  0.5397 -0.5704
  117OSM   H10F12342   3.531   4.627   9.677 -0.2526  1.9354  2.4658
  117OSM   C11F12343   3.649   4.467   9.610  0.7574  0.7392 -0.1885
  117OSM   H11F12344   3.742   4.416   9.641 -1.3374 -2.4403  1.4636
  117OSM   H11G12345   3.673   4.519   9.515  3.3174 -0.1505 -0.0888
  117OSM   C12F12346   3.553   4.348   9.584  0.8248 -0.4076  0.2702
  117OSM   H12F12347   3.464   4.402   9.546  1.9801  0.9990 -0.5378
  117OSM   H12G12348   3.511   4.303   9.676 -1.7147 -0.6718 -0.9254
  117OSM   C13F12349   3.595   4.235   9.492  0.2970  0.4200  0.0634
  117OSM   H13F12350   3.507   4.167   9.498  1.8294 -1.5852  0.7467
  117OSM   H13G12351   3.684   4.186   9.536 -1.9333 -2.1444  2.0193
  117OSM   C14F12352   3.619   4.272   9.350 -0.2536  0.2497  0.7547
  117OSM   H14F12353   3.717   4.325   9.348  1.4747 -2.6836 -0.2529
  117OSM   H14G12354   3.536   4.326   9.300 -0.8091  0.0356  1.4369
  117OSM   C15F12355   3.630   4.160   9.245 -0.2171 -0.3520  0.3533
  117OSM   H15F12356   3.610   4.206   9.147  2.5504 -1.8828 -1.0504
  117OSM   H15G12357   3.548   4.088   9.266  1.5568 -1.9327  2.4806
  117OSM   C16F12358   3.763   4.081   9.248 -0.1534 -0.2154  0.8413
  117OSM   H16F12359   3.781   4.051   9.354 -0.4497  0.0208  0.9606
  117OSM   H16G12360   3.851   4.143   9.218 -0.4522  0.6998  1.7786
  117OSM   C17F12361   3.755   3.957   9.166  0.6473  0.2222 -0.1907
  117OSM   H17F12362   3.688   3.880   9.211  0.4078  0.4653 -0.1246
  117OSM   H17G12363   3.850   3.900   9.160  0.9292  0.7521 -0.7815
  117OSM   C18F12364   3.706   3.979   9.018  0.4411 -0.1786 -0.2466
  117OSM   H18F12365   3.612   4.038   9.018  0.6627  0.2426 -2.1977
  117OSM   H18G12366   3.692   3.880   8.971 -1.0665  0.2465 -0.7518
  117OSM   H18H12367   3.781   4.029   8.953  2.9000  1.2045  3.3099
  118OSM      N12368   2.405   6.408  11.285  0.5954 -0.3806 -1.1050
  118OSM    C1512369   2.468   6.450  11.161 -0.1697 -0.9209  0.2676
  118OSM   H15A12370   2.560   6.506  11.166 -0.6488  0.2323 -2.3175
  118OSM   H15B12371   2.389   6.499  11.105  1.6078  2.3714  0.4132
  118OSM   H15C12372   2.509   6.369  11.101 -0.0010  0.2570 -1.2720
  118OSM    C1412373   2.505   6.345  11.379 -0.3341  0.5549 -0.1051
  118OSM   H14A12374   2.561   6.266  11.330  1.7688  0.5989  2.0789
  118OSM   H14B12375   2.449   6.301  11.461  0.0629 -1.3661 -0.8048
  118OSM   H14C12376   2.569   6.424  11.414 -1.3835  2.1434 -1.5780
  118OSM    C1312377   2.336   6.526  11.347 -0.2691 -0.4569 -0.4375
  118OSM   H13A12378   2.404   6.608  11.363 -2.0731  1.3418 -1.5204
  118OSM   H13B12379   2.296   6.506  11.445  0.3850  0.0759 -0.0554
  118OSM   H13C12380   2.264   6.563  11.275  2.0145  2.3457 -1.4286
  118OSM    C1212381   2.306   6.293  11.260 -0.0770 -0.4814  1.0812
  118OSM   H12A12382   2.232   6.324  11.188 -1.8799 -0.9842  2.6465
  118OSM   H12B12383   2.253   6.276  11.353 -0.2687 -1.3996  0.8135
  118OSM    C1112384   2.360   6.157  11.209  0.9108 -0.8686 -0.4883
  118OSM   H11A12385   2.277   6.088  11.184 -2.0079  2.4816 -0.7835
  118OSM   H11B12386   2.420   6.104  11.286 -0.4898 -1.5533  0.1696
  118OSM      P12387   2.529   6.069  11.026  0.0161  0.2052  0.3391
  118OSM    O1312388   2.668   6.113  11.071 -0.1517  0.7287  0.2880
  118OSM    O1412389   2.496   5.933  11.067  0.0678  0.3014 -0.0070
  118OSM    O1112390   2.518   6.081  10.870 -0.0439  0.2576  0.3221
  118OSM    O1212391   2.435   6.171  11.094  0.5345 -0.1370  0.1763
  118OSM    C1S12392   2.508   6.209  10.805 -0.2453  0.0644 -0.7756
  118OSM    H1S12393   2.569   6.277  10.868  0.4152 -2.5336  1.5993
  118OSM    H1T12394   2.402   6.240  10.809 -0.4581 -0.4239 -2.1455
  118OSM     NF12395   2.594   6.333  10.604  0.0398 -0.2717  0.1823
  118OSM    HNF12396   2.544   6.360  10.522  0.2411  2.6153  0.9026
  118OSM    C2S12397   2.573   6.205  10.663 -0.6366  1.1770  0.3888
  118OSM    H2S12398   2.673   6.158  10.671  0.0307  2.4197 -0.4438
  118OSM    C3S12399   2.484   6.108  10.578 -0.3183 -1.3717  0.0118
  118OSM    H3S12400   2.387   6.156  10.557 -0.3671 -0.3206  2.3044
  118OSM     O312401   2.464   5.979  10.639  0.0877  0.2799  0.0743
  118OSM    HO312402   2.509   5.982  10.724  0.6017  0.9525 -0.2177
  118OSM    C4S12403   2.555   6.081  10.449 -0.7576  0.1514 -0.0818
  118OSM    H4S12404   2.665   6.082  10.459 -0.8568 -0.0338  1.2362
  118OSM    C5S12405   2.505   6.094  10.332 -0.3556  0.1003 -0.0505
  118OSM    H5S12406   2.397   6.111  10.315 -1.0902 -3.3274  0.4000
  118OSM    C6S12407   2.581   6.074  10.205  0.2701  0.8395 -0.5651
  118OSM    H6S12408   2.538   5.985  10.155 -0.7036  0.4550  0.8849
  118OSM    H6T12409   2.690   6.058  10.219  0.3496  1.5651 -0.2750
  118OSM    C7S12410   2.570   6.199  10.114  0.7342  0.0040  0.1449
  118OSM    H7S12411   2.617   6.284  10.169 -2.4400  1.3961  0.9250
  118OSM    H7T12412   2.468   6.234  10.086  1.2248  0.3181 -1.3264
  118OSM    C8S12413   2.634   6.180   9.978  0.1283  0.3369 -0.2368
  118OSM    H8S12414   2.587   6.090   9.931  0.8852 -0.6957  0.9063
  118OSM    H8T12415   2.743   6.165   9.994  0.1961  0.4190 -0.6029
  118OSM    C9S12416   2.619   6.302   9.896  0.1585  0.6386 -0.1483
  118OSM    H9S12417   2.652   6.387   9.959 -0.6920 -0.0582  1.2904
  118OSM    H9T12418   2.517   6.313   9.852 -1.1990  0.9853  2.8479
  118OSM   C10S12419   2.719   6.318   9.778  0.3107 -0.8380 -0.2401
  118OSM   H10S12420   2.823   6.321   9.817 -0.8786  1.5248  3.2096
  118OSM   H10T12421   2.703   6.420   9.738  1.1704 -0.0453  1.3463
  118OSM   C11S12422   2.703   6.222   9.661 -0.0271  0.2115  0.3365
  118OSM   H11S12423   2.728   6.119   9.694  0.9470  0.3984  0.2011
  118OSM   H11T12424   2.785   6.249   9.592  2.6476 -0.4435  3.0344
  118OSM   C12S12425   2.564   6.227   9.595 -0.2335  0.1586 -0.3223
  118OSM   H12S12426   2.530   6.329   9.624  0.7980  0.5027 -0.2796
  118OSM   H12T12427   2.486   6.158   9.635  0.6725 -0.4245  0.4837
  118OSM   C13S12428   2.576   6.201   9.444 -0.4227 -0.6119  1.1152
  118OSM   H13S12429   2.658   6.268   9.411 -2.0241  1.4458  1.1009
  118OSM   H13T12430   2.481   6.246   9.409 -0.3162  0.6073  2.3028
  118OSM   C14S12431   2.585   6.062   9.385 -1.0211 -0.2061  0.0487
  118OSM   H14S12432   2.505   5.998   9.427 -1.4272  0.3810  0.1901
  118OSM   H14T12433   2.688   6.026   9.408 -0.4172 -0.5525 -2.7972
  118OSM   C15S12434   2.594   6.067   9.227  1.1002  0.5545 -0.1590
  118OSM   H15S12435   2.680   6.130   9.196  2.6663 -1.3596  0.1235
  118OSM   H15T12436   2.496   6.107   9.191  0.3001  0.0049  1.3204
  118OSM   C16S12437   2.638   5.925   9.176  0.1288 -0.9763 -0.3502
  118OSM   H16S12438   2.579   5.848   9.230  1.7869 -1.1018  1.3926
  118OSM   H16T12439   2.747   5.923   9.195  0.2083  0.0050 -0.6665
  118OSM   C17S12440   2.616   5.894   9.028  0.2577  0.5057  0.1833
  118OSM   H17S12441   2.665   5.975   8.970 -1.0064  1.4940  0.4544
  118OSM   H17T12442   2.508   5.876   9.009  0.3495 -1.0654  0.9936
  118OSM   C18S12443   2.684   5.761   8.988  0.1988 -0.1307 -0.1820
  118OSM   H18S12444   2.634   5.680   9.046  0.1860  0.5046  0.7175
  118OSM   H18T12445   2.790   5.772   9.018 -0.3908  1.1596  1.6400
  118OSM   H18U12446   2.660   5.734   8.883  2.6324  1.5621 -1.2557
  118OSM    C1F12447   2.681   6.422  10.653 -0.7269  0.7447  0.2243
  118OSM     OF12448   2.772   6.391  10.728 -0.0860  0.0408 -0.1583
  118OSM    C2F12449   2.662   6.567  10.627  0.1676  0.7177  0.0481
  118OSM    H2F12450   2.647   6.613  10.727 -1.3541 -0.3585  0.3552
  118OSM    H2G12451   2.566   6.581  10.572 -1.5420 -4.2029  1.2675
  118OSM    C3F12452   2.774   6.625  10.544 -0.8826  0.3648 -0.3269
  118OSM    H3F12453   2.868   6.573  10.572 -0.6478  0.0771 -1.5772
  118OSM    H3G12454   2.787   6.731  10.575  0.3123  0.5588 -1.4031
  118OSM    C4F12455   2.735   6.626  10.395 -0.4136  0.0964  0.5579
  118OSM    H4F12456   2.637   6.678  10.386 -0.5881 -0.2695  0.3369
  118OSM    H4G12457   2.722   6.522  10.357 -0.2455  0.2502  0.0646
  118OSM    C5F12458   2.842   6.700  10.314  0.7112 -0.3664  0.0812
  118OSM    H5F12459   2.939   6.650  10.334  0.8574 -1.1570 -2.2424
  118OSM    H5G12460   2.834   6.800  10.362 -2.4029 -0.4117 -0.1338
  118OSM    C6F12461   2.809   6.714  10.164 -0.0611  0.1362  0.0146
  118OSM    H6F12462   2.830   6.813  10.117 -1.3187 -0.7304 -2.6083
  118OSM    H6G12463   2.698   6.708  10.156 -0.2205  2.5051 -0.4633
  118OSM    C7F12464   2.858   6.603  10.071  1.2377  0.2329  0.2843
  118OSM    H7F12465   2.784   6.520  10.081  3.8706 -2.0101  3.6730
  118OSM    H7G12466   2.949   6.554  10.112  1.6654  1.0880  0.3755
  118OSM    C8F12467   2.870   6.637   9.921 -0.4497  0.1215  0.3080
  118OSM    H8F12468   2.768   6.644   9.878 -0.4887 -1.2274  0.1534
  118OSM    H8G12469   2.913   6.544   9.877 -1.8195 -0.1304 -0.5364
  118OSM    C9F12470   2.964   6.760   9.890  0.3503 -0.1329 -0.1487
  118OSM    H9F12471   2.988   6.829   9.972 -1.5022  1.5409 -0.9296
  118OSM   C10F12472   3.018   6.789   9.769  0.7024  0.2147  0.6159
  118OSM   H10F12473   3.085   6.875   9.757 -0.0001  0.4816 -2.0697
  118OSM   C11F12474   2.992   6.707   9.643 -0.0779  0.1078  0.5905
  118OSM   H11F12475   2.888   6.670   9.636  0.7756 -2.4435  0.2227
  118OSM   H11G12476   3.055   6.615   9.644  1.8533  1.2693 -1.8183
  118OSM   C12F12477   3.029   6.800   9.518 -0.1534  1.1217  0.0166
  118OSM   H12F12478   3.131   6.841   9.530  0.4707 -0.3869  0.0344
  118OSM   H12G12479   2.952   6.880   9.523 -2.8414 -1.1997 -1.2098
  118OSM   C13F12480   3.008   6.725   9.387  0.3508  0.0406 -0.3161
  118OSM   H13F12481   2.937   6.640   9.401  0.0540  0.2726 -0.4073
  118OSM   H13G12482   3.108   6.682   9.366  0.1992  0.1670 -1.3707
  118OSM   C14F12483   2.968   6.818   9.275 -0.2400  0.0184 -0.6892
  118OSM   H14F12484   3.017   6.918   9.271  0.9471 -0.4893  0.5169
  118OSM   H14G12485   2.862   6.851   9.274 -0.2122  0.1862  0.5344
  118OSM   C15F12486   2.975   6.752   9.140  0.5431 -0.1843 -0.3959
  118OSM   H15F12487   3.071   6.697   9.130 -0.4480 -1.9760 -0.4758
  118OSM   H15G12488   2.971   6.826   9.057 -0.2053 -0.9928 -1.1111
  118OSM   C16F12489   2.861   6.654   9.105  0.4084 -0.0933  0.0673
  118OSM   H16F12490   2.762   6.701   9.091  0.3974  0.1143  0.8079
  118OSM   H16G12491   2.854   6.582   9.190  0.4044  1.2437  1.2218
  118OSM   C17F12492   2.881   6.558   8.984 -0.1993  0.2929 -0.4177
  118OSM   H17F12493   2.796   6.488   8.968 -0.4337  1.0253 -2.6338
  118OSM   H17G12494   2.974   6.498   8.998 -0.6499 -0.4953 -0.7326
  118OSM   C18F12495   2.896   6.647   8.867 -0.5061  0.5959 -0.3963
  118OSM   H18F12496   2.949   6.744   8.876  2.9812 -1.1378 -0.7324
  118OSM   H18G12497   2.793   6.675   8.834 -1.4033 -0.0253  1.7096
  118OSM   H18H12498   2.953   6.592   8.789  0.9966  2.9801 -1.0626
  119OSM      N12499   3.346   3.280  11.408  0.5295 -0.2362 -0.7633
  119OSM    C1512500   3.203   3.239  11.397 -0.3392  0.2773  0.1753
  119OSM   H15A12501   3.137   3.315  11.437 -1.0584 -1.0546  1.6418
  119OSM   H15B12502   3.187   3.144  11.446  0.4332  0.4998  0.8798
  119OSM   H15C12503   3.184   3.224  11.292  0.5049 -2.9914  0.3839
  119OSM    C1412504   3.354   3.420  11.363 -0.7693 -0.0221  0.0557
  119OSM   H14A12505   3.287   3.488  11.414  0.4899  0.5735  0.9617
  119OSM   H14B12506   3.321   3.423  11.260  0.5926  0.8730 -0.3880
  119OSM   H14C12507   3.453   3.461  11.376  0.0550 -2.0629  0.5697
  119OSM    C1312508   3.377   3.268  11.556 -0.1635  0.1916  0.0890
  119OSM   H13A12509   3.479   3.279  11.589 -0.2495 -0.8794  0.7682
  119OSM   H13B12510   3.341   3.174  11.595  3.1153 -0.6975  1.2496
  119OSM   H13C12511   3.319   3.347  11.603 -2.0564 -0.5778 -0.8503
  119OSM    C1212512   3.431   3.189  11.333  0.0651  0.7871  0.9000
  119OSM   H12A12513   3.427   3.084  11.359  0.3720  0.5307 -0.0393
  119OSM   H12B12514   3.532   3.225  11.335  1.0225 -1.3179 -2.1357
  119OSM    C1112515   3.413   3.184  11.178  0.7914  0.7732 -0.0682
  119OSM   H11A12516   3.312   3.146  11.150 -0.2582  2.5483  1.0988
  119OSM   H11B12517   3.477   3.101  11.141 -0.7015 -1.2613  1.6033
  119OSM      P12518   3.574   3.362  11.084 -0.4364  0.0757 -0.1952
  119OSM    O1312519   3.593   3.485  11.170 -0.5048  0.1865 -0.2596
  119OSM    O1412520   3.677   3.256  11.095  0.0411 -0.4180 -0.2450
  119OSM    O1112521   3.568   3.403  10.934 -0.0535 -0.1450 -0.0823
  119OSM    O1212522   3.431   3.312  11.118 -0.0027  0.3219  0.0672
  119OSM    C1S12523   3.504   3.323  10.836 -0.8577 -0.2395  0.2238
  119OSM    H1S12524   3.450   3.235  10.875  1.0186 -2.5968 -2.1318
  119OSM    H1T12525   3.587   3.272  10.783  1.4171  5.1279 -2.1438
  119OSM     NF12526   3.332   3.321  10.669 -0.1827 -0.1567  0.5355
  119OSM    HNF12527   3.373   3.281  10.587  0.1773 -0.0309  0.6542
  119OSM    C2S12528   3.411   3.416  10.746 -0.1251  1.0658 -0.2524
  119OSM    H2S12529   3.352   3.471  10.822 -1.2546  0.2531 -0.5032
  119OSM    C3S12530   3.507   3.504  10.663  0.0835  0.3911 -0.1795
  119OSM    H3S12531   3.581   3.441  10.609  0.1984 -1.4087  1.9554
  119OSM     O312532   3.588   3.583  10.752  0.0461 -0.2493 -0.1075
  119OSM    HO312533   3.593   3.538  10.837 -1.6730  1.0228  0.7493
  119OSM    C4S12534   3.436   3.585  10.550 -0.0978 -0.0916  0.1091
  119OSM    H4S12535   3.397   3.519  10.472 -0.1006 -0.4815  0.4389
  119OSM    C5S12536   3.421   3.721  10.546 -0.1840  0.1670  0.2508
  119OSM    H5S12537   3.451   3.787  10.629 -1.5633  1.8270 -0.4981
  119OSM    C6S12538   3.349   3.792  10.434 -0.6194  0.1392  0.1411
  119OSM    H6S12539   3.406   3.781  10.339 -1.5544 -2.4114 -0.1838
  119OSM    H6T12540   3.345   3.901  10.458 -1.5772  0.1404  0.0120
  119OSM    C7S12541   3.212   3.731  10.401  0.5979 -0.5858 -0.1401
  119OSM    H7S12542   3.143   3.750  10.486  1.3476  1.4643  0.0763
  119OSM    H7T12543   3.218   3.622  10.384 -1.4537 -0.6192 -0.9775
  119OSM    C8S12544   3.149   3.788  10.269 -0.0302 -0.4370  0.4984
  119OSM    H8S12545   3.142   3.898  10.283  0.1790 -0.5521  1.6239
  119OSM    H8T12546   3.044   3.758  10.252 -0.8864  3.3485 -2.1142
  119OSM    C9S12547   3.225   3.752  10.138  0.3088  0.4169 -0.1513
  119OSM    H9S12548   3.219   3.641  10.129 -1.5610  0.0815  3.3531
  119OSM    H9T12549   3.329   3.782  10.160  0.7442 -0.2199 -1.2763
  119OSM   C10S12550   3.185   3.824  10.010 -0.1292  0.0270  0.7527
  119OSM   H10S12551   3.249   3.790   9.925 -1.4982 -2.2811  0.5756
  119OSM   H10T12552   3.209   3.932  10.022  0.6840  0.3579 -2.7306
  119OSM   C11S12553   3.043   3.798   9.959  0.4330 -0.4818 -0.0845
  119OSM   H11S12554   3.004   3.885   9.902  1.1654  0.1014  0.2838
  119OSM   H11T12555   2.966   3.782  10.037 -1.7067  0.4786 -1.8974
  119OSM   C12S12556   3.037   3.668   9.872  0.4851 -0.7531  0.0739
  119OSM   H12S12557   3.089   3.584   9.923  1.3449 -1.2393 -1.5512
  119OSM   H12T12558   3.084   3.691   9.775  1.3749 -2.5414  0.0376
  119OSM   C13S12559   2.885   3.640   9.859  0.0449  0.7941 -0.2935
  119OSM   H13S12560   2.831   3.720   9.804  0.1223  0.8777 -0.2498
  119OSM   H13T12561   2.851   3.640   9.965 -0.3005  0.9596 -0.4061
  119OSM   C14S12562   2.859   3.518   9.778  0.3319 -0.1855  0.1638
  119OSM   H14S12563   2.885   3.432   9.843  2.2772  1.2889  1.4558
  119OSM   H14T12564   2.904   3.526   9.677 -0.4529 -2.3847 -0.4301
  119OSM   C15S12565   2.712   3.490   9.753 -0.0097 -0.1847  0.7129
  119OSM   H15S12566   2.666   3.589   9.731  2.2657  1.1178  1.4744
  119OSM   H15T12567   2.660   3.463   9.847 -0.7949 -1.2121  0.0080
  119OSM   C16S12568   2.688   3.398   9.640  0.5122  0.3026  0.5813
  119OSM   H16S12569   2.729   3.298   9.666 -0.1612  0.5862  3.0011
  119OSM   H16T12570   2.746   3.423   9.549  0.7727 -1.1160  0.3280
  119OSM   C17S12571   2.536   3.403   9.592 -0.2633 -0.2113 -0.2120
  119OSM   H17S12572   2.491   3.505   9.584  1.7318  0.7927  0.5694
  119OSM   H17T12573   2.481   3.343   9.668 -1.2668 -0.3192 -0.9964
  119OSM   C18S12574   2.519   3.334   9.455 -0.1010 -0.3431  0.2458
  119OSM   H18S12575   2.545   3.401   9.370 -2.1316  0.1800 -0.0294
  119OSM   H18T12576   2.412   3.311   9.435  0.0088 -2.3204  1.6682
  119OSM   H18U12577   2.572   3.237   9.452 -0.5691 -0.5798 -1.8677
  119OSM    C1F12578   3.211   3.281  10.701 -0.0763  0.1095 -0.1917
  119OSM     OF12579   3.158   3.331  10.799 -0.0129  0.4486 -0.0526
  119OSM    C2F12580   3.134   3.188  10.611 -0.1866  0.7722 -1.0837
  119OSM    H2F12581   3.203   3.140  10.539  0.0613  0.2407 -0.5058
  119OSM    H2G12582   3.053   3.252  10.568  1.6409  2.6088 -1.9912
  119OSM    C3F12583   3.067   3.076  10.693 -0.5181 -0.0891  0.9010
  119OSM    H3F12584   2.970   3.050  10.645 -1.9708  0.4130  3.3660
  119OSM    H3G12585   3.037   3.117  10.792 -1.8297  1.4732 -0.0934
  119OSM    C4F12586   3.156   2.950  10.715 -0.2384 -0.9109 -0.2025
  119OSM    H4F12587   3.097   2.874  10.771  1.9897 -0.8838  2.4170
  119OSM    H4G12588   3.238   2.982  10.783 -0.1282  1.7639 -1.4626
  119OSM    C5F12589   3.216   2.876  10.596  0.5720 -0.3373 -0.3508
  119OSM    H5F12590   3.261   2.783  10.636 -1.3866 -0.5862  1.3979
  119OSM    H5G12591   3.290   2.938  10.541  0.1805 -1.2097 -1.9319
  119OSM    C6F12592   3.113   2.828  10.496  0.4346  0.2190  0.3098
  119OSM    H6F12593   3.016   2.873  10.527  0.6816  1.1340 -0.2169
  119OSM    H6G12594   3.097   2.718  10.501  1.8250  0.0068  0.3659
  119OSM    C7F12595   3.143   2.881  10.361  0.3816 -0.2315  0.3350
  119OSM    H7F12596   3.253   2.878  10.341  0.2731  1.1898 -0.5672
  119OSM    H7G12597   3.102   2.983  10.354  2.4776  0.6237 -0.4617
  119OSM    C8F12598   3.068   2.801  10.255 -0.3819 -0.1458 -0.0299
  119OSM    H8F12599   2.961   2.804  10.286 -0.1187 -0.7083  0.9977
  119OSM    H8G12600   3.089   2.693  10.273  2.7054  0.0809 -1.5664
  119OSM    C9F12601   3.084   2.859  10.117 -0.8017 -0.2422  0.5747
  119OSM    H9F12602   3.003   2.929  10.091  0.0485 -0.0836 -1.9126
  119OSM   C10F12603   3.171   2.809  10.024  0.1614 -0.4296 -1.2642
  119OSM   H10F12604   3.176   2.869   9.931  0.6804  2.0350  0.2700
  119OSM   C11F12605   3.266   2.694  10.037 -0.2418  0.7341 -0.8004
  119OSM   H11F12606   3.263   2.670  10.145 -0.5024  4.0504  0.0261
  119OSM   H11G12607   3.367   2.734  10.013  0.4605  0.8123  2.0057
  119OSM   C12F12608   3.229   2.585   9.939  0.0606 -0.8438 -0.3056
  119OSM   H12F12609   3.119   2.570   9.943  0.1909 -1.5651  1.9902
  119OSM   H12G12610   3.282   2.498   9.984  1.6976  1.1817  1.9250
  119OSM   C13F12611   3.282   2.604   9.799  0.4611 -0.4132  0.1388
  119OSM   H13F12612   3.385   2.645   9.797  0.8045 -1.2421  0.7510
  119OSM   H13G12613   3.209   2.677   9.755  1.0867  0.6374  0.7990
  119OSM   C14F12614   3.282   2.470   9.722  0.3554  0.4100 -0.1896
  119OSM   H14F12615   3.177   2.435   9.727  0.1850  1.1053  1.6090
  119OSM   H14G12616   3.343   2.398   9.780 -1.4966 -3.5021 -2.7030
  119OSM   C15F12617   3.339   2.481   9.575 -0.0040 -0.1601 -0.4273
  119OSM   H15F12618   3.351   2.377   9.538 -0.9359 -0.0527 -1.0567
  119OSM   H15G12619   3.441   2.525   9.580  0.2129 -0.6232 -0.7050
  119OSM   C16F12620   3.245   2.550   9.479  0.2939 -0.2759 -0.4105
  119OSM   H16F12621   3.207   2.638   9.535  2.4228 -1.0855  2.5577
  119OSM   H16G12622   3.156   2.488   9.454 -0.1162  0.7078 -1.4706
  119OSM   C17F12623   3.314   2.590   9.343 -0.0965  0.3446  0.9194
  119OSM   H17F12624   3.383   2.675   9.361 -0.1079  0.9026 -1.4610
  119OSM   H17G12625   3.232   2.640   9.288  1.1248  3.5528  1.8110
  119OSM   C18F12626   3.378   2.474   9.264  0.1956 -0.2740  0.1961
  119OSM   H18F12627   3.295   2.402   9.242  0.2487 -0.1762 -0.3270
  119OSM   H18G12628   3.452   2.420   9.327  1.8688 -0.5800 -1.9337
  119OSM   H18H12629   3.427   2.505   9.170  0.9590  1.7678  1.2048
  120OSM      N12630   2.559   1.408  10.583  0.4449  1.1565 -0.2800
  120OSM    C1512631   2.526   1.265  10.534 -0.3125 -0.0651  0.1396
  120OSM   H15A12632   2.457   1.262  10.451 -2.1309  3.7310  1.2893
  120OSM   H15B12633   2.510   1.187  10.608 -2.3749 -0.7313 -0.9248
  120OSM   H15C12634   2.618   1.220  10.498 -1.5453 -1.3306 -1.5812
  120OSM    C1412635   2.577   1.500  10.461  0.0253  0.1257 -0.5537
  120OSM   H14A12636   2.596   1.603  10.488 -1.9415  0.2526  0.5258
  120OSM   H14B12637   2.495   1.503  10.392  0.6040  1.8658 -1.2264
  120OSM   H14C12638   2.670   1.466  10.416  0.1130 -0.7843  0.2791
  120OSM    C1312639   2.444   1.456  10.665 -0.4541 -0.1517  0.1673
  120OSM   H13A12640   2.364   1.489  10.599 -0.2332  0.2558  0.1032
  120OSM   H13B12641   2.469   1.548  10.716  1.3527 -0.2422 -0.4928
  120OSM   H13C12642   2.410   1.371  10.722  0.5930 -1.2167 -0.7360
  120OSM    C1212643   2.683   1.416  10.671 -0.2995 -0.0803 -0.2476
  120OSM   H12A12644   2.680   1.354  10.759  1.0255 -1.0081 -0.8308
  120OSM   H12B12645   2.692   1.519  10.701  0.4010 -0.5519  1.2431
  120OSM    C1112646   2.819   1.375  10.612 -0.7140  0.2578 -0.6131
  120OSM   H11A12647   2.898   1.397  10.688 -1.7412  0.6268  0.3795
  120OSM   H11B12648   2.832   1.433  10.519  0.7078 -0.5381 -0.9402
  120OSM      P12649   2.957   1.160  10.548  0.6028 -0.1413  0.5621
  120OSM    O1312650   3.050   1.182  10.658 -0.5449  0.6231 -0.2543
  120OSM    O1412651   2.912   1.025  10.510 -0.2411  0.8650 -0.2751
  120OSM    O1112652   3.006   1.237  10.420 -0.2970 -0.9671  0.0890
  120OSM    O1212653   2.818   1.233  10.585  0.3046  0.0746  0.2119
  120OSM    C1S12654   3.095   1.343  10.419 -0.5114  0.2377  0.1491
  120OSM    H1S12655   3.194   1.305  10.453 -0.8381 -1.6041 -0.7942
  120OSM    H1T12656   3.067   1.419  10.494 -0.1371 -0.2695  0.8174
  120OSM     NF12657   3.233   1.495  10.279  0.1598  0.1238 -0.3518
  120OSM    HNF12658   3.232   1.592  10.306 -0.8991 -0.4086  1.7723
  120OSM    C2S12659   3.122   1.401  10.277 -0.7533 -0.3179 -0.0357
  120OSM    H2S12660   3.142   1.322  10.201  1.1494 -0.7766  0.8963
  120OSM    C3S12661   2.982   1.462  10.238 -0.6144  0.1569  0.2040
  120OSM    H3S12662   2.955   1.553  10.296 -0.6781  1.7065 -2.1151
  120OSM     O312663   2.873   1.384  10.259  0.2881  0.3298  0.6251
  120OSM    HO312664   2.915   1.310  10.303  1.5538  0.2360 -0.6884
  120OSM    C4S12665   2.980   1.509  10.096 -0.5542 -0.1609  0.3629
  120OSM    H4S12666   3.033   1.444  10.025 -1.3992 -1.5643  0.9707
  120OSM    C5S12667   2.913   1.619  10.062  0.3851 -1.1917 -0.2011
  120OSM    H5S12668   2.878   1.686  10.142  0.1205  0.5778 -1.7187
  120OSM    C6S12669   2.904   1.690   9.929 -0.6355  0.9279  0.3350
  120OSM    H6S12670   2.936   1.796   9.927  0.7503  0.5293 -1.2708
  120OSM    H6T12671   2.799   1.717   9.902 -0.2074  1.9925 -0.3300
  120OSM    C7S12672   2.982   1.625   9.815 -0.6215 -0.4777  0.3495
  120OSM    H7S12673   2.956   1.518   9.800 -0.6496 -0.4259  0.0271
  120OSM    H7T12674   3.089   1.638   9.842 -1.2649 -0.8121  3.4463
  120OSM    C8S12675   2.961   1.693   9.676  0.3415 -0.1466  0.0599
  120OSM    H8S12676   2.975   1.802   9.694  0.8597  0.5035 -3.5742
  120OSM    H8T12677   2.858   1.665   9.645  0.4339  0.6603 -1.0428
  120OSM    C9S12678   3.050   1.642   9.557 -0.6941 -0.6060 -0.3011
  120OSM    H9S12679   3.056   1.531   9.567  0.7018 -0.7182 -1.9780
  120OSM    H9T12680   3.152   1.685   9.569 -0.3718 -1.6434  0.9270
  120OSM   C10S12681   2.997   1.701   9.421 -0.0022 -0.8549 -0.8174
  120OSM   H10S12682   2.991   1.811   9.436 -0.7512 -0.9146 -0.6584
  120OSM   H10T12683   2.894   1.664   9.404 -0.6284 -0.2172  1.2634
  120OSM   C11S12684   3.093   1.658   9.306  0.2835  0.0210 -0.2850
  120OSM   H11S12685   3.114   1.549   9.307 -2.7182 -0.6827 -1.4062
  120OSM   H11T12686   3.191   1.710   9.307 -0.6781  2.0158 -2.0745
  120OSM   C12S12687   3.036   1.696   9.168 -0.0971 -0.1179 -0.3045
  120OSM   H12S12688   3.099   1.642   9.093 -0.2620 -2.5629  1.2406
  120OSM   H12T12689   3.044   1.807   9.163 -0.8888  0.0199  1.1729
  120OSM   C13S12690   2.893   1.646   9.134  0.5027 -0.2376  0.4123
  120OSM   H13S12691   2.821   1.684   9.209 -0.3307 -0.3277 -0.3327
  120OSM   H13T12692   2.894   1.538   9.160 -0.5909 -0.5049 -0.5790
  120OSM   C14S12693   2.836   1.677   8.989 -0.6360 -0.0975  0.5621
  120OSM   H14S12694   2.838   1.788   8.985  0.6180 -0.1215 -0.1629
  120OSM   H14T12695   2.737   1.627   8.984 -0.4831 -0.3896  0.3907
  120OSM   C15S12696   2.942   1.631   8.886 -0.1592 -0.4820  1.1069
  120OSM   H15S12697   2.959   1.522   8.899  2.6497  0.0087  2.1442
  120OSM   H15T12698   3.040   1.682   8.898  0.7098 -1.7959 -0.1266
  120OSM   C16S12699   2.897   1.664   8.745  0.3922 -0.1143 -0.4185
  120OSM   H16S12700   2.869   1.771   8.734  3.3022  0.5904 -1.9021
  120OSM   H16T12701   2.810   1.599   8.722 -0.8026  1.0278  0.7002
  120OSM   C17S12702   3.008   1.640   8.648  0.9061  0.9021  0.0732
  120OSM   H17S12703   3.015   1.530   8.637 -1.7064  0.8424 -2.2256
  120OSM   H17T12704   3.106   1.681   8.681  1.6514 -2.1266  1.9808
  120OSM   C18S12705   2.984   1.694   8.508  0.5342  0.9924  0.1928
  120OSM   H18S12706   2.878   1.671   8.483  0.1203  1.1546  1.7053
  120OSM   H18T12707   3.052   1.641   8.438 -0.9599  0.5557 -0.9958
  120OSM   H18U12708   2.988   1.805   8.505 -1.0501  1.0761 -0.0040
  120OSM    C1F12709   3.359   1.450  10.254  0.0139  0.0888  0.7405
  120OSM     OF12710   3.395   1.336  10.271  0.1906  0.1749  0.0455
  120OSM    C2F12711   3.448   1.559  10.215  0.5041 -0.8316  0.2153
  120OSM    H2F12712   3.552   1.521  10.203 -0.1880 -2.6265 -0.4626
  120OSM    H2G12713   3.443   1.642  10.288 -0.7116 -0.3197 -0.4260
  120OSM    C3F12714   3.414   1.624  10.077  1.1106  0.5958  0.1514
  120OSM    H3F12715   3.461   1.724  10.065  1.0610  0.6498  0.4067
  120OSM    H3G12716   3.305   1.638  10.061  1.1248 -0.3621 -0.8890
  120OSM    C4F12717   3.474   1.533   9.959  0.2570  0.5258 -0.2480
  120OSM    H4F12718   3.449   1.429   9.991  2.2229 -0.3413 -1.3688
  120OSM    H4G12719   3.584   1.541   9.963  0.2195  1.7462 -1.2544
  120OSM    C5F12720   3.414   1.560   9.822  0.4542 -0.1381 -0.4173
  120OSM    H5F12721   3.461   1.649   9.775 -0.9979 -1.3577 -4.6585
  120OSM    H5G12722   3.305   1.576   9.829  0.5922  0.0955  2.2326
  120OSM    C6F12723   3.436   1.443   9.728 -0.5217  0.6541 -0.1238
  120OSM    H6F12724   3.369   1.365   9.771  0.3519 -0.3845 -0.5851
  120OSM    H6G12725   3.543   1.414   9.739 -0.3148  1.0381 -0.9795
  120OSM    C7F12726   3.412   1.473   9.580 -0.1041 -0.4388  0.2369
  120OSM    H7F12727   3.482   1.548   9.536  0.5406 -1.5851 -0.7482
  120OSM    H7G12728   3.311   1.516   9.562  0.8296  1.3219 -1.2342
  120OSM    C8F12729   3.444   1.352   9.485  0.2840  0.0272  0.0044
  120OSM    H8F12730   3.356   1.332   9.420 -1.5962  0.0286  2.4229
  120OSM    H8G12731   3.452   1.263   9.551  1.4380 -0.5497 -0.8907
  120OSM    C9F12732   3.560   1.350   9.391  0.1693 -0.1223 -0.6564
  120OSM    H9F12733   3.640   1.282   9.422 -0.4803  0.3151  2.2527
  120OSM   C10F12734   3.577   1.426   9.284 -0.7120  0.3730 -0.3292
  120OSM   H10F12735   3.668   1.417   9.224 -0.5587  1.4823 -0.2751
  120OSM   C11F12736   3.487   1.526   9.226 -0.0250 -0.7329  0.1987
  120OSM   H11F12737   3.526   1.629   9.211 -2.9039  0.3381 -0.4637
  120OSM   H11G12738   3.390   1.525   9.279 -0.7452  1.9885 -0.9218
  120OSM   C12F12739   3.454   1.476   9.075 -0.0269  0.6076 -0.3323
  120OSM   H12F12740   3.371   1.403   9.081 -0.6259  1.3516  1.0110
  120OSM   H12G12741   3.541   1.424   9.031  0.7551  0.6259  1.1414
  120OSM   C13F12742   3.407   1.591   8.984 -0.2835  0.2171 -0.5997
  120OSM   H13F12743   3.494   1.633   8.930 -0.7068  2.6754  0.4878
  120OSM   H13G12744   3.356   1.662   9.052 -0.7187 -1.3727  0.7999
  120OSM   C14F12745   3.297   1.550   8.881  0.4211  0.5894 -0.9594
  120OSM   H14F12746   3.260   1.637   8.822  2.1392  2.7708  0.9989
  120OSM   H14G12747   3.208   1.508   8.931 -0.7957 -0.4937 -3.8319
  120OSM   C15F12748   3.363   1.442   8.781  0.1323 -0.2837 -0.3376
  120OSM   H15F12749   3.385   1.343   8.825 -0.1300 -0.1014  0.2229
  120OSM   H15G12750   3.456   1.494   8.749 -1.2258  0.8423 -2.7670
  120OSM   C16F12751   3.277   1.416   8.662 -0.1956  0.0093  0.8295
  120OSM   H16F12752   3.238   1.509   8.616 -3.2500 -2.1805 -1.4502
  120OSM   H16G12753   3.188   1.361   8.699 -0.8329  0.3504 -0.1616
  120OSM   C17F12754   3.339   1.329   8.551 -0.0623  0.3275  0.1974
  120OSM   H17F12755   3.364   1.231   8.596 -1.3300  0.0022  0.2509
  120OSM   H17G12756   3.440   1.370   8.529  1.4206 -1.8320  2.4677
  120OSM   C18F12757   3.253   1.322   8.424  0.1782 -1.0337 -1.1353
  120OSM   H18F12758   3.234   1.421   8.377  1.6791 -0.9078 -1.5071
  120OSM   H18G12759   3.155   1.270   8.438 -0.3750  0.3866  0.7109
  120OSM   H18H12760   3.308   1.266   8.346  1.3149  0.7409 -1.6442
  121OSM      N12761   2.181   5.063  11.337  0.0965  0.1653  0.2290
  121OSM    C1512762   2.262   5.069  11.215 -0.2597 -0.4416 -0.5479
  121OSM   H15A12763   2.228   4.989  11.150 -0.1208 -0.7360 -0.2608
  121OSM   H15B12764   2.365   5.053  11.244  0.7017  4.3318 -0.4530
  121OSM   H15C12765   2.259   5.158  11.153 -0.4252  1.6218  2.2270
  121OSM    C1412766   2.202   4.927  11.401  0.6217  0.5146  0.2545
  121OSM   H14A12767   2.309   4.913  11.400  0.7429  1.3054  1.0751
  121OSM   H14B12768   2.145   4.850  11.352  0.6581  0.2456  0.6361
  121OSM   H14C12769   2.171   4.932  11.504  0.2993  1.2463  0.1314
  121OSM    C1312770   2.223   5.170  11.435  0.7095  0.3201  0.3146
  121OSM   H13A12771   2.191   5.149  11.536  1.4702 -1.4377  0.2291
  121OSM   H13B12772   2.168   5.257  11.405 -0.4430  0.2966  2.2377
  121OSM   H13C12773   2.330   5.185  11.432  0.9887 -1.2726  1.2436
  121OSM    C1212774   2.031   5.091  11.314 -0.2302 -0.2940 -0.0680
  121OSM   H12A12775   2.024   5.196  11.288 -1.0671  0.1717  1.8201
  121OSM   H12B12776   1.977   5.089  11.408 -0.1496  0.4997  0.0012
  121OSM    C1112777   1.960   5.013  11.205 -0.6018 -0.4194  0.1012
  121OSM   H11A12778   2.034   5.012  11.122 -0.8089  2.2697 -0.2064
  121OSM   H11B12779   1.868   5.071  11.183  2.3474  3.9929 -1.9763
  121OSM      P12780   1.870   4.779  11.148 -0.1902 -0.4414 -0.0514
  121OSM    O1312781   1.922   4.641  11.181  0.2821 -0.5236  0.4248
  121OSM    O1412782   1.718   4.793  11.156 -0.5155 -0.0858 -0.5899
  121OSM    O1112783   1.919   4.842  11.007  0.1312 -0.0146 -0.0124
  121OSM    O1212784   1.938   4.876  11.251  0.3380 -0.3261 -0.0160
  121OSM    C1S12785   1.906   4.777  10.880 -0.5316  0.0946 -0.3247
  121OSM    H1S12786   1.819   4.814  10.821 -0.6033 -0.3066 -0.4747
  121OSM    H1T12787   1.882   4.669  10.888 -0.4086  0.0817 -0.1336
  121OSM     NF12788   2.019   4.673  10.688 -0.2214  0.1271  0.8308
  121OSM    HNF12789   2.062   4.583  10.695  1.8092  0.8510 -1.3731
  121OSM    C2S12790   2.036   4.772  10.798  0.2139  0.4848  0.6390
  121OSM    H2S12791   2.052   4.875  10.760 -2.7727  1.2816  1.3463
  121OSM    C3S12792   2.152   4.742  10.894 -0.3819  0.5787  0.8416
  121OSM    H3S12793   2.129   4.659  10.964  0.5462  0.6340  1.2263
  121OSM     O312794   2.196   4.845  10.985  0.5823 -0.0224  0.1322
  121OSM    HO312795   2.146   4.924  10.965 -0.4633 -0.7967 -0.3690
  121OSM    C4S12796   2.271   4.685  10.814  0.1715  0.0703  0.0201
  121OSM    H4S12797   2.297   4.589  10.860  2.1452 -0.4573 -2.0307
  121OSM    C5S12798   2.347   4.741  10.720 -0.0152  0.0562 -0.2558
  121OSM    H5S12799   2.333   4.847  10.694  0.5062  0.2577  0.2629
  121OSM    C6S12800   2.465   4.667  10.654  0.7353  0.0500 -0.5218
  121OSM    H6S12801   2.474   4.567  10.701 -0.5159  0.7117  1.2413
  121OSM    H6T12802   2.562   4.719  10.670  0.7905 -0.1460 -0.2216
  121OSM    C7S12803   2.461   4.647  10.497 -0.2489 -0.4608 -0.7147
  121OSM    H7S12804   2.451   4.745  10.444 -2.7559  1.1352  2.3528
  121OSM    H7T12805   2.365   4.603  10.462 -0.1653  0.4345 -2.1536
  121OSM    C8S12806   2.587   4.566  10.461 -0.1766 -0.1579  0.4913
  121OSM    H8S12807   2.565   4.458  10.468 -1.5244 -0.1727 -2.4729
  121OSM    H8T12808   2.667   4.584  10.536 -0.5865 -0.0699  0.9126
  121OSM    C9S12809   2.653   4.599  10.318  0.0579  0.2498 -0.1150
  121OSM    H9S12810   2.752   4.549  10.314  0.9137  1.4238  3.1016
  121OSM    H9T12811   2.668   4.708  10.302 -1.3383  0.4421 -0.2510
  121OSM   C10S12812   2.563   4.550  10.208 -0.1113 -0.2693 -0.0983
  121OSM   H10S12813   2.463   4.598  10.203  0.0340  0.0319 -0.1622
  121OSM   H10T12814   2.529   4.446  10.226  0.0999 -0.2279  0.5744
  121OSM   C11S12815   2.624   4.542  10.070 -0.2597 -0.0546  0.0219
  121OSM   H11S12816   2.678   4.446  10.059  1.1424  0.9428 -2.4789
  121OSM   H11T12817   2.700   4.619  10.044  2.4360 -2.1526  1.1994
  121OSM   C12S12818   2.517   4.536   9.972  0.2633  0.3412 -0.0587
  121OSM   H12S12819   2.453   4.626   9.969 -2.6442 -1.6129 -2.5204
  121OSM   H12T12820   2.465   4.438   9.980  1.8286 -0.8301 -2.7166
  121OSM   C13S12821   2.584   4.529   9.824  0.0664 -0.5743  0.4898
  121OSM   H13S12822   2.658   4.447   9.813  1.8578  0.4785  3.5910
  121OSM   H13T12823   2.636   4.624   9.800 -0.4370 -0.4925 -0.2959
  121OSM   C14S12824   2.480   4.508   9.713 -0.2636  0.1689 -0.6329
  121OSM   H14S12825   2.424   4.604   9.711  0.8592  0.8396 -0.5759
  121OSM   H14T12826   2.409   4.426   9.738 -0.2208  0.0595 -0.8705
  121OSM   C15S12827   2.532   4.488   9.570  0.9306  0.4835 -0.1751
  121OSM   H15S12828   2.601   4.400   9.574  1.0481  0.6079  0.6188
  121OSM   H15T12829   2.592   4.577   9.543  0.7474  0.1572 -1.7270
  121OSM   C16S12830   2.417   4.466   9.464 -0.9352 -0.0468  0.0100
  121OSM   H16S12831   2.370   4.566   9.454  2.1167  1.7767  2.2285
  121OSM   H16T12832   2.357   4.376   9.488  0.7865 -1.4125 -0.5544
  121OSM   C17S12833   2.467   4.438   9.311 -0.2861  0.1331 -0.0162
  121OSM   H17S12834   2.548   4.512   9.297 -0.9444  0.8255 -0.1983
  121OSM   H17T12835   2.382   4.443   9.241 -0.4485 -0.6089  0.1116
  121OSM   C18S12836   2.526   4.294   9.287 -0.4089 -0.3883 -0.2559
  121OSM   H18S12837   2.444   4.220   9.297 -1.5954  1.1748  5.4241
  121OSM   H18T12838   2.604   4.272   9.362  1.7698  0.4150 -2.1930
  121OSM   H18U12839   2.581   4.297   9.191 -1.1805 -2.3038 -0.8094
  121OSM    C1F12840   1.930   4.681  10.584 -0.2552  0.3793 -0.9464
  121OSM     OF12841   1.871   4.785  10.564  0.2500 -0.2711  0.5860
  121OSM    C2F12842   1.914   4.563  10.491  0.3758  0.3984 -0.0953
  121OSM    H2F12843   1.917   4.465  10.545  0.2141 -0.3733 -1.4367
  121OSM    H2G12844   2.009   4.560  10.433 -0.1925  2.4621 -1.2029
  121OSM    C3F12845   1.798   4.564  10.386 -0.3673  0.7419 -0.3396
  121OSM    H3F12846   1.715   4.617  10.439  2.3053  3.0681  1.8393
  121OSM    H3G12847   1.765   4.462  10.360 -1.7197  0.1511  3.1107
  121OSM    C4F12848   1.822   4.655  10.267  0.4311 -0.6813  0.1458
  121OSM    H4F12849   1.874   4.745  10.306  2.9615 -1.1251 -1.9315
  121OSM    H4G12850   1.731   4.693  10.217 -0.6243 -2.4160  0.6491
  121OSM    C5F12851   1.925   4.601  10.170  0.3421  0.6199 -0.0249
  121OSM    H5F12852   1.871   4.531  10.104 -0.0292  1.2162 -0.3686
  121OSM    H5G12853   2.003   4.547  10.228  1.2735 -0.4004 -2.1135
  121OSM    C6F12854   1.999   4.702  10.079  0.4839 -0.5301 -0.7226
  121OSM    H6F12855   2.063   4.776  10.132  0.8682 -1.9185  0.8529
  121OSM    H6G12856   1.928   4.763  10.020  0.3695 -0.2498 -0.2972
  121OSM    C7F12857   2.091   4.640   9.972 -0.6527  0.2539  0.0666
  121OSM    H7F12858   2.161   4.580  10.033 -0.0068  1.5740  0.6740
  121OSM    H7G12859   2.136   4.733   9.931 -2.4182  1.2873  0.3592
  121OSM    C8F12860   2.035   4.554   9.854  0.0472 -0.5844 -0.6602
  121OSM    H8F12861   1.991   4.463   9.902 -3.3117  0.3943 -1.6250
  121OSM    H8G12862   2.120   4.516   9.794 -0.5848 -2.3825 -0.4774
  121OSM    C9F12863   1.927   4.622   9.772 -0.2350  0.0416 -0.3408
  121OSM    H9F12864   1.854   4.676   9.834  0.2055  2.4481 -1.8192
  121OSM   C10F12865   1.920   4.617   9.636  0.2303  0.7919  0.2618
  121OSM   H10F12866   1.841   4.675   9.587  0.0753  1.0277  0.7772
  121OSM   C11F12867   2.019   4.556   9.544 -0.1743 -0.2325  0.0543
  121OSM   H11F12868   2.050   4.453   9.571 -1.4401 -1.1292 -1.7726
  121OSM   H11G12869   2.115   4.613   9.537  0.2969 -1.0679 -0.4253
  121OSM   C12F12870   1.979   4.564   9.392 -0.4943  0.2433 -0.2017
  121OSM   H12F12871   1.872   4.537   9.384 -0.4100 -0.1972  0.1302
  121OSM   H12G12872   2.043   4.488   9.342  0.5272  0.5952  0.5560
  121OSM   C13F12873   1.993   4.704   9.322 -1.1902  0.5425 -0.1834
  121OSM   H13F12874   2.099   4.714   9.291 -1.6269  2.1740 -1.3286
  121OSM   H13G12875   1.979   4.786   9.396 -0.3594 -0.3057  0.9469
  121OSM   C14F12876   1.900   4.717   9.201  0.8750 -0.4553  0.0591
  121OSM   H14F12877   1.795   4.715   9.238  0.4930  2.2516 -0.6525
  121OSM   H14G12878   1.899   4.626   9.138 -0.0200 -1.2962  1.2406
  121OSM   C15F12879   1.926   4.851   9.127  0.1092  0.8608  0.5652
  121OSM   H15F12880   2.017   4.833   9.066 -0.7371 -2.4905  0.1045
  121OSM   H15G12881   1.937   4.935   9.199 -1.1473  0.9347  0.6966
  121OSM   C16F12882   1.809   4.894   9.033  0.5518 -0.1993 -0.1080
  121OSM   H16F12883   1.818   5.000   9.000  3.1086 -0.5573 -0.7998
  121OSM   H16G12884   1.717   4.890   9.095 -1.9959  0.5080 -3.6114
  121OSM   C17F12885   1.803   4.805   8.912 -0.5412  0.1384  0.1137
  121OSM   H17F12886   1.770   4.702   8.935 -1.4976 -0.3182 -2.9463
  121OSM   H17G12887   1.905   4.799   8.868 -0.8765 -0.6095 -0.5756
  121OSM   C18F12888   1.705   4.856   8.800  0.0049  0.0805 -0.1094
  121OSM   H18F12889   1.610   4.886   8.848 -0.4638  0.4695 -1.2436
  121OSM   H18G12890   1.683   4.789   8.714  0.4208 -0.0170 -0.1405
  121OSM   H18H12891   1.748   4.953   8.769  2.0239 -0.9660 -0.7623
  122OSM      N12892   1.565   4.200  11.207  0.2715  0.1748  0.3064
  122OSM    C1512893   1.534   4.334  11.145  0.0299 -0.1712 -1.0887
  122OSM   H15A12894   1.468   4.318  11.060 -0.8012  0.2466 -0.5347
  122OSM   H15B12895   1.626   4.372  11.103  0.3446 -0.9208 -1.1097
  122OSM   H15C12896   1.496   4.395  11.225  0.5492 -1.0845 -0.1163
  122OSM    C1412897   1.671   4.233  11.308  0.4461  0.3731 -0.8710
  122OSM   H14A12898   1.697   4.155  11.378 -1.2426  1.2012  0.7325
  122OSM   H14B12899   1.623   4.307  11.370 -0.1710 -2.0969  1.7972
  122OSM   H14C12900   1.767   4.260  11.266  0.1290  2.9391 -0.0875
  122OSM    C1312901   1.455   4.138  11.280  0.1954 -0.8876  0.5553
  122OSM   H13A12902   1.382   4.093  11.215 -0.2220 -0.0371  0.4153
  122OSM   H13B12903   1.397   4.208  11.340  1.3803 -1.0017  1.8892
  122OSM   H13C12904   1.496   4.062  11.344 -0.0601 -0.6447  1.0184
  122OSM    C1212905   1.630   4.111  11.105 -0.5894  0.1113 -0.2984
  122OSM   H12A12906   1.665   4.021  11.153 -1.3049  0.1616  0.3321
  122OSM   H12B12907   1.718   4.165  11.071  0.1316  0.0812  1.4209
  122OSM    C1112908   1.560   4.061  10.987  0.4418  0.4539  0.8903
  122OSM   H11A12909   1.633   3.999  10.930  0.2724 -0.4991  1.6896
  122OSM   H11B12910   1.541   4.145  10.917  0.9515 -0.3285 -0.2309
  122OSM      P12911   1.303   3.982  10.960 -0.3983  0.4815 -0.3575
  122OSM    O1312912   1.280   3.844  10.911  0.0613 -1.0544  0.4737
  122OSM    O1412913   1.211   4.041  11.058  0.2187 -0.0628  0.2457
  122OSM    O1112914   1.302   4.070  10.833 -0.2454 -0.1345  0.3207
  122OSM    O1212915   1.451   3.981  11.022  0.0389  0.3519  0.5128
  122OSM    C1S12916   1.375   4.048  10.709  0.0418  0.2517 -0.2092
  122OSM    H1S12917   1.348   3.952  10.660 -1.7819  1.0067 -0.7634
  122OSM    H1T12918   1.485   4.053  10.727  0.0598 -1.8136  0.5504
  122OSM     NF12919   1.386   4.138  10.477  0.3406  0.6922 -0.1559
  122OSM    HNF12920   1.470   4.183  10.447  0.4137  0.2035 -0.6909
  122OSM    C2S12921   1.345   4.170  10.616  0.1505  0.1543  0.1678
  122OSM    H2S12922   1.234   4.172  10.621  0.0806  2.9782 -0.7152
  122OSM    C3S12923   1.401   4.304  10.663  0.6723 -0.2257 -0.0011
  122OSM    H3S12924   1.511   4.287  10.662  0.9077  1.2553 -1.0992
  122OSM     O312925   1.365   4.348  10.794  0.5891  0.7828  0.0832
  122OSM    HO312926   1.318   4.273  10.831  0.0152  0.1471 -1.7821
  122OSM    C4S12927   1.361   4.411  10.571  0.7989  0.1016 -0.6112
  122OSM    H4S12928   1.254   4.436  10.567  0.4942 -1.2129 -2.9794
  122OSM    C5S12929   1.442   4.485  10.494 -0.0484  0.1806 -0.2648
  122OSM    H5S12930   1.550   4.468  10.490  0.0990  1.2618 -2.3130
  122OSM    C6S12931   1.406   4.589  10.393 -0.2584  0.3458 -0.0758
  122OSM    H6S12932   1.474   4.676  10.396 -2.6468  2.2782  1.5864
  122OSM    H6T12933   1.304   4.630  10.408 -1.0800 -1.4642 -0.3779
  122OSM    C7S12934   1.403   4.519  10.261 -0.2695 -0.5974 -0.2479
  122OSM    H7S12935   1.318   4.448  10.258 -1.3652  0.6024  0.8530
  122OSM    H7T12936   1.495   4.460  10.244 -0.6959 -0.7571 -2.1402
  122OSM    C8S12937   1.398   4.625  10.140 -0.2621  0.5274 -0.3276
  122OSM    H8S12938   1.475   4.703  10.158  1.7261 -1.6280  1.2330
  122OSM    H8T12939   1.295   4.665  10.146 -0.4709  0.1953 -1.4703
  122OSM    C9S12940   1.431   4.560  10.004 -0.3017  0.1759 -0.3100
  122OSM    H9S12941   1.369   4.471   9.981 -1.0390  0.3354  0.9715
  122OSM    H9T12942   1.537   4.529  10.013 -0.6197 -0.9005 -0.1050
  122OSM   C10S12943   1.409   4.680   9.905 -0.3381 -0.8070 -0.0777
  122OSM   H10S12944   1.470   4.769   9.931 -1.0903  0.2132 -1.6411
  122OSM   H10T12945   1.307   4.720   9.920  0.4475  1.0331  0.6148
  122OSM   C11S12946   1.451   4.633   9.768  0.4754 -0.0759 -0.2002
  122OSM   H11S12947   1.366   4.572   9.729  0.3561  0.3060 -0.5435
  122OSM   H11T12948   1.544   4.573   9.774  0.8749  0.5100 -0.4581
  122OSM   C12S12949   1.465   4.742   9.662 -0.6567  0.1447  0.3719
  122OSM   H12S12950   1.543   4.812   9.700 -0.3478 -0.2344  0.4377
  122OSM   H12T12951   1.373   4.805   9.662 -0.5413  0.3680  2.3381
  122OSM   C13S12952   1.514   4.693   9.527 -0.1589  0.4287 -0.1523
  122OSM   H13S12953   1.444   4.609   9.504 -0.6530  0.2489  1.8555
  122OSM   H13T12954   1.606   4.633   9.544 -0.3194  0.4384  0.7975
  122OSM   C14S12955   1.521   4.800   9.417  0.1507  0.2575 -0.4056
  122OSM   H14S12956   1.623   4.808   9.374  0.7294  0.2998  0.9505
  122OSM   H14T12957   1.514   4.893   9.477  3.6977 -0.5958  1.5805
  122OSM   C15S12958   1.414   4.779   9.300 -0.0228 -0.0381 -0.0269
  122OSM   H15S12959   1.316   4.770   9.352 -0.7541 -0.4504 -1.4232
  122OSM   H15T12960   1.442   4.685   9.248  0.3576  1.0063 -1.7889
  122OSM   C16S12961   1.398   4.895   9.198 -0.5608  0.4181 -0.4822
  122OSM   H16S12962   1.332   4.853   9.120  0.6443  1.1816 -1.9800
  122OSM   H16T12963   1.489   4.919   9.139  0.5404  0.1220  1.0153
  122OSM   C17S12964   1.323   5.018   9.258 -0.3415  0.2111  0.1096
  122OSM   H17S12965   1.401   5.094   9.278  1.1328 -1.0739 -0.5595
  122OSM   H17T12966   1.281   4.982   9.355 -1.9620 -1.5744 -1.1714
  122OSM   C18S12967   1.205   5.072   9.178 -0.0306  0.1328 -0.6055
  122OSM   H18S12968   1.167   5.162   9.232 -1.1680 -1.0040  0.5748
  122OSM   H18T12969   1.113   5.009   9.185 -2.1760  3.0264 -0.6910
  122OSM   H18U12970   1.229   5.091   9.072  2.2220 -1.4868 -0.4517
  122OSM    C1F12971   1.334   4.037  10.413  0.2758  0.0718 -0.4261
  122OSM     OF12972   1.235   3.966  10.444 -0.2877 -0.1407  0.0566
  122OSM    C2F12973   1.405   4.005  10.291  0.2463 -0.1590  0.3733
  122OSM    H2F12974   1.498   3.953  10.322 -0.1450 -1.9969 -1.3252
  122OSM    H2G12975   1.431   4.096  10.235 -0.7933 -0.7757 -1.1736
  122OSM    C3F12976   1.322   3.909  10.201  0.1935  0.0879  0.2013
  122OSM    H3F12977   1.232   3.959  10.160 -0.0553 -0.8830 -0.4733
  122OSM    H3G12978   1.286   3.814  10.245 -1.3818 -0.7426 -2.6584
  122OSM    C4F12979   1.395   3.882  10.072 -0.1406 -0.7501  0.2317
  122OSM    H4F12980   1.402   3.981  10.021 -2.0103 -0.4821  0.4302
  122OSM    H4G12981   1.338   3.812  10.008 -0.1366  0.0092 -0.6336
  122OSM    C5F12982   1.537   3.834  10.082 -0.4306  0.3794 -0.3803
  122OSM    H5F12983   1.524   3.742  10.144 -0.1177 -1.3842 -2.7803
  122OSM    H5G12984   1.609   3.899  10.135  0.8113 -0.6110 -0.7849
  122OSM    C6F12985   1.601   3.791   9.950  0.0779 -0.0837 -0.6144
  122OSM    H6F12986   1.607   3.865   9.868  3.6745 -2.4489 -2.7605
  122OSM    H6G12987   1.528   3.724   9.901  1.2369 -2.0389  0.2051
  122OSM    C7F12988   1.739   3.721   9.969 -0.3187 -0.0893  0.0768
  122OSM    H7F12989   1.724   3.650  10.054 -0.8356  0.5869  0.5593
  122OSM    H7G12990   1.805   3.804  10.001 -0.6390 -0.1590  0.9614
  122OSM    C8F12991   1.790   3.653   9.847 -0.6123 -0.2895  0.0770
  122OSM    H8F12992   1.702   3.594   9.812  0.3287 -0.1964 -2.7066
  122OSM    H8G12993   1.886   3.601   9.867 -1.6991 -2.4620 -0.0349
  122OSM    C9F12994   1.825   3.769   9.761 -0.8134  0.1553  0.5688
  122OSM    H9F12995   1.904   3.835   9.802 -1.0719 -1.1092  3.3933
  122OSM   C10F12996   1.766   3.803   9.640 -0.1116 -0.1164  0.2112
  122OSM   H10F12997   1.804   3.889   9.584 -2.3422  0.3823 -0.6213
  122OSM   C11F12998   1.647   3.724   9.581  0.1591 -0.3519  0.1006
  122OSM   H11F12999   1.556   3.784   9.557  0.2456 -0.1327  0.3215
  122OSM   H11G13000   1.598   3.654   9.652  0.7157 -0.3200  0.5203
  122OSM   C12F13001   1.683   3.639   9.458 -0.2375  0.1478  0.4734
  122OSM   H12F13002   1.598   3.569   9.439 -0.9679  0.2084  3.0949
  122OSM   H12G13003   1.770   3.576   9.488  0.0660  0.4469  0.2277
  122OSM   C13F13004   1.722   3.720   9.335  0.3483 -0.8999 -0.2391
  122OSM   H13F13005   1.814   3.780   9.350  0.9440 -1.7494 -0.4138
  122OSM   H13G13006   1.650   3.804   9.332  2.5030  1.0465 -2.6309
  122OSM   C14F13007   1.718   3.637   9.197  0.4083 -0.1462  0.1641
  122OSM   H14F13008   1.621   3.584   9.192 -0.2945  1.0666  0.6575
  122OSM   H14G13009   1.800   3.562   9.195 -1.7559 -2.7358  1.8976
  122OSM   C15F13010   1.735   3.730   9.081  0.4368  0.1740  0.2435
  122OSM   H15F13011   1.841   3.765   9.085  0.7635 -0.8384  2.7883
  122OSM   H15G13012   1.669   3.819   9.090 -2.7877 -2.1194  1.3320
  122OSM   C16F13013   1.702   3.671   8.949  0.1018 -0.0671 -0.2410
  122OSM   H16F13014   1.597   3.637   8.964  0.0721 -0.8253 -1.9517
  122OSM   H16G13015   1.754   3.579   8.913 -1.3619 -0.5413 -1.2282
  122OSM   C17F13016   1.706   3.766   8.830 -0.7984 -0.6702  0.6502
  122OSM   H17F13017   1.624   3.841   8.840  0.6034  1.2828 -1.4985
  122OSM   H17G13018   1.689   3.698   8.744  2.5296 -0.7885 -0.0128
  122OSM   C18F13019   1.843   3.842   8.819  0.1434 -0.3359  0.0543
  122OSM   H18F13020   1.856   3.903   8.911 -2.0418  0.4562 -0.1161
  122OSM   H18G13021   1.849   3.887   8.718 -2.6848 -1.1300 -0.5510
  122OSM   H18H13022   1.923   3.765   8.830  0.3900  0.0411  1.0913
  123OSM      N13023   4.554   2.050   6.321 -0.5705  0.3547  0.4921
  123OSM    C1513024   4.551   2.032   6.470 -0.0617  0.7534  0.4699
  123OSM   H15A13025   4.459   1.979   6.490 -0.3196  0.2000 -1.9179
  123OSM   H15B13026   4.552   2.126   6.523 -0.1128  0.4558  1.0109
  123OSM   H15C13027   4.638   1.974   6.495 -1.6540 -1.5716  0.9471
  123OSM    C1413028   4.586   1.913   6.257  0.5052 -0.1408 -0.9658
  123OSM   H14A13029   4.577   1.917   6.149  1.4834  0.5245 -1.0366
  123OSM   H14B13030   4.531   1.834   6.306  2.6182 -0.9887  0.1501
  123OSM   H14C13031   4.686   1.887   6.287  0.7609  0.7067 -1.0630
  123OSM    C1313032   4.425   2.098   6.264 -0.3396 -0.1669  0.1420
  123OSM   H13A13033   4.341   2.031   6.273  0.3025 -0.8597  1.2198
  123OSM   H13B13034   4.443   2.127   6.162  1.5740  0.7721  0.6980
  123OSM   H13C13035   4.389   2.190   6.308 -1.9671 -0.0151 -1.3974
  123OSM    C1213036   4.660   2.149   6.281  0.3904  0.7067 -0.2516
  123OSM   H12A13037   4.635   2.175   6.179 -1.1651 -0.0009 -0.0732
  123OSM   H12B13038   4.755   2.099   6.269 -0.4786 -0.9890 -0.2635
  123OSM    C1113039   4.675   2.285   6.350  0.0830  0.5242 -0.6147
  123OSM   H11A13040   4.762   2.332   6.298  2.1070  0.1546  2.1990
  123OSM   H11B13041   4.707   2.259   6.453 -2.8051 -0.3480  0.1386
  123OSM      P13042   4.558   2.505   6.260  0.1157  0.1614 -0.2384
  123OSM    O1313043   4.653   2.496   6.149  0.3154  0.0822  0.2489
  123OSM    O1413044   4.422   2.553   6.225 -0.5570 -0.3674  0.0383
  123OSM    O1113045   4.624   2.613   6.360  0.8094 -0.4868 -0.1336
  123OSM    O1213046   4.555   2.368   6.344  0.4002 -0.0777 -0.3396
  123OSM    C1S13047   4.575   2.621   6.495 -0.0635 -0.0253  0.1359
  123OSM    H1S13048   4.543   2.525   6.541 -0.6973 -0.0569 -0.3586
  123OSM    H1T13049   4.499   2.701   6.503 -1.0094 -0.5683 -2.4653
  123OSM     NF13050   4.673   2.667   6.727 -0.0306 -0.3213  0.5271
  123OSM    HNF13051   4.634   2.744   6.777 -0.9406  1.1837 -2.2997
  123OSM    C2S13052   4.688   2.684   6.584 -0.2785 -0.2605 -0.7373
  123OSM    H2S13053   4.778   2.625   6.557  0.9309  0.2966  1.7357
  123OSM    C3S13054   4.710   2.836   6.552  0.1929  0.7136 -0.1474
  123OSM    H3S13055   4.622   2.897   6.580  1.1935  1.7594  0.8420
  123OSM     O313056   4.718   2.855   6.411  0.1541 -0.5187 -0.2231
  123OSM    HO313057   4.691   2.773   6.369 -0.5645 -0.2195 -0.3541
  123OSM    C4S13058   4.829   2.894   6.627 -0.1737 -0.0874 -0.0307
  123OSM    H4S13059   4.924   2.844   6.607  1.3930  2.5081  0.3994
  123OSM    C5S13060   4.817   2.995   6.712  0.4847  0.6628  0.5245
  123OSM    H5S13061   4.714   3.031   6.731  0.2483 -0.1547  0.8139
  123OSM    C6S13062   4.929   3.053   6.800 -0.3729  0.1701 -0.6311
  123OSM    H6S13063   4.945   3.160   6.774  1.2935  0.4547  1.3372
  123OSM    H6T13064   5.021   2.995   6.779 -1.3797 -0.9971 -1.9868
  123OSM    C7S13065   4.894   3.061   6.951 -0.9378 -0.2576 -0.6156
  123OSM    H7S13066   4.870   2.958   6.987  1.4643 -0.5028  0.5465
  123OSM    H7T13067   4.799   3.115   6.971 -1.0639 -1.9021  4.8959
  123OSM    C8S13068   5.001   3.128   7.041 -0.0456  0.0947 -0.2037
  123OSM    H8S13069   5.031   3.226   6.998  0.9682  0.6372  1.6466
  123OSM    H8T13070   5.093   3.066   7.034  0.5441  1.0229 -0.9712
  123OSM    C9S13071   4.957   3.153   7.188  0.6423 -0.3823 -0.7022
  123OSM    H9S13072   4.915   3.256   7.198 -0.6387 -1.0677  1.7572
  123OSM    H9T13073   5.045   3.163   7.255  0.0327 -0.8784  0.1965
  123OSM   C10S13074   4.851   3.061   7.242 -0.6019  0.3702  0.3162
  123OSM   H10S13075   4.878   2.953   7.232 -0.2101  0.5599 -0.8518
  123OSM   H10T13076   4.762   3.069   7.175 -0.8946 -1.0731  0.4915
  123OSM   C11S13077   4.834   3.091   7.390 -0.3206 -0.2248  0.3125
  123OSM   H11S13078   4.734   3.048   7.414  0.4069 -2.3416 -0.1834
  123OSM   H11T13079   4.838   3.202   7.394 -0.3820 -0.2541  1.4259
  123OSM   C12S13080   4.944   3.041   7.482  0.8497 -0.1666 -0.5376
  123OSM   H12S13081   5.048   3.046   7.443  0.1335 -0.9237 -2.7201
  123OSM   H12T13082   4.925   2.932   7.497  0.6643  0.0029  0.4922
  123OSM   C13S13083   4.948   3.136   7.604 -0.0464  0.4729  0.1954
  123OSM   H13S13084   4.849   3.128   7.654 -0.4286 -1.1578 -0.7630
  123OSM   H13T13085   4.970   3.238   7.567  1.5941 -0.5710 -1.9006
  123OSM   C14S13086   5.051   3.086   7.701  0.6621  1.1737 -0.0329
  123OSM   H14S13087   5.159   3.098   7.676  1.4883  1.4193  3.1454
  123OSM   H14T13088   5.040   2.977   7.718  0.6148  1.1967  0.0840
  123OSM   C15S13089   5.023   3.145   7.841  0.2974 -0.5998  0.0372
  123OSM   H15S13090   5.095   3.096   7.910  1.5386  0.0364 -0.7578
  123OSM   H15T13091   4.919   3.118   7.866 -1.0571  1.0482 -3.1681
  123OSM   C16S13092   5.047   3.292   7.856  0.4118 -0.1726  0.0774
  123OSM   H16S13093   5.000   3.350   7.774  0.1862 -0.8958 -0.3206
  123OSM   H16T13094   5.153   3.325   7.848 -0.2273  3.0029  2.7260
  123OSM   C17S13095   4.985   3.350   7.984  0.1402 -0.5878  0.3048
  123OSM   H17S13096   4.875   3.362   7.979  0.0979 -0.5877  1.1792
  123OSM   H17T13097   5.024   3.455   7.989  1.9497 -1.2286  0.5318
  123OSM   C18S13098   5.021   3.285   8.118 -0.1603  0.1273  0.0225
  123OSM   H18S13099   4.995   3.349   8.205 -0.4050 -0.6510  0.5289
  123OSM   H18T13100   5.129   3.264   8.132 -0.4981 -0.9565  1.2138
  123OSM   H18U13101   4.963   3.190   8.126 -1.1060  0.6075 -0.9729
  123OSM    C1F13102   4.712   2.555   6.784  0.6266 -0.3456 -0.1058
  123OSM     OF13103   4.729   2.456   6.718  0.0496  0.0965  0.4419
  123OSM    C2F13104   4.717   2.557   6.931  0.5531 -0.0496 -0.3153
  123OSM    H2F13105   4.776   2.475   6.977  0.2370  0.0642  0.2976
  123OSM    H2G13106   4.615   2.561   6.974  1.0886  0.3104  0.9678
  123OSM    C3F13107   4.785   2.680   7.001 -0.6625 -0.2394  0.4012
  123OSM    H3F13108   4.724   2.772   6.988 -1.2847 -0.7768 -0.5867
  123OSM    H3G13109   4.891   2.687   6.967  0.2170 -1.8292  2.6408
  123OSM    C4F13110   4.810   2.652   7.151 -0.5408 -0.1652 -0.8255
  123OSM    H4F13111   4.887   2.727   7.178 -0.9115  0.4522 -1.4725
  123OSM    H4G13112   4.838   2.546   7.166 -1.0286 -0.3982 -1.5055
  123OSM    C5F13113   4.683   2.670   7.237  0.3259  0.1254  0.2804
  123OSM    H5F13114   4.612   2.600   7.187  0.1394 -1.1146  2.1875
  123OSM    H5G13115   4.632   2.768   7.231 -2.1588 -1.1304 -0.8877
  123OSM    C6F13116   4.712   2.640   7.376 -0.0356  0.1465 -0.4386
  123OSM    H6F13117   4.787   2.718   7.399  0.2798 -0.4055  0.4682
  123OSM    H6G13118   4.763   2.542   7.386  0.1152  0.1404 -1.2381
  123OSM    C7F13119   4.591   2.637   7.478  0.0452  0.5662 -0.0685
  123OSM    H7F13120   4.535   2.545   7.452 -0.7934  1.5351 -1.9012
  123OSM    H7G13121   4.523   2.724   7.462  0.3381  0.7906 -0.1069
  123OSM    C8F13122   4.635   2.621   7.627  0.0478  0.7894 -0.1604
  123OSM    H8F13123   4.712   2.541   7.627  0.7828  1.4674  0.6092
  123OSM    H8G13124   4.554   2.578   7.690 -0.2052  0.2032 -0.8773
  123OSM    C9F13125   4.693   2.746   7.667 -0.4499 -0.1531  0.6065
  123OSM    H9F13126   4.651   2.830   7.610  0.2617 -0.7141 -0.8056
  123OSM   C10F13127   4.794   2.771   7.749  0.0083  0.8763  0.1354
  123OSM   H10F13128   4.818   2.877   7.767 -0.5585  1.0822 -0.2850
  123OSM   C11F13129   4.866   2.660   7.816 -0.0480 -0.3367 -0.6048
  123OSM   H11F13130   4.975   2.677   7.807 -0.0537 -0.9648 -2.2959
  123OSM   H11G13131   4.853   2.566   7.757  2.6251 -0.0381 -1.7976
  123OSM   C12F13132   4.815   2.653   7.961 -0.0350  0.4723 -0.1088
  123OSM   H12F13133   4.856   2.562   8.010  0.0679  1.2652  1.3433
  123OSM   H12G13134   4.707   2.632   7.976  0.0104  1.0167  1.1343
  123OSM   C13F13135   4.856   2.771   8.045 -0.0843  0.1714 -0.1863
  123OSM   H13F13136   4.765   2.829   8.073  0.0361 -0.1480  0.9249
  123OSM   H13G13137   4.929   2.831   7.986  1.6346 -0.9348  0.7290
  123OSM   C14F13138   4.920   2.737   8.179  0.1068  1.1746  0.4683
  123OSM   H14F13139   5.006   2.670   8.160 -1.0473 -0.6508  1.4252
  123OSM   H14G13140   4.849   2.673   8.236  1.1148 -0.3005  0.1074
  123OSM   C15F13141   4.960   2.863   8.245  0.8566  0.0975  0.2164
  123OSM   H15F13142   4.874   2.909   8.299 -1.1230 -1.4878 -1.4058
  123OSM   H15G13143   4.972   2.926   8.155 -0.9214 -1.8781 -1.5418
  123OSM   C16F13144   5.087   2.860   8.335 -0.2815 -0.2067  0.0445
  123OSM   H16F13145   5.177   2.820   8.283 -0.2897 -0.8777  0.5298
  123OSM   H16G13146   5.060   2.795   8.422 -3.1759 -0.2325 -0.7759
  123OSM   C17F13147   5.117   2.997   8.395 -0.1507 -0.2315  0.2683
  123OSM   H17F13148   5.042   3.026   8.471 -0.2811  1.6037 -0.5081
  123OSM   H17G13149   5.107   3.079   8.320  0.9140  0.2081  0.5769
  123OSM   C18F13150   5.260   3.012   8.457  0.5922  0.3306  0.0275
  123OSM   H18F13151   5.327   2.989   8.371  0.7120  2.7871 -0.6129
  123OSM   H18G13152   5.280   2.940   8.539 -0.8098 -2.7370 -2.1288
  123OSM   H18H13153   5.287   3.117   8.484 -1.1307  1.1238 -1.1276
  124OSM      N13154   0.768   1.289   6.319  0.0166  0.3913  0.1033
  124OSM    C1513155   0.878   1.218   6.249 -1.3023  0.4665  0.2743
  124OSM   H15A13156   0.913   1.132   6.305 -0.0920  0.8304  0.1117
  124OSM   H15B13157   0.966   1.280   6.237  0.9091 -2.5846 -0.3746
  124OSM   H15C13158   0.842   1.182   6.154  2.0162 -0.7024 -0.6691
  124OSM    C1413159   0.655   1.188   6.321  0.1886 -0.2832 -0.5007
  124OSM   H14A13160   0.576   1.226   6.384 -0.0982 -4.6486  2.2230
  124OSM   H14B13161   0.679   1.090   6.360  0.4339 -0.4075 -0.9703
  124OSM   H14C13162   0.613   1.182   6.222 -0.9090  1.5402 -0.1972
  124OSM    C1313163   0.797   1.312   6.459 -0.2089  0.5000 -0.1284
  124OSM   H13A13164   0.719   1.374   6.499  0.4683  2.2415 -1.3412
  124OSM   H13B13165   0.885   1.373   6.470 -0.3431  0.7619 -0.4717
  124OSM   H13C13166   0.811   1.222   6.517  2.1305  1.0316  0.2307
  124OSM    C1213167   0.739   1.413   6.251 -0.3602  0.1527  0.2258
  124OSM   H12A13168   0.713   1.398   6.147 -2.1711  0.6745  0.5682
  124OSM   H12B13169   0.835   1.461   6.254  0.6108 -1.5711 -1.0277
  124OSM    C1113170   0.641   1.520   6.302  0.3723 -0.8891 -0.0544
  124OSM   H11A13171   0.656   1.616   6.248  2.0639 -1.4597 -0.6470
  124OSM   H11B13172   0.653   1.530   6.412  0.5045  0.7193 -0.1975
  124OSM      P13173   0.373   1.516   6.340 -0.3569 -0.3748  0.1349
  124OSM    O1313174   0.334   1.647   6.273  0.2907  0.4017 -0.3472
  124OSM    O1413175   0.277   1.407   6.328 -0.1721 -0.0185 -0.2400
  124OSM    O1113176   0.392   1.543   6.493  0.2458 -0.0885  0.9596
  124OSM    O1213177   0.511   1.467   6.275 -0.1616 -0.2709  0.2728
  124OSM    C1S13178   0.443   1.448   6.583 -0.4104  0.5123  0.1032
  124OSM    H1S13179   0.545   1.415   6.552 -0.3004  1.2599 -0.3236
  124OSM    H1T13180   0.384   1.354   6.575  2.0732 -1.1824  0.5717
  124OSM     NF13181   0.525   1.383   6.799 -1.0409  0.3430  0.6529
  124OSM    HNF13182   0.475   1.309   6.843 -2.0289  0.5121 -0.1570
  124OSM    C2S13183   0.464   1.494   6.730 -0.1462 -0.0408 -0.7277
  124OSM    H2S13184   0.532   1.582   6.724 -2.1396  1.4909 -2.1855
  124OSM    C3S13185   0.323   1.534   6.782  0.2102  0.4580 -0.3076
  124OSM    H3S13186   0.262   1.444   6.759  0.4193 -0.2196  1.5760
  124OSM     O313187   0.273   1.647   6.713  0.0207  0.2088 -0.8344
  124OSM    HO313188   0.329   1.643   6.635 -0.0149 -0.8198 -0.8110
  124OSM    C4S13189   0.319   1.561   6.931 -0.2352 -0.4847  0.0982
  124OSM    H4S13190   0.384   1.645   6.960 -0.1713 -0.4354 -0.1894
  124OSM    C5S13191   0.242   1.504   7.023 -0.2423 -0.0213 -0.2750
  124OSM    H5S13192   0.178   1.416   7.004  0.0145  0.1427 -2.1063
  124OSM    C6S13193   0.260   1.547   7.165  0.7952  0.5262 -0.1353
  124OSM    H6S13194   0.286   1.456   7.222  0.2211 -0.5431 -1.5260
  124OSM    H6T13195   0.165   1.578   7.214  1.1947 -0.1508  1.0916
  124OSM    C7S13196   0.377   1.625   7.213 -0.3482 -0.8890 -0.7159
  124OSM    H7S13197   0.383   1.727   7.169 -3.1129 -0.2157  0.2153
  124OSM    H7T13198   0.464   1.570   7.173 -0.0862 -0.5949 -0.5509
  124OSM    C8S13199   0.386   1.659   7.361 -0.7502  0.8458  0.2628
  124OSM    H8S13200   0.496   1.659   7.376 -0.2798  0.5316 -2.5957
  124OSM    H8T13201   0.347   1.578   7.426  0.3341  0.2570  0.1910
  124OSM    C9S13202   0.325   1.790   7.409  0.4365 -0.5503 -0.5265
  124OSM    H9S13203   0.214   1.786   7.410  0.4328 -4.1134  1.5162
  124OSM    H9T13204   0.375   1.872   7.354 -1.1697  0.0453 -1.1726
  124OSM   C10S13205   0.369   1.821   7.560  0.1102 -0.0058 -0.5427
  124OSM   H10S13206   0.333   1.922   7.590 -1.6682 -0.6063 -0.5283
  124OSM   H10T13207   0.479   1.829   7.555  0.1919 -0.5146  0.1996
  124OSM   C11S13208   0.315   1.726   7.666  0.6691 -0.0327 -0.1175
  124OSM   H11S13209   0.365   1.628   7.656 -0.5100 -0.5327 -1.4626
  124OSM   H11T13210   0.210   1.691   7.667  0.9326 -0.8671 -0.6861
  124OSM   C12S13211   0.321   1.796   7.807 -1.1981 -0.6020 -0.3807
  124OSM   H12S13212   0.253   1.883   7.809  0.2069  0.5308  1.0533
  124OSM   H12T13213   0.418   1.846   7.829 -2.0099  1.0807 -0.4511
  124OSM   C13S13214   0.279   1.703   7.924  0.3034 -0.3374 -0.1984
  124OSM   H13S13215   0.337   1.611   7.900  0.4984 -0.0831 -0.7022
  124OSM   H13T13216   0.171   1.679   7.921  0.2966 -0.2592 -0.5405
  124OSM   C14S13217   0.319   1.755   8.063 -0.3720 -0.7023  0.4335
  124OSM   H14S13218   0.285   1.861   8.067  0.8415 -0.2024 -1.3056
  124OSM   H14T13219   0.429   1.753   8.077  0.0341 -0.1085 -2.1138
  124OSM   C15S13220   0.242   1.675   8.171 -0.0984 -0.4871 -0.5789
  124OSM   H15S13221   0.287   1.574   8.160 -2.3049 -1.4776 -0.9478
  124OSM   H15T13222   0.135   1.661   8.148 -0.0032 -0.2799 -1.1667
  124OSM   C16S13223   0.259   1.726   8.317 -0.6002  0.3473  0.7495
  124OSM   H16S13224   0.212   1.827   8.319  1.0637  1.1666  2.2126
  124OSM   H16T13225   0.362   1.752   8.351 -1.1448  3.6048  0.2953
  124OSM   C17S13226   0.192   1.628   8.413 -0.4023  0.1935 -0.5714
  124OSM   H17S13227   0.235   1.649   8.513  1.9581 -0.7164 -1.3374
  124OSM   H17T13228   0.217   1.522   8.390 -0.7481  0.4700 -2.3471
  124OSM   C18S13229   0.033   1.641   8.413 -0.1060  0.2975 -0.2086
  124OSM   H18S13230  -0.006   1.626   8.310 -2.5388  0.1831  0.6626
  124OSM   H18T13231  -0.001   1.740   8.448  1.4087  0.2494  1.5353
  124OSM   H18U13232  -0.016   1.567   8.480 -1.7156 -1.9118 -3.5551
  124OSM    C1F13233   0.660   1.355   6.804 -0.2505  0.1024  0.2217
  124OSM     OF13234   0.733   1.426   6.743  0.0698 -0.3364 -1.0526
  124OSM    C2F13235   0.707   1.237   6.885 -0.1938 -0.0370  0.4197
  124OSM    H2F13236   0.747   1.172   6.804 -1.5139  0.5183 -0.7160
  124OSM    H2G13237   0.623   1.185   6.936  0.1901  0.5956  1.7567
  124OSM    C3F13238   0.814   1.268   6.993  0.0072  0.5825  0.2072
  124OSM    H3F13239   0.872   1.358   6.964  0.8033  0.5752  1.6878
  124OSM    H3G13240   0.883   1.180   6.995  0.7596  1.1309 -0.6467
  124OSM    C4F13241   0.755   1.307   7.129  0.5017  0.5251  0.0421
  124OSM    H4F13242   0.708   1.405   7.105 -0.0366  0.7785  1.9970
  124OSM    H4G13243   0.842   1.330   7.193  0.7420 -1.4058  0.4899
  124OSM    C5F13244   0.647   1.209   7.184 -0.5654  0.8139 -0.2895
  124OSM    H5F13245   0.697   1.110   7.175  0.5650  1.5097 -2.2714
  124OSM    H5G13246   0.557   1.211   7.120 -0.7733 -0.6366 -0.0611
  124OSM    C6F13247   0.606   1.238   7.333  0.9278 -0.4650  0.8239
  124OSM    H6F13248   0.545   1.149   7.359 -0.6485  0.6125  0.8974
  124OSM    H6G13249   0.545   1.330   7.341  1.9263  0.1868  1.1592
  124OSM    C7F13250   0.724   1.258   7.430  0.1171  0.1755  0.0010
  124OSM    H7F13251   0.775   1.356   7.420 -1.0440  0.7747 -0.1350
  124OSM    H7G13252   0.804   1.182   7.413  0.5002 -0.4805  3.8255
  124OSM    C8F13253   0.679   1.240   7.571 -1.0005  0.8617 -0.7997
  124OSM    H8F13254   0.769   1.247   7.636 -1.2524  0.9873 -0.4614
  124OSM    H8G13255   0.645   1.134   7.575  1.6426 -0.0866 -1.1604
  124OSM    C9F13256   0.569   1.334   7.619  0.7197 -0.1225 -0.2020
  124OSM    H9F13257   0.471   1.306   7.576  0.3638 -0.1835  0.6291
  124OSM   C10F13258   0.577   1.418   7.723 -0.0322  0.0059 -0.4450
  124OSM   H10F13259   0.492   1.482   7.750 -0.4350 -0.7788  0.1984
  124OSM   C11F13260   0.698   1.451   7.804 -0.3698  0.3312  0.0154
  124OSM   H11F13261   0.696   1.561   7.794 -2.9333  0.2629 -1.1909
  124OSM   H11G13262   0.783   1.413   7.743 -0.7913 -2.3829  0.9550
  124OSM   C12F13263   0.716   1.418   7.949 -0.6675  0.1194 -0.0173
  124OSM   H12F13264   0.621   1.438   8.002 -1.1018  1.8344 -1.3529
  124OSM   H12G13265   0.802   1.477   7.989  0.2896 -1.0256 -0.3154
  124OSM   C13F13266   0.750   1.269   7.976  0.4803 -0.4038  0.0359
  124OSM   H13F13267   0.815   1.230   7.895  0.8979 -0.4299  0.3788
  124OSM   H13G13268   0.663   1.203   7.992  1.1345 -1.2208  0.2808
  124OSM   C14F13269   0.838   1.260   8.105  0.8856 -0.9800  0.2713
  124OSM   H14F13270   0.799   1.336   8.176 -1.2759  0.9507 -2.7122
  124OSM   H14G13271   0.942   1.288   8.079 -0.7280  2.4071 -3.7974
  124OSM   C15F13272   0.831   1.117   8.146  0.4248  0.1314 -0.0792
  124OSM   H15F13273   0.887   1.048   8.080  1.3115  1.0864 -0.3560
  124OSM   H15G13274   0.726   1.082   8.148  0.2631  0.5212  2.7691
  124OSM   C16F13275   0.887   1.099   8.290 -0.3398  0.0269  0.6009
  124OSM   H16F13276   0.849   1.008   8.340  0.9825 -0.7633  0.2099
  124OSM   H16G13277   0.848   1.181   8.355  2.1928  1.0984  0.8756
  124OSM   C17F13278   1.038   1.095   8.305 -0.0729 -0.1082  0.7440
  124OSM   H17F13279   1.076   1.035   8.220  0.5347 -0.8934  1.5439
  124OSM   H17G13280   1.074   1.061   8.405  2.0535  2.3937  0.9423
  124OSM   C18F13281   1.103   1.237   8.302 -0.2094  0.4517  0.1735
  124OSM   H18F13282   1.060   1.315   8.368  0.3011  0.3522  0.6364
  124OSM   H18G13283   1.104   1.261   8.193 -0.2676  0.4349  0.1700
  124OSM   H18H13284   1.208   1.221   8.334  0.3958 -1.4861 -2.4571
  125OSM      N13285   6.576   1.838   6.016 -0.2103 -0.2091 -0.5783
  125OSM    C1513286   6.575   1.984   6.057  0.1851 -0.6454 -0.2756
  125OSM   H15A13287   6.608   1.989   6.159  2.3420 -1.2155 -0.8943
  125OSM   H15B13288   6.478   2.032   6.046  1.0331  1.2501  0.1610
  125OSM   H15C13289   6.644   2.039   5.995  0.2825 -1.6619 -1.1045
  125OSM    C1413290   6.543   1.828   5.874  0.6085 -0.2624 -0.2608
  125OSM   H14A13291   6.459   1.892   5.851 -0.2259 -1.2800 -0.1290
  125OSM   H14B13292   6.510   1.731   5.838 -0.7395 -0.1618  0.6293
  125OSM   H14C13293   6.628   1.843   5.809  1.8208 -0.1664  1.3034
  125OSM    C1313294   6.708   1.770   6.026 -0.1749 -0.2866 -1.2000
  125OSM   H13A13295   6.712   1.665   5.999 -0.5137 -1.3135  2.2883
  125OSM   H13B13296   6.739   1.779   6.129  0.5388 -1.9244 -1.2339
  125OSM   H13C13297   6.785   1.834   5.986 -0.3581  1.4974  1.0902
  125OSM    C1213298   6.477   1.759   6.102 -0.1948  0.5164  0.4180
  125OSM   H12A13299   6.489   1.653   6.085  1.2898  0.5536  1.0617
  125OSM   H12B13300   6.377   1.778   6.067  0.6927  0.5475 -2.4459
  125OSM    C1113301   6.482   1.781   6.249  0.3591  0.5278 -0.4659
  125OSM   H11A13302   6.586   1.814   6.271  0.3000 -0.2284  1.1081
  125OSM   H11B13303   6.462   1.687   6.305  2.1200  0.1965 -0.3422
  125OSM      P13304   6.400   1.967   6.404 -0.3800  0.1442  0.2291
  125OSM    O1313305   6.493   2.080   6.375  0.2282  0.6691 -0.4418
  125OSM    O1413306   6.267   2.013   6.445 -0.1803 -0.0892 -0.0330
  125OSM    O1113307   6.469   1.868   6.513 -0.0457  0.8646  0.6216
  125OSM    O1213308   6.387   1.882   6.274  0.3920 -0.4990 -0.2132
  125OSM    C1S13309   6.599   1.879   6.569  0.2775  0.8119 -0.5875
  125OSM    H1S13310   6.606   1.978   6.620  1.1438 -0.3604  1.6894
  125OSM    H1T13311   6.676   1.873   6.490  0.8197 -2.5830  0.0801
  125OSM     NF13312   6.772   1.802   6.729 -0.1812  0.3343  0.3064
  125OSM    HNF13313   6.844   1.737   6.705  0.5836  0.7808  1.2829
  125OSM    C2S13314   6.637   1.779   6.687 -0.2198  0.0467 -0.2331
  125OSM    H2S13315   6.575   1.812   6.773  0.0474  1.5147 -0.5609
  125OSM    C3S13316   6.598   1.635   6.647  0.2521  0.2242  0.0161
  125OSM    H3S13317   6.672   1.610   6.567 -1.5455 -0.1772 -1.5943
  125OSM     O313318   6.467   1.614   6.590 -0.4168 -0.4163  0.6137
  125OSM    HO313319   6.449   1.704   6.561  0.9168 -0.4065 -0.2598
  125OSM    C4S13320   6.619   1.548   6.764 -0.5110  0.4233  0.2123
  125OSM    H4S13321   6.705   1.481   6.754  0.6621  1.7746  0.8791
  125OSM    C5S13322   6.530   1.538   6.864  0.0424  0.4489 -0.1070
  125OSM    H5S13323   6.433   1.590   6.865  0.2024  0.7438  0.2242
  125OSM    C6S13324   6.542   1.447   6.986 -0.1026 -0.2782  0.3613
  125OSM    H6S13325   6.612   1.361   6.983 -1.9287 -1.7884 -2.6060
  125OSM    H6T13326   6.438   1.408   6.990 -1.0677  1.6862 -2.3792
  125OSM    C7S13327   6.567   1.519   7.121  0.6491  0.5459 -0.6559
  125OSM    H7S13328   6.493   1.591   7.161  0.4889 -0.5087  1.0750
  125OSM    H7T13329   6.659   1.580   7.114  0.0906  1.6998  1.2484
  125OSM    C8S13330   6.587   1.429   7.247 -0.5347  0.7706 -0.8631
  125OSM    H8S13331   6.682   1.370   7.242 -1.2673 -0.6296  0.9743
  125OSM    H8T13332   6.512   1.348   7.241  1.8340 -1.6696  0.6468
  125OSM    C9S13333   6.593   1.502   7.383  0.1947 -0.7870  0.3880
  125OSM    H9S13334   6.510   1.572   7.406 -0.3554  0.1849 -3.7558
  125OSM    H9T13335   6.674   1.578   7.381  0.7760 -1.3564  1.7579
  125OSM   C10S13336   6.616   1.398   7.493  0.1702 -0.2046 -0.3464
  125OSM   H10S13337   6.711   1.345   7.474 -0.3585 -1.1267 -0.4661
  125OSM   H10T13338   6.529   1.330   7.486 -2.1843  2.4881  0.5092
  125OSM   C11S13339   6.619   1.475   7.629  0.1405  0.6221 -0.8930
  125OSM   H11S13340   6.542   1.554   7.641 -1.4040 -0.8083 -0.9510
  125OSM   H11T13341   6.713   1.533   7.614 -0.3553  1.4197 -0.9832
  125OSM   C12S13342   6.627   1.382   7.752 -0.7283  0.5546  0.2004
  125OSM   H12S13343   6.707   1.307   7.731 -0.1600  1.0718  0.4646
  125OSM   H12T13344   6.535   1.321   7.763  1.2044 -2.2732  2.3627
  125OSM   C13S13345   6.646   1.463   7.889 -0.8184 -0.6968  0.5906
  125OSM   H13S13346   6.557   1.530   7.893 -0.0924  0.4542 -1.3338
  125OSM   H13T13347   6.746   1.511   7.889 -0.9490 -0.4181 -0.2110
  125OSM   C14S13348   6.687   1.364   8.007  0.3740  0.0345  0.7395
  125OSM   H14S13349   6.739   1.424   8.084  3.1182 -0.1413 -0.8608
  125OSM   H14T13350   6.755   1.285   7.968 -0.0719  0.0658 -0.1250
  125OSM   C15S13351   6.566   1.283   8.065 -0.3909  0.0479  0.5395
  125OSM   H15S13352   6.538   1.212   7.984  2.1870 -1.0519  0.5043
  125OSM   H15T13353   6.481   1.353   8.077 -0.7682 -0.0500 -1.2421
  125OSM   C16S13354   6.594   1.203   8.191 -0.2468 -0.2887 -0.1150
  125OSM   H16S13355   6.681   1.136   8.174  0.7060  1.2175 -1.4656
  125OSM   H16T13356   6.503   1.151   8.226 -1.6230  1.0055 -1.6329
  125OSM   C17S13357   6.630   1.297   8.313  0.1960 -0.5578  0.1848
  125OSM   H17S13358   6.559   1.383   8.316  0.7718 -0.0489 -0.4441
  125OSM   H17T13359   6.736   1.326   8.300  0.8177 -2.6440  0.2577
  125OSM   C18S13360   6.624   1.231   8.448  0.4729  0.4551 -0.3105
  125OSM   H18S13361   6.647   1.123   8.451  1.5744  0.6592  3.0110
  125OSM   H18T13362   6.522   1.241   8.491  0.1172 -0.0216 -1.0414
  125OSM   H18U13363   6.695   1.285   8.515  0.0897  1.2763 -0.5420
  125OSM    C1F13364   6.818   1.921   6.769  0.3398 -0.3066  0.1567
  125OSM     OF13365   6.735   2.015   6.798 -0.7234 -0.0208  0.4995
  125OSM    C2F13366   6.966   1.944   6.788 -0.1869 -0.5594  0.5366
  125OSM    H2F13367   6.998   1.996   6.695 -1.4356  0.0529  0.4289
  125OSM    H2G13368   7.021   1.847   6.791 -0.3042 -0.6149  2.8016
  125OSM    C3F13369   6.991   2.017   6.916 -0.2199 -0.2783 -0.3983
  125OSM    H3F13370   6.959   1.956   7.004 -2.4600  1.2205 -0.0842
  125OSM    H3G13371   6.933   2.111   6.927 -1.6717 -1.3159  1.7034
  125OSM    C4F13372   7.145   2.048   6.938  0.1461  0.0348 -0.4060
  125OSM    H4F13373   7.182   2.119   6.861 -1.8416  0.5576 -0.9383
  125OSM    H4G13374   7.199   1.951   6.944 -0.8672 -0.5609 -0.4815
  125OSM    C5F13375   7.163   2.110   7.082 -0.5242 -0.9100 -0.3533
  125OSM    H5F13376   7.257   2.078   7.131 -0.2076 -1.8152 -1.4995
  125OSM    H5G13377   7.086   2.072   7.153  0.0848  0.4799  1.1289
  125OSM    C6F13378   7.162   2.267   7.079 -0.1906 -0.3408 -0.6246
  125OSM    H6F13379   7.165   2.326   7.173  0.3583 -1.0746 -0.1677
  125OSM    H6G13380   7.065   2.295   7.032  0.6301  1.6431 -1.2675
  125OSM    C7F13381   7.276   2.333   7.004  1.0606 -0.5907  0.0177
  125OSM    H7F13382   7.281   2.306   6.896  0.1811  0.4256 -0.3016
  125OSM    H7G13383   7.371   2.306   7.055  0.3212 -0.7634  1.3569
  125OSM    C8F13384   7.246   2.488   7.003  0.9422  0.7395 -0.0637
  125OSM    H8F13385   7.197   2.512   7.100 -1.5127 -1.5397 -0.6090
  125OSM    H8G13386   7.176   2.515   6.921 -0.5754 -0.6806  0.6926
  125OSM    C9F13387   7.366   2.571   6.969  0.2833 -0.1281  0.1372
  125OSM    H9F13388   7.426   2.542   6.882 -0.4800 -1.1611 -0.0662
  125OSM   C10F13389   7.403   2.685   7.036 -0.5542  0.9971  1.0073
  125OSM   H10F13390   7.487   2.747   7.002 -1.5339  1.4614 -0.6777
  125OSM   C11F13391   7.335   2.747   7.157 -0.7467  0.3041 -0.2840
  125OSM   H11F13392   7.224   2.737   7.149 -1.3179  4.7293 -0.3838
  125OSM   H11G13393   7.363   2.854   7.150  4.8266 -0.6841  1.7179
  125OSM   C12F13394   7.382   2.692   7.293  0.9564  0.0824  0.1102
  125OSM   H12F13395   7.486   2.726   7.311  0.4320  1.0302  1.5082
  125OSM   H12G13396   7.383   2.582   7.304 -1.2885 -0.1631 -1.4183
  125OSM   C13F13397   7.313   2.750   7.419  0.4982 -1.1461  0.4662
  125OSM   H13F13398   7.215   2.699   7.434  0.6819 -1.3016  1.2204
  125OSM   H13G13399   7.274   2.851   7.396  0.3458 -1.2596  0.2244
  125OSM   C14F13400   7.404   2.749   7.546  0.2411  0.3166  0.3128
  125OSM   H14F13401   7.480   2.829   7.555  0.8143 -0.0381 -1.1547
  125OSM   H14G13402   7.450   2.648   7.548 -0.5083 -0.0807  3.2439
  125OSM   C15F13403   7.326   2.770   7.672  0.2293  0.1458  0.2588
  125OSM   H15F13404   7.258   2.682   7.681  1.5779 -1.2287 -1.9491
  125OSM   H15G13405   7.276   2.869   7.682  2.1789  1.1837  0.3129
  125OSM   C16F13406   7.427   2.746   7.782  0.0230  0.8879  0.2028
  125OSM   H16F13407   7.508   2.820   7.765 -0.6856  1.2806 -1.7556
  125OSM   H16G13408   7.463   2.642   7.763  0.2904  0.8166  1.0682
  125OSM   C17F13409   7.375   2.759   7.922  0.2988 -0.3310  0.1420
  125OSM   H17F13410   7.424   2.690   7.994  1.4877 -1.2335 -1.4861
  125OSM   H17G13411   7.266   2.736   7.921  0.3734 -0.9695  2.1871
  125OSM   C18F13412   7.390   2.903   7.983 -0.3700  0.2814  0.4894
  125OSM   H18F13413   7.371   2.982   7.907 -2.3155 -1.4077 -0.8954
  125OSM   H18G13414   7.494   2.915   8.021 -1.4881  0.8158  3.6559
  125OSM   H18H13415   7.321   2.903   8.070  2.8724  0.4466  3.2965
  126OSM      N13416   5.512   0.835   6.698  0.4495  0.1172  0.3741
  126OSM    C1513417   5.565   0.976   6.699 -0.4137  0.0825 -0.0356
  126OSM   H15A13418   5.538   1.024   6.607  2.4936  0.3463 -0.8479
  126OSM   H15B13419   5.673   0.970   6.700 -0.3043  1.4915 -0.8745
  126OSM   H15C13420   5.545   1.039   6.785 -0.9543 -0.7873  0.5022
  126OSM    C1413421   5.580   0.759   6.587  0.8482  0.0153 -0.5693
  126OSM   H14A13422   5.541   0.660   6.568  1.4310 -0.0322 -1.6103
  126OSM   H14B13423   5.684   0.745   6.610  0.9417 -0.7606 -1.3857
  126OSM   H14C13424   5.576   0.809   6.491  0.7050  0.0704 -0.5358
  126OSM    C1313425   5.540   0.771   6.836 -0.2681 -0.8298 -0.8709
  126OSM   H13A13426   5.502   0.670   6.833  0.5719 -1.1517 -0.8628
  126OSM   H13B13427   5.485   0.827   6.911 -0.7359 -0.8401 -1.1998
  126OSM   H13C13428   5.646   0.765   6.852 -0.5016  0.2715  1.6987
  126OSM    C1213429   5.360   0.843   6.667 -0.6662 -0.5742  0.0258
  126OSM   H12A13430   5.309   0.886   6.751 -1.0625 -2.1959  0.6493
  126OSM   H12B13431   5.323   0.741   6.662 -2.5109  0.0321  0.7436
  126OSM    C1113432   5.307   0.905   6.534 -0.9119 -0.6356  0.8744
  126OSM   H11A13433   5.198   0.912   6.556 -0.4752  0.3615  3.0159
  126OSM   H11B13434   5.318   0.831   6.452 -0.3663 -0.3905  0.7215
  126OSM      P13435   5.284   1.165   6.492 -0.0936  0.1420 -0.5296
  126OSM    O1313436   5.372   1.273   6.446 -0.2147  0.3941 -0.1589
  126OSM    O1413437   5.159   1.147   6.432 -0.1603  0.3217  0.7657
  126OSM    O1113438   5.251   1.190   6.643 -0.5654 -0.0640  0.2901
  126OSM    O1213439   5.372   1.034   6.503 -0.6212 -0.2330  0.0004
  126OSM    C1S13440   5.334   1.257   6.742 -0.6948  0.2336  0.0556
  126OSM    H1S13441   5.340   1.366   6.722  0.3829  0.7414  2.6862
  126OSM    H1T13442   5.433   1.209   6.759 -0.3329 -0.2770 -2.9445
  126OSM     NF13443   5.337   1.320   6.982  0.0970 -0.4773 -0.0345
  126OSM    HNF13444   5.396   1.262   7.037  1.3263 -0.1427 -0.9484
  126OSM    C2S13445   5.259   1.253   6.878  0.4056  0.1366  0.5874
  126OSM    H2S13446   5.165   1.307   6.857 -0.3054 -1.0600  0.6027
  126OSM    C3S13447   5.232   1.102   6.907  0.0243  0.0838  0.2189
  126OSM    H3S13448   5.329   1.049   6.906 -0.2882 -0.4969 -0.1965
  126OSM     O313449   5.146   1.031   6.814 -0.2123 -0.4325  0.2644
  126OSM    HO313450   5.146   1.093   6.741 -0.7449  0.6188  1.1359
  126OSM    C4S13451   5.171   1.086   7.044  0.5389  0.0478 -0.2433
  126OSM    H4S13452   5.263   1.068   7.103 -0.8323  0.3720  2.1380
  126OSM    C5S13453   5.044   1.081   7.092  0.0838 -0.1334  0.5518
  126OSM    H5S13454   4.968   1.090   7.013  1.4179 -0.1835 -0.7680
  126OSM    C6S13455   5.004   1.060   7.236 -0.1041 -0.1568  0.3039
  126OSM    H6S13456   4.952   1.149   7.276 -1.0121 -0.0351 -1.0942
  126OSM    H6T13457   5.091   1.051   7.304  1.9737  0.4891 -2.1168
  126OSM    C7S13458   4.913   0.937   7.254 -0.0317 -0.0586  1.4829
  126OSM    H7S13459   4.973   0.852   7.214  2.0229  1.7610  0.4568
  126OSM    H7T13460   4.828   0.942   7.183  1.9153 -0.2261 -0.9979
  126OSM    C8S13461   4.845   0.929   7.389 -0.4776  0.1653  0.2044
  126OSM    H8S13462   4.762   0.855   7.380 -1.9121  1.6942  0.2413
  126OSM    H8T13463   4.790   1.024   7.408 -0.4893  0.0666  0.6939
  126OSM    C9S13464   4.935   0.897   7.510  0.8146 -0.1060 -0.3098
  126OSM    H9S13465   5.010   0.972   7.543  1.7568 -1.1239 -0.0854
  126OSM    H9T13466   4.984   0.801   7.483  3.7656  0.9092  1.0641
  126OSM   C10S13467   4.841   0.884   7.629  0.4516 -0.0788 -0.1188
  126OSM   H10S13468   4.759   0.815   7.598  2.8612 -1.7126 -3.5843
  126OSM   H10T13469   4.806   0.989   7.643 -0.0413  0.2026 -2.7782
  126OSM   C11S13470   4.907   0.819   7.754  0.5890  0.2007 -0.2716
  126OSM   H11S13471   5.002   0.870   7.782  1.7252 -2.1270  0.3434
  126OSM   H11T13472   4.930   0.710   7.752 -2.7765 -0.7027  1.8128
  126OSM   C12S13473   4.815   0.817   7.873  0.0106  0.0563 -0.3413
  126OSM   H12S13474   4.720   0.771   7.841 -0.1521 -0.9722  1.4461
  126OSM   H12T13475   4.786   0.920   7.901  4.3566  0.6837  2.9516
  126OSM   C13S13476   4.882   0.745   7.995 -0.5123 -1.0109 -0.0828
  126OSM   H13S13477   4.991   0.761   7.976 -0.5002 -0.8941  0.0831
  126OSM   H13T13478   4.879   0.634   7.988 -2.9692 -0.9690 -0.2199
  126OSM   C14S13479   4.842   0.814   8.127 -0.2357  0.3658  0.0586
  126OSM   H14S13480   4.733   0.797   8.140 -0.2068  0.9313  1.1711
  126OSM   H14T13481   4.875   0.920   8.123 -2.4706  1.0890 -1.2872
  126OSM   C15S13482   4.918   0.751   8.242  0.1953  0.4644 -0.5139
  126OSM   H15S13483   5.028   0.754   8.227  0.2942  1.1933  0.2948
  126OSM   H15T13484   4.883   0.648   8.266  1.3973  0.1923  0.1718
  126OSM   C16S13485   4.900   0.831   8.369  0.1349 -0.0211 -0.7028
  126OSM   H16S13486   4.952   0.790   8.458 -1.1388 -0.2822 -0.0622
  126OSM   H16T13487   4.794   0.840   8.400  0.1377 -2.0061 -0.0029
  126OSM   C17S13488   4.964   0.973   8.369 -0.2099  0.2699  0.0948
  126OSM   H17S13489   4.926   1.030   8.282 -0.3158 -2.1753 -1.5638
  126OSM   H17T13490   5.070   0.948   8.349 -1.4782 -5.1407 -1.3989
  126OSM   C18S13491   4.951   1.057   8.501  0.2253  0.1423 -0.4287
  126OSM   H18S13492   4.991   1.158   8.476 -1.4464  0.6712 -1.1193
  126OSM   H18T13493   4.994   1.015   8.594 -2.9498  0.0754  1.1460
  126OSM   H18U13494   4.843   1.057   8.528  0.5998  0.3977  1.1232
  126OSM    C1F13495   5.356   1.456   6.967 -0.1636  0.2651  0.7518
  126OSM     OF13496   5.302   1.518   6.877 -0.4143  0.0552 -0.1795
  126OSM    C2F13497   5.433   1.514   7.076  0.3763 -0.4959 -0.2667
  126OSM    H2F13498   5.540   1.503   7.046  0.4148 -0.0055 -0.3100
  126OSM    H2G13499   5.406   1.459   7.169  1.1910  0.1159  0.3520
  126OSM    C3F13500   5.424   1.665   7.106 -0.2800  0.1279 -0.3365
  126OSM    H3F13501   5.333   1.706   7.056 -0.3569 -0.5167 -0.7402
  126OSM    H3G13502   5.509   1.720   7.062  1.2990 -2.4211 -0.6737
  126OSM    C4F13503   5.422   1.702   7.255  0.2569 -0.0063  0.0403
  126OSM    H4F13504   5.514   1.653   7.294 -0.6951 -0.4635  1.8512
  126OSM    H4G13505   5.332   1.654   7.300  0.2435 -2.8650 -2.7185
  126OSM    C5F13506   5.421   1.855   7.265 -0.4005  0.9249 -0.3534
  126OSM    H5F13507   5.357   1.895   7.184 -0.9352 -0.4692 -0.6387
  126OSM    H5G13508   5.530   1.878   7.253  0.4922 -0.9128  2.9023
  126OSM    C6F13509   5.368   1.905   7.401  0.3689 -0.4000  0.2589
  126OSM    H6F13510   5.430   1.850   7.476 -1.1226 -2.4666  0.0698
  126OSM    H6G13511   5.266   1.862   7.407  1.5060 -3.1772  1.6478
  126OSM    C7F13512   5.361   2.059   7.431 -0.3616  0.5246 -1.0565
  126OSM    H7F13513   5.297   2.073   7.521 -0.2024  1.1954 -1.0386
  126OSM    H7G13514   5.318   2.114   7.345 -1.0393  2.4172  0.4045
  126OSM    C8F13515   5.497   2.133   7.461 -0.3486 -0.8756 -0.2745
  126OSM    H8F13516   5.565   2.117   7.375  0.6970 -0.3588  0.4443
  126OSM    H8G13517   5.540   2.083   7.550 -0.5352  1.0037  0.9312
  126OSM    C9F13518   5.483   2.283   7.488  0.3611 -0.6117 -0.0001
  126OSM    H9F13519   5.411   2.335   7.423 -1.3384 -1.1699  1.3522
  126OSM   C10F13520   5.542   2.352   7.585 -0.5001  0.6280 -0.2575
  126OSM   H10F13521   5.520   2.458   7.601  0.7473  0.8647 -0.0561
  126OSM   C11F13522   5.647   2.303   7.682 -0.0492 -0.4050 -0.5285
  126OSM   H11F13523   5.708   2.392   7.706 -0.2030 -0.5937  0.6336
  126OSM   H11G13524   5.721   2.237   7.630  0.0666  0.3156 -1.3035
  126OSM   C12F13525   5.581   2.234   7.805 -0.2156 -0.0239  0.8841
  126OSM   H12F13526   5.515   2.150   7.775 -1.5248  1.2391  0.0946
  126OSM   H12G13527   5.517   2.301   7.866  0.2494  0.0642  1.2757
  126OSM   C13F13528   5.684   2.167   7.902 -0.1498  0.0981 -0.2106
  126OSM   H13F13529   5.744   2.241   7.958  0.9151  0.5743 -1.9154
  126OSM   H13G13530   5.750   2.108   7.835 -0.2537 -0.9764  0.5918
  126OSM   C14F13531   5.615   2.080   8.008 -0.0147  0.0939 -0.4093
  126OSM   H14F13532   5.569   2.009   7.936 -0.1995  0.0088 -0.2112
  126OSM   H14G13533   5.542   2.147   8.059  0.9494 -0.1617  1.4182
  126OSM   C15F13534   5.708   1.999   8.111 -0.5731 -0.0054 -0.9588
  126OSM   H15F13535   5.627   1.951   8.169  0.4412  0.1866  0.6629
  126OSM   H15G13536   5.747   2.078   8.178 -2.0294 -0.9745  1.1130
  126OSM   C16F13537   5.817   1.911   8.052 -0.2009  0.0636 -0.0714
  126OSM   H16F13538   5.869   1.981   7.982  0.7968  0.9445  1.4961
  126OSM   H16G13539   5.770   1.835   7.985 -2.6041  1.4010  0.0059
  126OSM   C17F13540   5.916   1.833   8.139  0.2301 -0.2949  0.4074
  126OSM   H17F13541   5.978   1.905   8.197 -0.3082 -0.2851  0.9807
  126OSM   H17G13542   5.980   1.783   8.063  0.5164  0.6910 -0.0078
  126OSM   C18F13543   5.858   1.725   8.230  0.3482 -0.1933 -0.0235
  126OSM   H18F13544   5.779   1.665   8.180 -0.4184  1.4556 -0.8416
  126OSM   H18G13545   5.818   1.754   8.330 -0.3343 -1.5070  0.1008
  126OSM   H18H13546   5.931   1.644   8.253  1.2848  0.2393 -1.3729
  127OSM      N13547   5.648   5.281   6.319 -0.8815  0.2329 -0.4829
  127OSM    C1513548   5.631   5.204   6.195 -0.3723  0.1953  0.0452
  127OSM   H15A13549   5.527   5.189   6.170 -0.2779 -0.2581 -0.0967
  127OSM   H15B13550   5.673   5.105   6.203 -0.0186  0.2622 -0.8676
  127OSM   H15C13551   5.688   5.248   6.115 -0.0553  1.5458  0.9833
  127OSM    C1413552   5.587   5.412   6.305 -0.0614 -0.2943  0.3865
  127OSM   H14A13553   5.621   5.455   6.212 -0.5121  0.1055  0.4031
  127OSM   H14B13554   5.622   5.484   6.378  0.3693 -0.8621  0.7496
  127OSM   H14C13555   5.480   5.404   6.297  0.1612 -3.1744 -0.7644
  127OSM    C1313556   5.580   5.200   6.423  0.4989  0.1129 -0.2410
  127OSM   H13A13557   5.612   5.097   6.429  0.2586  0.0267 -0.3892
  127OSM   H13B13558   5.477   5.178   6.398  0.3053 -1.5924  1.7722
  127OSM   H13C13559   5.582   5.244   6.521 -1.2253  1.1618 -0.6320
  127OSM    C1213560   5.797   5.305   6.352 -0.3360  0.4665  0.7745
  127OSM   H12A13561   5.835   5.361   6.268  1.1697  0.1545  1.2072
  127OSM   H12B13562   5.852   5.212   6.345  1.7041  1.7457 -2.2578
  127OSM    C1113563   5.831   5.383   6.483 -0.0561  0.4888  0.0555
  127OSM   H11A13564   5.942   5.384   6.493  0.1294 -0.7207 -1.5774
  127OSM   H11B13565   5.777   5.332   6.566 -2.2890  2.4106 -0.0901
  127OSM      P13566   5.855   5.631   6.414 -0.3685 -0.0239 -0.1149
  127OSM    O1313567   5.967   5.578   6.340  0.3102  0.1590 -0.3748
  127OSM    O1413568   5.764   5.721   6.333 -0.5216  0.2829  0.0686
  127OSM    O1113569   5.904   5.720   6.533  0.0029  0.0328 -0.3599
  127OSM    O1213570   5.772   5.518   6.486  0.4932  0.0421  0.5856
  127OSM    C1S13571   5.815   5.751   6.636 -0.1837  0.1698 -1.2709
  127OSM    H1S13572   5.709   5.727   6.614 -0.8752 -0.4847  2.2810
  127OSM    H1T13573   5.825   5.860   6.655  0.1086  0.0554 -0.7687
  127OSM     NF13574   5.777   5.736   6.884 -0.3165  0.1219 -0.2705
  127OSM    HNF13575   5.820   5.807   6.938  0.4021  0.7827 -1.6606
  127OSM    C2S13576   5.858   5.686   6.771 -0.8010 -0.1431  0.9574
  127OSM    H2S13577   5.830   5.580   6.753 -0.6883  0.0306 -0.3901
  127OSM    C3S13578   6.012   5.698   6.806 -0.2191 -0.6077  0.2900
  127OSM    H3S13579   6.042   5.805   6.816 -1.1106 -0.4152  1.0651
  127OSM     O313580   6.100   5.651   6.706 -0.2158  0.1810  0.0386
  127OSM    HO313581   6.049   5.657   6.625  1.4819  1.3381 -0.9934
  127OSM    C4S13582   6.046   5.628   6.932 -0.4017  0.3880  0.0745
  127OSM    H4S13583   6.067   5.700   7.012 -2.0643 -0.0382  0.9505
  127OSM    C5S13584   6.057   5.498   6.956  0.9671  1.1468 -0.3019
  127OSM    H5S13585   6.025   5.436   6.871 -3.4850  2.4039  0.1743
  127OSM    C6S13586   6.099   5.429   7.086  0.5529 -0.6105  0.9847
  127OSM    H6S13587   6.194   5.372   7.074  0.6396 -0.2342 -0.3673
  127OSM    H6T13588   6.024   5.353   7.116 -1.0975  0.1942 -0.8727
  127OSM    C7S13589   6.113   5.517   7.213  0.5232 -0.5013  0.4266
  127OSM    H7S13590   6.029   5.587   7.230  0.5483 -1.1010  3.8025
  127OSM    H7T13591   6.202   5.582   7.201 -1.4887  2.4226  0.4373
  127OSM    C8S13592   6.133   5.437   7.348 -0.1773 -0.3915  0.0016
  127OSM    H8S13593   6.211   5.363   7.318 -0.2828 -0.5153  0.0334
  127OSM    H8T13594   6.044   5.375   7.368  1.9989 -3.0838  2.1069
  127OSM    C9S13595   6.163   5.519   7.471  0.1980  0.9222 -0.0944
  127OSM    H9S13596   6.074   5.579   7.500  0.5512  1.6079 -0.4058
  127OSM    H9T13597   6.248   5.582   7.437  0.3352 -0.4244 -2.4206
  127OSM   C10S13598   6.202   5.445   7.596  0.6642 -0.2394 -0.6310
  127OSM   H10S13599   6.282   5.373   7.570  0.5294  0.0848 -2.0343
  127OSM   H10T13600   6.108   5.396   7.630 -0.2328  0.7787 -1.5673
  127OSM   C11S13601   6.253   5.527   7.712 -0.3109 -0.3458 -0.3327
  127OSM   H11S13602   6.181   5.603   7.748 -0.2779  0.1118 -1.1926
  127OSM   H11T13603   6.352   5.567   7.681  1.0558 -2.1946  1.3431
  127OSM   C12S13604   6.316   5.448   7.827 -0.0663  0.0450 -0.3717
  127OSM   H12S13605   6.376   5.365   7.784  0.9867  1.0701 -0.9205
  127OSM   H12T13606   6.235   5.393   7.880  1.9178 -0.8286  1.9279
  127OSM   C13S13607   6.407   5.527   7.923  0.8227 -0.2312 -0.4882
  127OSM   H13S13608   6.343   5.606   7.967 -0.0980 -1.8583  1.2706
  127OSM   H13T13609   6.494   5.567   7.867  2.2931 -3.6145 -0.8487
  127OSM   C14S13610   6.471   5.443   8.032 -0.2097 -0.0521  0.3243
  127OSM   H14S13611   6.563   5.405   7.983  0.5965  0.8433  1.0924
  127OSM   H14T13612   6.410   5.360   8.074  0.9120 -0.4374  1.2536
  127OSM   C15S13613   6.513   5.528   8.150  0.7385 -0.2936 -0.5019
  127OSM   H15S13614   6.420   5.575   8.188 -0.0130  0.6482 -3.2572
  127OSM   H15T13615   6.577   5.610   8.112  1.1104  0.8042  2.2542
  127OSM   C16S13616   6.585   5.449   8.261 -0.5228 -0.1533 -1.1842
  127OSM   H16S13617   6.685   5.413   8.229 -0.1500 -0.5944  0.3767
  127OSM   H16T13618   6.537   5.354   8.291 -0.3654 -0.8592 -3.0640
  127OSM   C17S13619   6.617   5.530   8.393 -0.3842  0.4239 -0.5523
  127OSM   H17S13620   6.521   5.563   8.438 -0.8491  0.8977 -1.8395
  127OSM   H17T13621   6.682   5.614   8.361  1.5721 -0.7201  0.2053
  127OSM   C18S13622   6.696   5.455   8.498 -0.5241 -0.2020  0.1017
  127OSM   H18S13623   6.793   5.419   8.460  1.7148  1.8446  3.3846
  127OSM   H18T13624   6.657   5.362   8.545  0.8273 -0.0456  1.6348
  127OSM   H18U13625   6.722   5.523   8.582  0.3053 -0.0374 -0.2796
  127OSM    C1F13626   5.654   5.697   6.909  1.0115 -0.4821 -0.5700
  127OSM     OF13627   5.596   5.616   6.840  0.0612 -0.0288 -0.0524
  127OSM    C2F13628   5.588   5.771   7.023 -0.0165  0.2626  0.0639
  127OSM    H2F13629   5.549   5.873   7.002  1.0538  1.0922  1.8009
  127OSM    H2G13630   5.666   5.789   7.100  0.7276 -1.4935 -0.2330
  127OSM    C3F13631   5.476   5.692   7.090  0.3264  0.1893  0.0457
  127OSM    H3F13632   5.481   5.581   7.083 -0.7920 -0.1978  3.6101
  127OSM    H3G13633   5.379   5.720   7.045  0.1790 -0.3395  0.0270
  127OSM    C4F13634   5.455   5.725   7.238 -0.0448  0.3996 -0.7015
  127OSM    H4F13635   5.546   5.697   7.295 -0.8707  0.3793  0.6507
  127OSM    H4G13636   5.385   5.654   7.286  1.1406 -0.0584  0.3935
  127OSM    C5F13637   5.430   5.872   7.268  0.0136 -0.2774 -0.3075
  127OSM    H5F13638   5.338   5.916   7.224 -0.1719 -0.7875 -0.4365
  127OSM    H5G13639   5.515   5.934   7.233 -0.5015 -1.2122 -3.4894
  127OSM    C6F13640   5.439   5.897   7.422  0.8034  0.2660  0.2511
  127OSM    H6F13641   5.545   5.870   7.443  0.7419  1.5905  2.6570
  127OSM    H6G13642   5.379   5.837   7.494  0.1874  0.7578  0.1514
  127OSM    C7F13643   5.409   6.054   7.457  0.1375  0.8837  0.4163
  127OSM    H7F13644   5.310   6.081   7.414  0.7986  2.9189  0.0734
  127OSM    H7G13645   5.485   6.102   7.393  2.5974 -1.8700  1.0590
  127OSM    C8F13646   5.425   6.091   7.607  0.1714 -0.4811  0.5064
  127OSM    H8F13647   5.423   6.202   7.601 -2.5951 -0.4667  0.6867
  127OSM    H8G13648   5.522   6.053   7.646  1.3562  0.7153 -1.1204
  127OSM    C9F13649   5.313   6.033   7.688  0.4514 -0.6893  0.4918
  127OSM    H9F13650   5.226   6.000   7.630 -0.3891 -1.6576  2.2236
  127OSM   C10F13651   5.315   6.023   7.824  0.2091  0.2052 -0.8420
  127OSM   H10F13652   5.240   5.960   7.873 -0.4933  0.8594 -1.0603
  127OSM   C11F13653   5.425   6.079   7.909 -0.5338  0.4950 -0.0183
  127OSM   H11F13654   5.388   6.165   7.968  1.3073  1.5946 -0.3959
  127OSM   H11G13655   5.517   6.102   7.851 -0.4193 -1.3467 -0.6348
  127OSM   C12F13656   5.464   5.970   8.014  0.4969  0.0436 -0.5159
  127OSM   H12F13657   5.522   5.887   7.970  1.5325  0.4732  0.0033
  127OSM   H12G13658   5.375   5.920   8.058  0.0176  1.3482  0.0656
  127OSM   C13F13659   5.557   6.036   8.121  0.5084  0.8255 -0.5292
  127OSM   H13F13660   5.508   6.128   8.160 -0.1584 -0.6100  2.2187
  127OSM   H13G13661   5.643   6.080   8.066 -0.2482  0.7188 -1.8429
  127OSM   C14F13662   5.607   5.945   8.231  0.0662  0.9840  0.6216
  127OSM   H14F13663   5.672   5.865   8.189 -1.4227 -0.1363  0.3415
  127OSM   H14G13664   5.521   5.906   8.290  0.0771  0.8903  0.5763
  127OSM   C15F13665   5.689   6.027   8.328 -0.0286  0.1174  1.3460
  127OSM   H15F13666   5.617   6.085   8.391 -1.0012 -0.1741  0.5316
  127OSM   H15G13667   5.753   6.101   8.276  0.3553 -1.1599 -0.0576
  127OSM   C16F13668   5.781   5.937   8.405  0.6256  0.3127  0.2689
  127OSM   H16F13669   5.845   5.876   8.337 -0.3481  0.1170 -0.4921
  127OSM   H16G13670   5.717   5.866   8.462 -1.4917  0.5606 -1.6519
  127OSM   C17F13671   5.867   6.020   8.508  0.1564 -0.3238  0.6645
  127OSM   H17F13672   5.947   6.053   8.437 -0.8748  0.0043 -0.3757
  127OSM   H17G13673   5.908   5.953   8.587  1.9252 -0.7605 -0.5495
  127OSM   C18F13674   5.808   6.149   8.572 -0.2476 -0.4709  0.4330
  127OSM   H18F13675   5.777   6.221   8.494 -1.8260 -0.9453  0.5826
  127OSM   H18G13676   5.882   6.189   8.644  0.0533 -0.6243  0.2100
  127OSM   H18H13677   5.723   6.131   8.641 -0.2718 -0.1192  0.4937
  128OSM      N13678   1.654   1.952   5.855 -0.4707  0.4887 -0.5818
  128OSM    C1513679   1.638   1.915   5.708  0.0648 -0.5118 -0.5013
  128OSM   H15A13680   1.719   1.864   5.659 -0.3197 -0.8649 -0.7703
  128OSM   H15B13681   1.603   1.993   5.642 -1.8643  0.2840  1.3204
  128OSM   H15C13682   1.558   1.843   5.699  0.7983 -1.1150 -2.7076
  128OSM    C1413683   1.766   2.048   5.884 -0.1944 -0.5748 -0.1084
  128OSM   H14A13684   1.752   2.132   5.817 -0.8883 -0.8809 -0.3549
  128OSM   H14B13685   1.859   2.009   5.847  0.7910  2.3033 -0.9824
  128OSM   H14C13686   1.786   2.078   5.986  2.0688 -1.0705 -0.3592
  128OSM    C1313687   1.525   2.013   5.906  0.1133  0.1479 -0.4832
  128OSM   H13A13688   1.523   2.118   5.881  1.4833 -0.0521 -1.5221
  128OSM   H13B13689   1.519   1.995   6.013 -0.2330  2.0377 -0.1481
  128OSM   H13C13690   1.444   1.961   5.857 -0.1888  1.0583 -0.9593
  128OSM    C1213691   1.676   1.827   5.932 -0.2724  0.3856 -0.1235
  128OSM   H12A13692   1.763   1.778   5.890  1.7781  2.3416  1.5947
  128OSM   H12B13693   1.599   1.754   5.912  0.9790 -0.5187 -1.9254
  128OSM    C1113694   1.710   1.831   6.086 -0.2418  0.0332  0.0061
  128OSM   H11A13695   1.804   1.889   6.088  0.1564 -0.6117  0.2902
  128OSM   H11B13696   1.735   1.723   6.083 -0.4934 -0.0604 -3.5162
  128OSM      P13697   1.479   1.792   6.207  0.0004  0.0751  0.6533
  128OSM    O1313698   1.375   1.886   6.255  0.0617 -0.0659 -0.3633
  128OSM    O1413699   1.439   1.705   6.099 -0.0277 -0.2716  0.6059
  128OSM    O1113700   1.534   1.705   6.333  0.0361 -0.5365 -0.8907
  128OSM    O1213701   1.608   1.883   6.171 -0.0057 -0.1055  0.4962
  128OSM    C1S13702   1.626   1.759   6.432  0.6864  0.3114 -0.1034
  128OSM    H1S13703   1.682   1.840   6.381 -2.5926  1.9941 -1.2961
  128OSM    H1T13704   1.697   1.678   6.461  0.1511 -1.9762 -4.4280
  128OSM     NF13705   1.653   1.898   6.639  0.2247  0.1495  0.1776
  128OSM    HNF13706   1.671   1.864   6.732 -1.1534 -0.1570  0.3475
  128OSM    C2S13707   1.557   1.828   6.557 -0.0789  0.4515 -0.0338
  128OSM    H2S13708   1.492   1.905   6.510 -1.3118  0.6467  1.8668
  128OSM    C3S13709   1.470   1.724   6.635  0.1402  0.2383  0.1746
  128OSM    H3S13710   1.534   1.635   6.657  1.1690  0.5884 -1.2747
  128OSM     O313711   1.367   1.654   6.558  0.2038  0.0667 -0.3118
  128OSM    HO313712   1.372   1.692   6.470  2.1138 -0.5640 -0.5079
  128OSM    C4S13713   1.409   1.789   6.758 -0.0452 -0.6364  0.2787
  128OSM    H4S13714   1.483   1.838   6.823  1.2440  0.4512 -1.8743
  128OSM    C5S13715   1.279   1.814   6.786 -0.0472  0.0186  0.4703
  128OSM    H5S13716   1.200   1.760   6.732  1.1060 -0.2726 -0.9899
  128OSM    C6S13717   1.233   1.892   6.908 -0.0338  0.0808  0.1215
  128OSM    H6S13718   1.163   1.821   6.956  0.5526 -0.8622 -0.3683
  128OSM    H6T13719   1.179   1.981   6.869  0.6220  0.4509  0.0408
  128OSM    C7S13720   1.336   1.968   6.990 -0.1394 -0.3361 -1.1658
  128OSM    H7S13721   1.383   2.041   6.921  0.0514 -0.0958 -0.7819
  128OSM    H7T13722   1.411   1.899   7.034 -0.4055 -0.7963 -1.4233
  128OSM    C8S13723   1.274   2.061   7.106  0.0777  0.3913  0.4871
  128OSM    H8S13724   1.180   2.013   7.140  0.3955 -0.9357 -0.3981
  128OSM    H8T13725   1.227   2.150   7.059 -0.7083  1.3376  2.9484
  128OSM    C9S13726   1.362   2.096   7.225 -0.0951 -0.4000 -0.7661
  128OSM    H9S13727   1.437   2.171   7.193 -0.7441  0.0732 -1.1996
  128OSM    H9T13728   1.401   1.997   7.257 -1.8358  0.0797  3.5926
  128OSM   C10S13729   1.272   2.148   7.342 -0.5745 -0.2991 -0.3424
  128OSM   H10S13730   1.204   2.062   7.362 -0.2161 -0.8720 -1.4807
  128OSM   H10T13731   1.212   2.237   7.315  1.3557  1.0752 -0.3229
  128OSM   C11S13732   1.355   2.175   7.471 -0.0265 -0.1425  0.8444
  128OSM   H11S13733   1.287   2.205   7.554 -1.3577  1.1173 -0.6146
  128OSM   H11T13734   1.431   2.254   7.457  1.2028 -1.3647  0.4788
  128OSM   C12S13735   1.415   2.050   7.533  0.4069 -0.4893  0.5260
  128OSM   H12S13736   1.474   1.986   7.464  1.1118  0.9585 -0.2631
  128OSM   H12T13737   1.330   1.982   7.557 -0.0805 -0.5647 -1.2563
  128OSM   C13S13738   1.504   2.083   7.652 -0.5762 -0.1890 -0.2141
  128OSM   H13S13739   1.442   2.142   7.723  0.1790  0.2522  0.0937
  128OSM   H13T13740   1.576   2.161   7.619 -0.6138 -0.4888 -1.0253
  128OSM   C14S13741   1.583   1.964   7.720  0.1467 -0.4328 -0.0125
  128OSM   H14S13742   1.674   2.007   7.767  1.9081 -2.4604 -1.4283
  128OSM   H14T13743   1.616   1.900   7.636  0.1972 -1.6674  0.9274
  128OSM   C15S13744   1.508   1.887   7.830  0.3394  0.3349 -0.0092
  128OSM   H15S13745   1.457   1.805   7.775 -1.1388 -1.0829  3.2403
  128OSM   H15T13746   1.427   1.952   7.868  0.5761  0.7272 -0.1633
  128OSM   C16S13747   1.603   1.842   7.941  0.1620  0.3113  0.2101
  128OSM   H16S13748   1.647   1.925   8.001  0.9052  0.3252 -0.3338
  128OSM   H16T13749   1.683   1.790   7.884  0.0351 -1.3103  1.4599
  128OSM   C17S13750   1.531   1.754   8.039  1.0235  0.0201 -0.2784
  128OSM   H17S13751   1.459   1.693   7.980  0.6446  0.1100  0.0916
  128OSM   H17T13752   1.477   1.815   8.114  1.5788  0.5286 -0.2784
  128OSM   C18S13753   1.621   1.651   8.109  0.4794 -0.0173 -0.1089
  128OSM   H18S13754   1.563   1.572   8.161  0.9118  0.4877  1.1582
  128OSM   H18T13755   1.679   1.705   8.187 -0.9104 -0.8671  1.5861
  128OSM   H18U13756   1.672   1.589   8.033  0.4443 -2.4585  1.7685
  128OSM    C1F13757   1.721   2.001   6.589 -0.0012 -0.2124 -0.6719
  128OSM     OF13758   1.687   2.059   6.486  0.3744 -0.5709  0.2936
  128OSM    C2F13759   1.841   2.057   6.668  0.4246 -0.0933  0.1055
  128OSM    H2F13760   1.916   2.063   6.586 -1.5076  1.8160 -1.6539
  128OSM    H2G13761   1.860   1.991   6.755  2.6607  3.0299  2.2357
  128OSM    C3F13762   1.810   2.202   6.713 -0.5171  0.0639  0.2443
  128OSM    H3F13763   1.781   2.266   6.627 -2.4852  1.4150  1.8092
  128OSM    H3G13764   1.911   2.240   6.739 -0.4412 -0.0246  0.0800
  128OSM    C4F13765   1.705   2.222   6.826  0.1013 -0.2323  0.0764
  128OSM    H4F13766   1.613   2.207   6.767  1.9932  0.1246 -3.1982
  128OSM    H4G13767   1.722   2.328   6.855  0.3910 -1.4321  5.3075
  128OSM    C5F13768   1.710   2.135   6.953  0.1872  0.0729 -0.1215
  128OSM    H5F13769   1.697   2.027   6.930 -3.5472  0.3190  0.1449
  128OSM    H5G13770   1.621   2.151   7.018 -0.1446  1.0844 -0.8003
  128OSM    C6F13771   1.830   2.168   7.049 -0.1274 -0.5547 -0.2750
  128OSM    H6F13772   1.853   2.276   7.034  1.0784 -0.8866 -0.9166
  128OSM    H6G13773   1.908   2.102   7.006 -1.0798  0.4675 -3.9400
  128OSM    C7F13774   1.809   2.151   7.199  0.1669 -0.0491 -0.3762
  128OSM    H7F13775   1.833   2.045   7.221  1.6639 -0.2349 -2.6061
  128OSM    H7G13776   1.702   2.150   7.230  0.3207 -3.7036  0.5808
  128OSM    C8F13777   1.911   2.225   7.290  0.7196  0.8319 -0.0159
  128OSM    H8F13778   1.857   2.238   7.386  0.0954  0.9816 -0.3842
  128OSM    H8G13779   1.929   2.323   7.241 -0.3444  0.2382 -1.6896
  128OSM    C9F13780   2.044   2.163   7.301  0.4083  0.2326 -0.3691
  128OSM    H9F13781   2.110   2.173   7.214  1.1976  1.4894  0.3421
  128OSM   C10F13782   2.079   2.097   7.416 -0.3035  0.1264 -1.1366
  128OSM   H10F13783   2.176   2.046   7.419 -1.3658 -2.5761 -4.7607
  128OSM   C11F13784   1.992   2.079   7.534  0.2925 -0.4089 -0.6548
  128OSM   H11F13785   2.005   1.986   7.593 -0.5771 -0.1955 -0.0946
  128OSM   H11G13786   1.884   2.073   7.504 -0.1658 -1.9269  1.1151
  128OSM   C12F13787   2.020   2.187   7.644  0.0856  0.4538  0.2077
  128OSM   H12F13788   2.128   2.185   7.667 -0.5377  1.6596  3.8768
  128OSM   H12G13789   1.964   2.146   7.731  0.4043 -0.4140  0.0215
  128OSM   C13F13790   1.962   2.324   7.618 -0.1672 -0.4686  0.0507
  128OSM   H13F13791   1.852   2.320   7.626 -0.1312 -3.4313  0.1070
  128OSM   H13G13792   1.984   2.349   7.511  0.3246 -1.3309 -0.0623
  128OSM   C14F13793   2.014   2.430   7.722  0.2877  0.0968 -0.5329
  128OSM   H14F13794   1.972   2.523   7.678 -3.5910 -1.7499 -1.1828
  128OSM   H14G13795   2.125   2.430   7.722  0.3705  3.1609 -0.2739
  128OSM   C15F13796   1.959   2.419   7.862  0.6090 -0.7810 -0.0856
  128OSM   H15F13797   2.001   2.329   7.913  0.8507 -0.9351 -0.5494
  128OSM   H15G13798   1.849   2.410   7.870  0.1656  2.3408 -1.4110
  128OSM   C16F13799   1.990   2.547   7.949  0.1758 -0.1864  0.2382
  128OSM   H16F13800   1.916   2.628   7.932  0.3773 -0.1917 -0.7726
  128OSM   H16G13801   2.088   2.592   7.922 -0.5548  1.8339  0.7697
  128OSM   C17F13802   1.987   2.529   8.100 -0.3902 -0.2935  0.0042
  128OSM   H17F13803   2.066   2.455   8.124 -0.0553 -0.1006 -0.4949
  128OSM   H17G13804   1.885   2.489   8.118 -0.3899  0.4632  1.9034
  128OSM   C18F13805   2.011   2.656   8.174  0.0421  0.5222  0.5432
  128OSM   H18F13806   1.919   2.719   8.171  0.1617  0.7057  0.7123
  128OSM   H18G13807   2.098   2.710   8.130  0.6416 -0.1677  0.8709
  128OSM   H18H13808   2.034   2.637   8.281 -0.6215  0.1769  0.6285
  129OSM      N13809   4.736   5.217   6.301 -0.0906 -0.5144 -0.8381
  129OSM    C1513810   4.785   5.121   6.196 -0.0805 -0.1830 -0.2174
  129OSM   H15A13811   4.874   5.163   6.152 -1.2799  0.3411 -2.2981
  129OSM   H15B13812   4.714   5.099   6.117 -0.3646  1.0440 -0.3248
  129OSM   H15C13813   4.815   5.030   6.245 -1.7585  0.1456  1.5580
  129OSM    C1413814   4.709   5.354   6.238  0.1923 -0.0593 -0.6943
  129OSM   H14A13815   4.700   5.435   6.309  1.5438 -1.5174  1.2613
  129OSM   H14B13816   4.621   5.359   6.177 -1.4743  1.4566  1.6784
  129OSM   H14C13817   4.790   5.382   6.173  1.5244 -1.1214  0.4206
  129OSM    C1313818   4.607   5.164   6.355 -0.4327  0.1682 -0.0290
  129OSM   H13A13819   4.610   5.073   6.414 -0.1557  1.0090  1.3098
  129OSM   H13B13820   4.543   5.144   6.270 -1.1368 -0.9632  0.7316
  129OSM   H13C13821   4.560   5.241   6.416  0.0957  0.9233 -0.5635
  129OSM    C1213822   4.834   5.228   6.418  0.1112  0.2386 -0.7348
  129OSM   H12A13823   4.837   5.133   6.469  1.0104  0.2811 -0.6922
  129OSM   H12B13824   4.782   5.298   6.483  2.2883  1.1706  0.1271
  129OSM    C1113825   4.977   5.277   6.386 -0.0415  0.0354  0.3991
  129OSM   H11A13826   5.027   5.304   6.481  2.1335 -1.0919 -0.3624
  129OSM   H11B13827   4.953   5.370   6.332 -0.6707 -0.2447  0.1895
  129OSM      P13828   5.202   5.179   6.295  0.2467 -0.0940 -0.2655
  129OSM    O1313829   5.240   5.059   6.220  0.1738  0.5215 -0.2658
  129OSM    O1413830   5.247   5.300   6.231 -0.0507  0.0414 -0.5972
  129OSM    O1113831   5.260   5.165   6.446  0.3984  0.5152 -0.3686
  129OSM    O1213832   5.046   5.168   6.316 -0.3952  0.2916 -0.5124
  129OSM    C1S13833   5.222   5.057   6.527  0.0407  0.4061  0.3444
  129OSM    H1S13834   5.286   4.972   6.494  2.5272  2.6161 -0.9182
  129OSM    H1T13835   5.115   5.030   6.518 -0.8934  4.2020 -2.4666
  129OSM     NF13836   5.259   4.931   6.735  0.0478 -0.0182  0.1881
  129OSM    HNF13837   5.183   4.923   6.798  0.2072  1.0260  0.5308
  129OSM    C2S13838   5.273   5.065   6.674  0.5900  0.8360  0.6028
  129OSM    H2S13839   5.381   5.089   6.677  0.8336 -0.3398  2.2546
  129OSM    C3S13840   5.195   5.188   6.745 -0.2577  0.1700 -0.1252
  129OSM    H3S13841   5.088   5.158   6.739 -0.9179  2.2342  0.5188
  129OSM     O313842   5.201   5.315   6.683 -0.1537  0.6159  0.4552
  129OSM    HO313843   5.242   5.289   6.601  1.1224  2.5681  0.4074
  129OSM    C4S13844   5.224   5.200   6.892 -0.3174  0.0195  0.5788
  129OSM    H4S13845   5.162   5.134   6.954  0.9873 -0.4613  1.4226
  129OSM    C5S13846   5.315   5.283   6.955 -0.1539 -0.5575 -0.1377
  129OSM    H5S13847   5.367   5.354   6.889 -1.6860  0.9559  0.2264
  129OSM    C6S13848   5.331   5.316   7.100 -0.1516 -0.3527  0.0643
  129OSM    H6S13849   5.301   5.422   7.119  1.4092 -0.2458  2.2890
  129OSM    H6T13850   5.440   5.317   7.121 -0.6115 -0.7535  2.8454
  129OSM    C7S13851   5.254   5.242   7.208  0.4381 -0.4823  0.0894
  129OSM    H7S13852   5.283   5.135   7.210  1.2028 -0.2687  1.7833
  129OSM    H7T13853   5.145   5.229   7.186  0.7195 -3.8865  0.2644
  129OSM    C8S13854   5.259   5.301   7.348 -0.3375  0.0210 -1.0397
  129OSM    H8S13855   5.212   5.401   7.348  1.2992  0.8390  0.1314
  129OSM    H8T13856   5.364   5.315   7.382 -0.2245  1.4664 -1.9115
  129OSM    C9S13857   5.192   5.206   7.444  0.7590  0.0056  0.2952
  129OSM    H9S13858   5.230   5.104   7.422 -0.9542 -0.4682 -0.6214
  129OSM    H9T13859   5.082   5.207   7.430  0.4736 -0.0767  2.2975
  129OSM   C10S13860   5.235   5.239   7.589  0.1273  0.0564  0.5527
  129OSM   H10S13861   5.201   5.344   7.598 -0.4384 -0.2366  1.9376
  129OSM   H10T13862   5.346   5.238   7.597  0.2089  2.5579  0.3776
  129OSM   C11S13863   5.192   5.135   7.691 -0.3886 -0.1165 -0.8885
  129OSM   H11S13864   5.243   5.040   7.666  0.4307  0.0482  0.1025
  129OSM   H11T13865   5.081   5.132   7.686 -0.3649 -0.9075 -1.0454
  129OSM   C12S13866   5.236   5.170   7.835 -0.5456 -1.1892  0.0708
  129OSM   H12S13867   5.216   5.271   7.877 -1.1329 -0.4277 -1.9113
  129OSM   H12T13868   5.346   5.152   7.830 -0.5434 -1.0919 -0.2666
  129OSM   C13S13869   5.166   5.077   7.927  0.0678  0.2833  0.6921
  129OSM   H13S13870   5.187   4.976   7.886  0.6339  0.8006 -0.3248
  129OSM   H13T13871   5.058   5.099   7.910  0.1966  0.5223  0.1617
  129OSM   C14S13872   5.214   5.087   8.074  0.4720  0.1764 -0.3893
  129OSM   H14S13873   5.214   5.193   8.107 -0.2325 -0.1549  0.7279
  129OSM   H14T13874   5.318   5.047   8.070 -0.5369 -2.5591 -2.4143
  129OSM   C15S13875   5.133   4.990   8.162 -0.0121  0.5324 -0.0272
  129OSM   H15S13876   5.107   4.902   8.099 -0.3537  2.0513 -2.1451
  129OSM   H15T13877   5.039   5.045   8.182  0.8788  1.9466  0.4137
  129OSM   C16S13878   5.203   4.944   8.287 -0.2339 -0.0682  0.1507
  129OSM   H16S13879   5.204   5.034   8.352 -2.7821 -0.0515  0.2441
  129OSM   H16T13880   5.312   4.921   8.279 -0.5628 -2.1219  0.9856
  129OSM   C17S13881   5.131   4.828   8.354 -0.0258 -0.2407  0.1362
  129OSM   H17S13882   5.196   4.807   8.442  0.4791 -0.1217 -0.2026
  129OSM   H17T13883   5.138   4.730   8.302 -0.1797 -1.6062  2.5280
  129OSM   C18S13884   4.983   4.849   8.405  0.6250  0.8355 -0.3410
  129OSM   H18S13885   4.967   4.944   8.460  0.3143 -0.3476  1.6780
  129OSM   H18T13886   4.951   4.764   8.468 -0.6441  0.6079 -1.2463
  129OSM   H18U13887   4.922   4.842   8.312 -2.3014 -3.9089  1.5351
  129OSM    C1F13888   5.344   4.835   6.711  0.2511 -0.9076  0.3506
  129OSM     OF13889   5.444   4.856   6.650 -0.0047  0.2574 -0.2095
  129OSM    C2F13890   5.324   4.694   6.758 -0.6479 -0.0413 -0.9183
  129OSM    H2F13891   5.329   4.631   6.666  0.5648 -0.6128 -0.4909
  129OSM    H2G13892   5.219   4.687   6.794 -0.5752  1.1925 -0.3975
  129OSM    C3F13893   5.427   4.646   6.866 -0.7300 -0.3411  0.1737
  129OSM    H3F13894   5.525   4.684   6.830 -1.8277  0.8701 -1.7086
  129OSM    H3G13895   5.418   4.535   6.872 -0.9249 -0.2998  0.6621
  129OSM    C4F13896   5.386   4.708   6.996 -0.0821  0.1147  0.2138
  129OSM    H4F13897   5.293   4.660   7.034  0.4800 -1.0661  0.1475
  129OSM    H4G13898   5.372   4.818   6.986 -0.1042  0.0944  0.0067
  129OSM    C5F13899   5.492   4.675   7.108 -0.0925 -0.7006  0.7138
  129OSM    H5F13900   5.584   4.731   7.080 -1.9007  1.5381 -1.1646
  129OSM    H5G13901   5.506   4.565   7.100 -0.3113 -0.6223 -1.4940
  129OSM    C6F13902   5.449   4.729   7.248 -0.8343 -0.8479 -0.4072
  129OSM    H6F13903   5.348   4.689   7.268  0.0485 -2.2545  1.4991
  129OSM    H6G13904   5.442   4.839   7.237  1.0551 -0.6179  0.3529
  129OSM    C7F13905   5.551   4.685   7.357 -0.0453 -0.2583 -0.0895
  129OSM    H7F13906   5.646   4.734   7.327 -0.4998  0.5838 -0.1853
  129OSM    H7G13907   5.559   4.574   7.354 -1.7011 -0.4194  0.1578
  129OSM    C8F13908   5.507   4.728   7.501 -0.0217 -0.3691 -0.6721
  129OSM    H8F13909   5.474   4.834   7.505  0.1894 -0.3468  1.5968
  129OSM    H8G13910   5.592   4.717   7.571 -1.5564 -1.3916  1.1011
  129OSM    C9F13911   5.387   4.636   7.541 -0.0476 -0.0227  0.5746
  129OSM    H9F13912   5.309   4.620   7.465  0.8316  1.0529 -0.5966
  129OSM   C10F13913   5.372   4.586   7.667  0.1941 -0.0956  0.6277
  129OSM   H10F13914   5.275   4.536   7.685  0.8180 -0.9213  1.8039
  129OSM   C11F13915   5.464   4.602   7.784  0.6325 -0.7190 -0.6058
  129OSM   H11F13916   5.568   4.603   7.744  0.6090 -2.6705 -0.8055
  129OSM   H11G13917   5.466   4.505   7.838  0.2544 -0.8564 -0.8376
  129OSM   C12F13918   5.419   4.721   7.871  0.6212  0.0286 -0.0526
  129OSM   H12F13919   5.312   4.715   7.902  0.6837  0.1921  0.1925
  129OSM   H12G13920   5.428   4.813   7.811  3.6736  1.0172  1.7370
  129OSM   C13F13921   5.493   4.733   7.998 -0.8152 -0.1387  0.2382
  129OSM   H13F13922   5.459   4.817   8.063 -0.8290  0.0040  0.0486
  129OSM   H13G13923   5.592   4.771   7.963 -1.3744  2.0263  0.8266
  129OSM   C14F13924   5.516   4.605   8.085  0.1958  0.1384  0.5213
  129OSM   H14F13925   5.532   4.518   8.017  1.7078  1.4917 -0.9404
  129OSM   H14G13926   5.421   4.586   8.139 -0.2058  0.3183 -0.1131
  129OSM   C15F13927   5.637   4.616   8.172  0.2776 -0.2975 -0.1998
  129OSM   H15F13928   5.721   4.651   8.109 -0.8899  2.1131 -0.5218
  129OSM   H15G13929   5.658   4.513   8.209 -2.7220 -1.6280 -1.7689
  129OSM   C16F13930   5.625   4.717   8.288 -0.2069 -0.3646  0.0785
  129OSM   H16F13931   5.608   4.818   8.246  0.8101  0.1870  0.9568
  129OSM   H16G13932   5.722   4.741   8.337  1.0685 -0.8330 -2.0900
  129OSM   C17F13933   5.514   4.691   8.398 -0.0245 -0.3362  0.3487
  129OSM   H17F13934   5.519   4.590   8.443 -1.4565 -1.3880 -1.6665
  129OSM   H17G13935   5.415   4.703   8.349  0.3400  0.7023 -0.1848
  129OSM   C18F13936   5.539   4.779   8.517  0.2915 -0.3631  0.3530
  129OSM   H18F13937   5.502   4.883   8.499 -0.2414 -0.5703  0.2373
  129OSM   H18G13938   5.645   4.780   8.548  0.0662  1.8486  1.3379
  129OSM   H18H13939   5.460   4.762   8.594 -0.3153  1.4110  0.1732
  130OSM      N13940   3.243   1.236   5.977 -0.0047  0.0937 -0.3616
  130OSM    C1513941   3.310   1.104   5.940 -0.2595  0.1176 -0.1361
  130OSM   H15A13942   3.273   1.011   5.979  2.6762  0.0404  2.9367
  130OSM   H15B13943   3.404   1.107   5.994 -0.8364 -0.2431  0.9125
  130OSM   H15C13944   3.336   1.109   5.835  0.7798 -1.1404  0.0434
  130OSM    C1413945   3.333   1.348   5.955 -0.0798 -0.3325 -1.1099
  130OSM   H14A13946   3.364   1.357   5.852  0.0753 -0.6060 -1.0893
  130OSM   H14B13947   3.423   1.341   6.015 -0.0423 -0.1867 -1.1474
  130OSM   H14C13948   3.286   1.442   5.981 -1.3687 -1.5467  1.3015
  130OSM    C1313949   3.128   1.254   5.891  0.5372  0.3611 -0.1401
  130OSM   H13A13950   3.149   1.254   5.786 -1.4003 -0.4798 -0.5781
  130OSM   H13B13951   3.072   1.336   5.935  1.6632  0.2193  1.6829
  130OSM   H13C13952   3.071   1.163   5.903 -1.3436  1.4450 -0.2853
  130OSM    C1213953   3.204   1.226   6.120 -0.0531 -0.0948  0.4353
  130OSM   H12A13954   3.193   1.325   6.162  1.4299  1.2010 -2.0306
  130OSM   H12B13955   3.289   1.181   6.171  0.6677 -0.1073 -0.7383
  130OSM    C1113956   3.071   1.144   6.159 -0.3836 -0.2282  0.1703
  130OSM   H11A13957   2.982   1.185   6.106  0.0122 -2.4668 -2.5078
  130OSM   H11B13958   3.045   1.147   6.267  1.0440  4.1777  0.5695
  130OSM      P13959   3.143   0.898   6.195 -0.2082  0.2834 -0.0661
  130OSM    O1313960   3.051   0.785   6.198  0.2931 -0.1225  0.5453
  130OSM    O1413961   3.285   0.873   6.162  0.4130  0.3380 -0.8262
  130OSM    O1113962   3.152   0.948   6.342  0.6791 -0.0253 -0.2174
  130OSM    O1213963   3.084   1.012   6.109 -0.0379 -0.4265 -0.2240
  130OSM    C1S13964   3.045   0.937   6.438  0.4121  0.3352 -0.3149
  130OSM    H1S13965   2.955   0.889   6.395  0.7829  1.2071 -2.1794
  130OSM    H1T13966   3.024   1.044   6.463  1.2442 -0.0416  2.3036
  130OSM     NF13967   2.982   0.864   6.658  0.9939  0.3267 -0.0393
  130OSM    HNF13968   2.986   0.928   6.735 -0.0639  0.1824  0.1558
  130OSM    C2S13969   3.093   0.860   6.562  0.4519 -0.6280  0.2901
  130OSM    H2S13970   3.120   0.757   6.530 -0.1101 -0.3628 -1.1270
  130OSM    C3S13971   3.222   0.926   6.612  0.1851 -0.6116 -0.2048
  130OSM    H3S13972   3.206   1.036   6.606 -0.7147 -0.8183 -3.6427
  130OSM     O313973   3.341   0.901   6.533  0.1699  0.4701 -0.4748
  130OSM    HO313974   3.301   0.874   6.450 -0.0433  0.7138 -0.4524
  130OSM    C4S13975   3.240   0.880   6.752 -0.6787  0.4973 -0.7426
  130OSM    H4S13976   3.281   0.778   6.752 -2.7275 -0.3864 -0.7456
  130OSM    C5S13977   3.233   0.958   6.863  0.3063  0.5437 -0.6406
  130OSM    H5S13978   3.221   1.067   6.857 -0.1710  0.4483 -1.6205
  130OSM    C6S13979   3.256   0.901   7.004  0.4030 -0.2199 -0.1158
  130OSM    H6S13980   3.248   0.791   7.017 -5.0599  0.1176  1.9562
  130OSM    H6T13981   3.170   0.933   7.066  0.4271 -2.4860  1.1829
  130OSM    C7S13982   3.389   0.944   7.071 -0.4234 -0.7665 -0.3480
  130OSM    H7S13983   3.389   1.054   7.088  1.9022 -0.9076  1.0578
  130OSM    H7T13984   3.464   0.939   6.989 -0.6545  0.1941 -0.6408
  130OSM    C8S13985   3.429   0.874   7.201 -0.1316  0.1099 -0.2666
  130OSM    H8S13986   3.532   0.900   7.232 -0.1673  1.3641 -1.1187
  130OSM    H8T13987   3.409   0.767   7.176 -1.3010  0.6918 -2.0339
  130OSM    C9S13988   3.339   0.915   7.321 -0.0217 -0.6677 -0.1290
  130OSM    H9S13989   3.233   0.910   7.290  0.6288  0.7218 -2.8556
  130OSM    H9T13990   3.367   1.016   7.358  1.4929 -1.3029  0.5556
  130OSM   C10S13991   3.357   0.824   7.443  0.3203  0.3413  0.2237
  130OSM   H10S13992   3.465   0.834   7.470  0.3810  1.2712 -0.2937
  130OSM   H10T13993   3.336   0.720   7.413 -0.1863  1.3693 -3.4660
  130OSM   C11S13994   3.277   0.875   7.559  0.5518  0.0379  0.7512
  130OSM   H11S13995   3.172   0.844   7.538  0.8345 -1.4220  1.3501
  130OSM   H11T13996   3.283   0.985   7.544 -2.9975 -0.0383 -2.6922
  130OSM   C12S13997   3.334   0.826   7.696  0.4765  0.8581 -0.0649
  130OSM   H12S13998   3.441   0.852   7.703  0.3194  1.1931  1.6292
  130OSM   H12T13999   3.325   0.716   7.706 -1.5409  0.9381 -0.4634
  130OSM   C13S14000   3.257   0.898   7.808 -0.5906  0.1136 -0.5403
  130OSM   H13S14001   3.147   0.882   7.805 -0.7231  1.0716 -1.3540
  130OSM   H13T14002   3.270   1.006   7.784 -2.1530  0.3775 -0.3324
  130OSM   C14S14003   3.313   0.872   7.950 -0.7137  0.5333 -0.5973
  130OSM   H14S14004   3.424   0.868   7.943 -0.6589 -2.6866  0.5443
  130OSM   H14T14005   3.289   0.768   7.981  0.3133  0.6873  0.8252
  130OSM   C15S14006   3.255   0.961   8.058  0.6644  0.0554  0.0092
  130OSM   H15S14007   3.221   1.059   8.016 -0.2625 -0.1139  0.3437
  130OSM   H15T14008   3.321   0.996   8.140 -1.3920  0.8506  1.3993
  130OSM   C16S14009   3.129   0.908   8.122 -0.0718 -0.6733  0.1374
  130OSM   H16S14010   3.150   0.805   8.159  1.6086 -0.2266  0.4847
  130OSM   H16T14011   3.037   0.896   8.059  0.1571 -0.2205 -0.2912
  130OSM   C17S14012   3.085   0.997   8.238 -0.5084 -0.6763  1.2001
  130OSM   H17S14013   3.071   1.096   8.189  3.1294 -1.0429 -0.8927
  130OSM   H17T14014   3.163   1.011   8.316  0.3994  0.1138  0.1856
  130OSM   C18S14015   2.965   0.955   8.309 -0.0964 -0.2021  0.0457
  130OSM   H18S14016   2.889   0.940   8.229 -0.6769 -3.2100  1.0347
  130OSM   H18T14017   2.940   1.037   8.380  0.7968  0.2106 -0.1101
  130OSM   H18U14018   2.987   0.857   8.358  2.0301 -0.9435 -2.2067
  130OSM    C1F14019   2.876   0.778   6.652  0.5165 -0.3472  0.0632
  130OSM     OF14020   2.895   0.683   6.577 -0.0629 -0.3487 -0.2414
  130OSM    C2F14021   2.748   0.813   6.727 -0.0551  0.5246 -0.2938
  130OSM    H2F14022   2.681   0.839   6.642 -0.0752  1.7144  0.0596
  130OSM    H2G14023   2.762   0.900   6.795 -1.4168  1.5036 -1.2088
  130OSM    C3F14024   2.686   0.692   6.810 -0.0016 -0.2583 -0.2492
  130OSM    H3F14025   2.670   0.603   6.745 -0.4102 -0.2915 -0.1069
  130OSM    H3G14026   2.587   0.725   6.848 -1.6099 -1.2128 -3.2270
  130OSM    C4F14027   2.770   0.641   6.925  0.0249 -0.4124 -0.4944
  130OSM    H4F14028   2.868   0.604   6.886  0.3069  0.4952 -0.6567
  130OSM    H4G14029   2.717   0.561   6.981 -1.2928  0.4701 -0.4492
  130OSM    C5F14030   2.800   0.753   7.034 -0.1301  0.4471 -0.2514
  130OSM    H5F14031   2.706   0.807   7.059 -0.8071 -0.4348 -0.8320
  130OSM    H5G14032   2.874   0.818   6.982  0.7681  0.0476  0.4819
  130OSM    C6F14033   2.845   0.704   7.173 -1.5050 -0.2825 -0.4987
  130OSM    H6F14034   2.779   0.624   7.212  0.3864 -0.9985  1.4518
  130OSM    H6G14035   2.840   0.786   7.249 -0.3364  1.1646 -1.9164
  130OSM    C7F14036   3.002   0.665   7.176  0.5020 -0.8919  0.0708
  130OSM    H7F14037   3.054   0.749   7.126 -0.0780  0.4801  1.6947
  130OSM    H7G14038   3.022   0.581   7.105 -2.3725 -0.4359 -1.4372
  130OSM    C8F14039   3.060   0.644   7.324  0.8200 -0.2880  0.2598
  130OSM    H8F14040   3.030   0.731   7.387  2.9087  0.2376  0.6016
  130OSM    H8G14041   3.170   0.647   7.313  0.7494 -0.6081 -0.5770
  130OSM    C9F14042   2.998   0.513   7.373  0.2817  0.6532 -0.7319
  130OSM    H9F14043   3.018   0.418   7.321 -0.6021 -0.9848  1.7160
  130OSM   C10F14044   2.926   0.500   7.488  0.4956  0.0006 -0.0907
  130OSM   H10F14045   2.887   0.403   7.522  0.3968  0.0038 -0.1944
  130OSM   C11F14046   2.889   0.608   7.589  0.2656  0.2364  0.1606
  130OSM   H11F14047   2.791   0.583   7.635 -0.0993  0.2387 -0.6093
  130OSM   H11G14048   2.886   0.706   7.538  0.4432  0.8270  1.2598
  130OSM   C12F14049   2.991   0.629   7.699 -0.3248  0.8196 -0.6393
  130OSM   H12F14050   2.969   0.720   7.759  0.5063  0.6739 -0.0945
  130OSM   H12G14051   3.092   0.624   7.653  1.5894 -0.8132  3.2925
  130OSM   C13F14052   2.987   0.515   7.805  0.7016 -0.0012  0.3453
  130OSM   H13F14053   3.020   0.417   7.765  0.8077  0.2311 -0.1319
  130OSM   H13G14054   2.881   0.504   7.839  0.9067  1.8936  1.7394
  130OSM   C14F14055   3.081   0.556   7.923  0.3391  0.0120 -0.1062
  130OSM   H14F14056   3.082   0.666   7.913 -0.4027 -0.1472 -2.3900
  130OSM   H14G14057   3.178   0.502   7.910 -0.1944 -1.7025  2.1934
  130OSM   C15F14058   3.024   0.518   8.064  0.4192  0.3941  0.2594
  130OSM   H15F14059   2.935   0.459   8.034  0.4138  1.8120 -2.8333
  130OSM   H15G14060   2.996   0.618   8.106 -1.5578 -0.2597  0.5851
  130OSM   C16F14061   3.117   0.426   8.146  0.1455 -0.1736 -0.2022
  130OSM   H16F14062   3.213   0.481   8.159 -0.8620  1.3436  1.1790
  130OSM   H16G14063   3.154   0.332   8.100  2.6061 -0.0925  1.3973
  130OSM   C17F14064   3.051   0.388   8.274  0.1047 -0.3717  0.2614
  130OSM   H17F14065   3.120   0.320   8.328  2.1870  1.4829  0.1076
  130OSM   H17G14066   2.953   0.345   8.248 -0.3220  1.7540 -2.0621
  130OSM   C18F14067   3.040   0.512   8.369 -0.2455  0.1856 -0.2875
  130OSM   H18F14068   2.973   0.589   8.326 -2.3399 -1.4028 -0.0265
  130OSM   H18G14069   3.142   0.551   8.389 -0.2146  0.4365 -0.9271
  130OSM   H18H14070   3.008   0.491   8.473  0.4406  0.7567  0.0474
  131OSM      N14071   0.257   3.977   6.080  0.8622  0.2483 -0.5415
  131OSM    C1514072   0.119   3.935   6.113  0.5203 -0.4728  0.3212
  131OSM   H15A14073   0.065   3.944   6.020  1.9757  1.7099 -0.3985
  131OSM   H15B14074   0.068   3.996   6.187 -0.6102 -1.1271  0.0953
  131OSM   H15C14075   0.125   3.834   6.151  1.1714  0.0574  1.7271
  131OSM    C1414076   0.306   3.908   5.960 -0.0877  0.5648  0.0869
  131OSM   H14A14077   0.396   3.953   5.922  1.4940 -1.4515  1.2482
  131OSM   H14B14078   0.233   3.899   5.881  0.7067 -1.0392 -0.5144
  131OSM   H14C14079   0.331   3.806   5.984 -0.0741 -0.1638 -2.6953
  131OSM    C1314080   0.242   4.122   6.049  0.2341  0.6000  1.0506
  131OSM   H13A14081   0.189   4.138   5.956  3.7145 -1.8996 -1.6236
  131OSM   H13B14082   0.341   4.165   6.041 -0.4706  2.5312  1.9976
  131OSM   H13C14083   0.195   4.177   6.129  0.4559  3.2429 -0.4871
  131OSM    C1214084   0.350   3.952   6.194  0.2306  0.1836 -0.3932
  131OSM   H12A14085   0.347   4.032   6.267  1.9560 -1.1670  1.2877
  131OSM   H12B14086   0.448   3.963   6.149  0.0659  0.2367 -0.7379
  131OSM    C1114087   0.348   3.815   6.257  0.3177  0.7070  1.2500
  131OSM   H11A14088   0.257   3.803   6.319  0.3375 -2.0735  0.8781
  131OSM   H11B14089   0.435   3.815   6.327  1.7224  0.7142 -0.4139
  131OSM      P14090   0.364   3.563   6.189  0.2106  0.2017  0.1535
  131OSM    O1314091   0.220   3.525   6.204  0.1796 -0.1021  0.3813
  131OSM    O1414092   0.441   3.482   6.085 -0.0917  0.2553 -0.3950
  131OSM    O1114093   0.435   3.556   6.332  0.4168 -0.1015 -0.1644
  131OSM    O1214094   0.377   3.718   6.149  0.0768  0.2579  0.2302
  131OSM    C1S14095   0.354   3.519   6.445  0.1112 -0.4725  0.3048
  131OSM    H1S14096   0.307   3.419   6.426  0.8517 -1.4424  3.0859
  131OSM    H1T14097   0.276   3.598   6.457  2.1791  1.6530  0.3188
  131OSM     NF14098   0.356   3.494   6.694 -0.1900 -0.2580 -0.0976
  131OSM    HNF14099   0.345   3.566   6.762 -1.8822 -0.8385  0.2897
  131OSM    C2S14100   0.440   3.515   6.577  0.2935 -0.1774  0.3515
  131OSM    H2S14101   0.503   3.424   6.569  1.7768  0.8469 -0.0135
  131OSM    C3S14102   0.525   3.646   6.590 -0.1375  0.4854  0.7944
  131OSM    H3S14103   0.454   3.731   6.581 -0.3484  0.2628  0.3294
  131OSM     O314104   0.619   3.668   6.485  0.0450  0.7413  0.0194
  131OSM    HO314105   0.569   3.619   6.419 -3.0418  2.2326  1.0750
  131OSM    C4S14106   0.603   3.652   6.725 -0.1182  0.2245  0.2945
  131OSM    H4S14107   0.547   3.707   6.801 -2.1861 -0.8696 -0.3561
  131OSM    C5S14108   0.729   3.616   6.752 -0.2092 -0.4431 -0.4593
  131OSM    H5S14109   0.799   3.569   6.682  0.9506 -2.2939  1.7973
  131OSM    C6S14110   0.786   3.655   6.887  0.2662  0.4532  0.3359
  131OSM    H6S14111   0.865   3.729   6.865  2.2639 -0.9536  2.3050
  131OSM    H6T14112   0.835   3.569   6.938 -0.5195 -0.0848  0.2053
  131OSM    C7S14113   0.689   3.721   6.996 -0.3219 -0.0364 -0.2179
  131OSM    H7S14114   0.624   3.639   7.031 -0.5526  0.3504  0.2714
  131OSM    H7T14115   0.630   3.802   6.949 -1.0442  2.1976  4.0652
  131OSM    C8S14116   0.766   3.777   7.118 -0.1539  0.3368  0.0476
  131OSM    H8S14117   0.700   3.836   7.185 -0.8437  1.4743 -1.5456
  131OSM    H8T14118   0.850   3.844   7.090  0.8374 -0.5747  0.7748
  131OSM    C9S14119   0.838   3.667   7.199 -0.2019 -0.2334 -0.2134
  131OSM    H9S14120   0.922   3.623   7.143  1.9471  0.6203  2.1483
  131OSM    H9T14121   0.775   3.577   7.216 -1.8223  0.5639 -1.6706
  131OSM   C10S14122   0.911   3.728   7.313 -0.8306  0.2082 -0.3934
  131OSM   H10S14123   0.973   3.811   7.273  1.8732 -0.4828  2.0292
  131OSM   H10T14124   0.987   3.651   7.341  2.6066  3.2505 -0.6258
  131OSM   C11S14125   0.844   3.769   7.436  0.4147 -0.1536  0.0796
  131OSM   H11S14126   0.777   3.693   7.482 -0.1809  0.6404  0.5599
  131OSM   H11T14127   0.782   3.858   7.412 -1.3118 -0.6021  2.4889
  131OSM   C12S14128   0.940   3.822   7.546  0.7225 -0.1731  0.3279
  131OSM   H12S14129   0.870   3.867   7.620 -0.6314  1.1430 -1.6838
  131OSM   H12T14130   0.997   3.908   7.505  0.6252  1.7173  3.7153
  131OSM   C13S14131   1.028   3.725   7.613 -1.1486  0.2212  0.0350
  131OSM   H13S14132   1.097   3.784   7.677 -0.0916 -1.4229  0.4911
  131OSM   H13T14133   1.089   3.666   7.541 -0.6373  2.0077 -1.0497
  131OSM   C14S14134   0.968   3.628   7.713 -0.2200 -0.7453 -0.8428
  131OSM   H14S14135   0.893   3.565   7.663 -0.9457 -0.5116 -0.0668
  131OSM   H14T14136   0.936   3.680   7.806  3.3107  2.3619 -1.0817
  131OSM   C15S14137   1.074   3.533   7.763 -0.2903  0.2340 -0.3535
  131OSM   H15S14138   1.117   3.472   7.681  1.1603  0.0620  0.4961
  131OSM   H15T14139   1.013   3.464   7.825 -1.4727 -1.2290 -3.0051
  131OSM   C16S14140   1.184   3.582   7.852  0.4506  0.2953  0.1426
  131OSM   H16S14141   1.146   3.596   7.955 -1.3486 -2.4738 -0.0452
  131OSM   H16T14142   1.238   3.677   7.831  1.6880 -0.5770 -0.8358
  131OSM   C17S14143   1.292   3.473   7.869  0.0564  0.7841 -0.2608
  131OSM   H17S14144   1.317   3.448   7.763  3.1230 -1.3689  0.8133
  131OSM   H17T14145   1.259   3.383   7.924  1.9827 -0.1408 -0.5281
  131OSM   C18S14146   1.417   3.520   7.927 -0.4012 -0.0443 -0.8947
  131OSM   H18S14147   1.446   3.622   7.895 -3.0609  1.0397 -0.0827
  131OSM   H18T14148   1.495   3.444   7.904 -0.3936  0.1052 -1.3691
  131OSM   H18U14149   1.393   3.517   8.036 -2.1937 -2.4522 -1.2652
  131OSM    C1F14150   0.277   3.387   6.723 -0.3201 -0.2415 -0.5025
  131OSM     OF14151   0.275   3.296   6.644  0.4376 -0.3896  0.7277
  131OSM    C2F14152   0.190   3.387   6.847 -0.3976 -0.3312 -0.9299
  131OSM    H2F14153   0.172   3.282   6.879 -1.2585  0.3118  0.8634
  131OSM    H2G14154   0.092   3.430   6.817 -0.5891  0.9960  1.3625
  131OSM    C3F14155   0.233   3.478   6.967 -0.6868 -1.0401  0.5321
  131OSM    H3F14156   0.259   3.577   6.925  1.1497 -1.3216  0.9208
  131OSM    H3G14157   0.320   3.426   7.011 -0.7414 -0.5940  1.1767
  131OSM    C4F14158   0.121   3.491   7.076 -0.3068 -0.3966 -0.5466
  131OSM    H4F14159   0.127   3.399   7.138  3.8942  1.4312  2.2765
  131OSM    H4G14160   0.022   3.505   7.029 -0.8360 -0.6345  0.4591
  131OSM    C5F14161   0.131   3.617   7.161 -0.0093 -0.2037  0.1701
  131OSM    H5F14162   0.064   3.599   7.248  0.9150  1.0887  1.1985
  131OSM    H5G14163   0.098   3.699   7.094  1.2398 -0.3672 -0.6847
  131OSM    C6F14164   0.275   3.628   7.221 -0.0096 -0.4786  0.1699
  131OSM    H6F14165   0.349   3.646   7.141  0.5236 -2.8003  0.0602
  131OSM    H6G14166   0.298   3.537   7.281  0.5452 -0.0634  0.5943
  131OSM    C7F14167   0.277   3.749   7.313  0.3656  0.1504  0.1237
  131OSM    H7F14168   0.189   3.746   7.381 -0.0788  1.7136 -0.3466
  131OSM    H7G14169   0.259   3.845   7.260  0.7343 -0.4803 -1.1969
  131OSM    C8F14170   0.413   3.773   7.377  0.3325  0.3112  0.1578
  131OSM    H8F14171   0.488   3.771   7.295 -1.3244  1.6783 -1.4712
  131OSM    H8G14172   0.455   3.691   7.438  0.0372  1.0667  1.4154
  131OSM    C9F14173   0.423   3.902   7.461  0.5528  0.1049  0.3988
  131OSM    H9F14174   0.405   3.989   7.396 -1.6709  0.7872  1.8312
  131OSM   C10F14175   0.464   3.906   7.586  0.2889  0.6972  0.4540
  131OSM   H10F14176   0.468   4.003   7.639  1.0488  0.5369  0.7081
  131OSM   C11F14177   0.499   3.791   7.673  0.3370  0.5077  0.2145
  131OSM   H11F14178   0.572   3.726   7.620  0.3087  0.4945  0.1923
  131OSM   H11G14179   0.411   3.729   7.698  0.1259 -0.5042 -2.6335
  131OSM   C12F14180   0.574   3.840   7.796 -0.2509  0.0594 -0.0533
  131OSM   H12F14181   0.500   3.875   7.871 -0.5405  0.6249 -0.5954
  131OSM   H12G14182   0.651   3.916   7.772  0.7865 -1.0547 -0.3701
  131OSM   C13F14183   0.625   3.716   7.869  0.1362  0.7076 -0.9653
  131OSM   H13F14184   0.692   3.662   7.799 -1.2980 -1.2722 -0.9028
  131OSM   H13G14185   0.544   3.644   7.895  1.2572 -0.0043  0.7223
  131OSM   C14F14186   0.712   3.746   7.993  0.0786 -0.0692 -0.2418
  131OSM   H14F14187   0.648   3.798   8.067  2.0765 -0.8534  2.1514
  131OSM   H14G14188   0.792   3.818   7.967 -1.1355  1.8301  1.0562
  131OSM   C15F14189   0.760   3.622   8.069  0.5571  0.2682  0.6780
  131OSM   H15F14190   0.833   3.653   8.147  1.7712 -0.5558 -0.0889
  131OSM   H15G14191   0.804   3.544   8.004 -0.9522 -1.4348  1.6221
  131OSM   C16F14192   0.635   3.550   8.139 -0.3340 -0.9622 -0.5192
  131OSM   H16F14193   0.547   3.535   8.073 -2.2436  0.7141  1.4714
  131OSM   H16G14194   0.591   3.606   8.224  0.7824 -3.3235  1.7589
  131OSM   C17F14195   0.671   3.401   8.174  0.2703 -0.3268  0.0091
  131OSM   H17F14196   0.718   3.347   8.089  0.1195  0.0160 -0.2993
  131OSM   H17G14197   0.569   3.361   8.189 -0.3652  1.1635 -0.0831
  131OSM   C18F14198   0.757   3.374   8.298  0.1632  0.0183 -0.1059
  131OSM   H18F14199   0.769   3.264   8.312 -0.4648 -0.0132  0.2249
  131OSM   H18G14200   0.703   3.409   8.388 -0.0406 -0.6690  0.0471
  131OSM   H18H14201   0.856   3.425   8.296  0.0976  0.2171  1.2009
  132OSM      N14202   1.117   5.867   6.315  0.3788  0.6780 -0.1502
  132OSM    C1514203   0.998   5.828   6.390 -0.4737 -0.4911 -0.4766
  132OSM   H15A14204   1.025   5.784   6.485 -0.4151 -0.2649 -0.3892
  132OSM   H15B14205   0.941   5.754   6.335 -1.1822  1.0227 -1.8487
  132OSM   H15C14206   0.932   5.912   6.395 -2.4232 -1.8861 -1.4805
  132OSM    C1414207   1.216   5.759   6.335  0.1592 -0.4453 -0.3948
  132OSM   H14A14208   1.286   5.773   6.254  0.2212  1.0947 -0.0933
  132OSM   H14B14209   1.176   5.660   6.316 -0.4659 -0.1653 -0.5722
  132OSM   H14C14210   1.271   5.764   6.427 -0.9468  0.2828  0.2420
  132OSM    C1314211   1.093   5.854   6.170 -0.4109  0.3302 -0.2963
  132OSM   H13A14212   1.183   5.876   6.114 -0.2240 -1.7902 -0.9352
  132OSM   H13B14213   1.014   5.921   6.142 -1.4608 -0.5792  0.4124
  132OSM   H13C14214   1.071   5.751   6.143  0.9083 -0.2942  0.8951
  132OSM    C1214215   1.183   5.998   6.358 -0.3278 -0.2962  0.7632
  132OSM   H12A14216   1.116   6.083   6.357 -1.8787 -1.2374  4.5996
  132OSM   H12B14217   1.263   6.015   6.288 -2.7461 -2.7135 -2.8968
  132OSM    C1114218   1.246   6.005   6.505  0.5687  0.8620 -0.4445
  132OSM   H11A14219   1.172   5.965   6.577  0.6574  2.1712  0.3926
  132OSM   H11B14220   1.254   6.111   6.534  0.6022  0.8161 -0.2842
  132OSM      P14221   1.495   5.989   6.435  0.7176  0.1214 -0.3927
  132OSM    O1314222   1.621   5.913   6.466  0.0379  0.8704  0.2050
  132OSM    O1414223   1.471   6.008   6.289  0.1327  0.2220 -0.3368
  132OSM    O1114224   1.508   6.124   6.511 -0.4584  0.1049  0.0656
  132OSM    O1214225   1.373   5.934   6.510  0.3477  0.7599 -0.7985
  132OSM    C1S14226   1.492   6.147   6.647 -0.4085  0.4650 -0.6066
  132OSM    H1S14227   1.458   6.058   6.704  1.4601 -0.0795 -0.2751
  132OSM    H1T14228   1.418   6.229   6.656  0.1318  0.9239 -0.2445
  132OSM     NF14229   1.598   6.216   6.860 -0.0691 -0.1330  0.3213
  132OSM    HNF14230   1.551   6.299   6.887  0.7717  0.8105 -0.9506
  132OSM    C2S14231   1.624   6.206   6.724 -0.1087 -0.4944  0.2894
  132OSM    H2S14232   1.708   6.136   6.704  0.6730  0.8831 -1.6139
  132OSM    C3S14233   1.661   6.341   6.653  0.1354  0.1252 -0.1147
  132OSM    H3S14234   1.574   6.410   6.660  0.0314  0.0708 -0.7666
  132OSM     O314235   1.674   6.333   6.515  0.4504  0.1670  0.3383
  132OSM    HO314236   1.629   6.251   6.496  1.3207  0.0441 -1.4097
  132OSM    C4S14237   1.776   6.407   6.720  0.8428 -0.4644  0.2980
  132OSM    H4S14238   1.854   6.335   6.746  1.1082  0.0583  0.9739
  132OSM    C5S14239   1.772   6.532   6.777  0.3160  0.4729  0.1369
  132OSM    H5S14240   1.675   6.583   6.779 -0.4556 -0.7747 -1.8378
  132OSM    C6S14241   1.888   6.579   6.854  0.0683 -0.1784  0.1195
  132OSM    H6S14242   1.937   6.663   6.801 -0.6776  1.0765  1.3322
  132OSM    H6T14243   1.970   6.505   6.856 -0.5050 -0.8255 -0.0783
  132OSM    C7S14244   1.846   6.625   7.001 -0.1712  0.6407  0.3356
  132OSM    H7S14245   1.782   6.716   6.999 -0.0930  0.7225  1.0857
  132OSM    H7T14246   1.939   6.656   7.053  0.9454 -0.7315 -0.7968
  132OSM    C8S14247   1.783   6.517   7.087 -0.3776  0.0349 -0.1558
  132OSM    H8S14248   1.814   6.416   7.054  2.1999  0.3196  1.1750
  132OSM    H8T14249   1.674   6.523   7.065 -0.0686  1.4227 -1.5114
  132OSM    C9S14250   1.812   6.539   7.242 -0.5301 -0.4531  0.4935
  132OSM    H9S14251   1.798   6.647   7.267 -0.6955 -0.7039  1.5361
  132OSM    H9T14252   1.915   6.518   7.276 -0.1354  0.5135 -0.0489
  132OSM   C10S14253   1.717   6.462   7.330  0.0200  0.3618 -0.1298
  132OSM   H10S14254   1.706   6.357   7.294 -1.5895  0.5513 -0.2452
  132OSM   H10T14255   1.616   6.505   7.315 -0.1398 -0.6782 -2.5288
  132OSM   C11S14256   1.768   6.457   7.474  0.6575  0.1927  0.2251
  132OSM   H11S14257   1.768   6.554   7.528  1.5415  0.3920 -0.1184
  132OSM   H11T14258   1.866   6.405   7.476 -0.2657 -1.7433  3.3395
  132OSM   C12S14259   1.681   6.378   7.568  0.3784 -0.4443  0.4742
  132OSM   H12S14260   1.681   6.270   7.544  1.0146 -0.0848 -1.2784
  132OSM   H12T14261   1.579   6.422   7.567  0.8003  0.5590  0.4646
  132OSM   C13S14262   1.745   6.394   7.711 -0.2851  0.4335 -0.2551
  132OSM   H13S14263   1.760   6.500   7.742 -1.2123  0.2079  1.0273
  132OSM   H13T14264   1.843   6.341   7.710  0.3675  1.6026 -0.0800
  132OSM   C14S14265   1.647   6.317   7.802 -0.2963  0.2206  0.0383
  132OSM   H14S14266   1.650   6.214   7.762  2.4661 -0.1997  1.1035
  132OSM   H14T14267   1.548   6.369   7.804 -1.1088 -1.2846  0.8903
  132OSM   C15S14268   1.684   6.314   7.949 -0.2150  0.2985 -0.3279
  132OSM   H15S14269   1.694   6.417   7.989 -1.2658  1.0791 -1.9377
  132OSM   H15T14270   1.787   6.274   7.960  0.0736  0.8540 -0.9145
  132OSM   C16S14271   1.576   6.236   8.031 -0.2809 -0.5063  0.0155
  132OSM   H16S14272   1.554   6.136   7.988  0.5135  0.4529 -2.7976
  132OSM   H16T14273   1.484   6.298   8.029  0.6553  1.1184  2.5662
  132OSM   C17S14274   1.610   6.232   8.186  0.8724 -0.2017 -0.1909
  132OSM   H17S14275   1.717   6.202   8.185  0.4001 -2.1288  1.3003
  132OSM   H17T14276   1.550   6.147   8.224 -1.8440  0.2449 -3.0514
  132OSM   C18S14277   1.584   6.357   8.271  0.2068 -0.3184  0.2963
  132OSM   H18S14278   1.595   6.343   8.381 -0.6493 -0.4045  0.3749
  132OSM   H18T14279   1.483   6.396   8.246  1.2037  0.8316 -2.2273
  132OSM   H18U14280   1.663   6.427   8.238 -1.0683  0.6959 -0.7075
  132OSM    C1F14281   1.602   6.107   6.938  0.2762 -1.2027  0.0645
  132OSM     OF14282   1.664   6.007   6.899  0.1310 -0.2017 -0.4538
  132OSM    C2F14283   1.530   6.109   7.067  0.1344  0.4841  0.0653
  132OSM    H2F14284   1.421   6.099   7.048  0.1131  0.2265  0.3156
  132OSM    H2G14285   1.536   6.215   7.099  2.7260  0.2417  0.6070
  132OSM    C3F14286   1.584   6.011   7.163  0.0393 -0.1876 -0.3833
  132OSM    H3F14287   1.689   6.043   7.179 -0.0220  1.1194 -2.2627
  132OSM    H3G14288   1.569   5.910   7.118 -4.2895  0.8490 -1.6841
  132OSM    C4F14289   1.514   6.017   7.300 -0.1476  0.8089  0.2089
  132OSM    H4F14290   1.412   5.975   7.284  1.1492 -1.9859 -1.3696
  132OSM    H4G14291   1.497   6.120   7.338 -2.3722 -0.2098  2.3515
  132OSM    C5F14292   1.595   5.932   7.401  0.1431  0.8912  1.0145
  132OSM    H5F14293   1.695   5.979   7.412 -0.5096  1.8707  3.4594
  132OSM    H5G14294   1.612   5.830   7.362 -1.9145  0.7050  0.5152
  132OSM    C6F14295   1.526   5.898   7.541 -0.0038 -0.0744  0.4544
  132OSM    H6F14296   1.426   5.850   7.530 -0.6318  1.2930 -0.0887
  132OSM    H6G14297   1.499   5.993   7.592  0.1530 -0.0969  0.5774
  132OSM    C7F14298   1.616   5.818   7.629  1.1548  0.0847  0.7609
  132OSM    H7F14299   1.716   5.866   7.635  1.4538 -0.0678 -1.7497
  132OSM    H7G14300   1.639   5.720   7.582  0.4998  0.0611  0.4905
  132OSM    C8F14301   1.567   5.806   7.772 -0.4138  0.1322  0.5805
  132OSM    H8F14302   1.532   5.906   7.807 -0.3761 -0.5848  2.8275
  132OSM    H8G14303   1.658   5.776   7.827 -0.8762 -1.1318  0.6831
  132OSM    C9F14304   1.451   5.712   7.797 -0.2486 -0.6084  0.7941
  132OSM    H9F14305   1.362   5.733   7.736 -1.2173 -3.3218  1.1008
  132OSM   C10F14306   1.450   5.610   7.887 -0.1627  0.8211 -0.3574
  132OSM   H10F14307   1.363   5.543   7.895  0.2703  0.0981 -1.4780
  132OSM   C11F14308   1.563   5.579   7.981  0.4958 -0.7751  0.1076
  132OSM   H11F14309   1.621   5.671   8.006 -0.3355 -0.3445  0.5246
  132OSM   H11G14310   1.629   5.505   7.932 -1.1134  0.3457 -4.2463
  132OSM   C12F14311   1.509   5.529   8.116  0.5816 -0.5998  0.0862
  132OSM   H12F14312   1.416   5.472   8.093 -0.2172  1.4321 -2.1788
  132OSM   H12G14313   1.463   5.614   8.172 -1.8643 -0.7407 -1.5396
  132OSM   C13F14314   1.602   5.442   8.202 -0.3702 -0.0900 -0.5755
  132OSM   H13F14315   1.700   5.489   8.225  1.0434 -3.3303  0.5481
  132OSM   H13G14316   1.626   5.352   8.143  1.0744 -0.7696  0.9757
  132OSM   C14F14317   1.549   5.398   8.339 -0.1995  0.1330 -0.7287
  132OSM   H14F14318   1.449   5.350   8.345 -0.3321  0.5700  0.8672
  132OSM   H14G14319   1.544   5.489   8.403  1.0096 -0.7461  0.6884
  132OSM   C15F14320   1.645   5.300   8.411  0.8751 -0.2245  0.6817
  132OSM   H15F14321   1.653   5.213   8.343  0.0733  0.2088  0.0208
  132OSM   H15G14322   1.586   5.258   8.495  0.3543  0.8753  0.8926
  132OSM   C16F14323   1.769   5.361   8.472  1.1223 -0.0627  0.2027
  132OSM   H16F14324   1.723   5.415   8.558  0.4391  2.1860 -1.4693
  132OSM   H16G14325   1.826   5.440   8.419 -0.1058  1.8374  1.5610
  132OSM   C17F14326   1.857   5.254   8.526 -0.2796  0.0104 -0.1041
  132OSM   H17F14327   1.913   5.222   8.436  2.4625  2.5546  0.5235
  132OSM   H17G14328   1.799   5.175   8.578 -0.6843  0.4272  0.0850
  132OSM   C18F14329   1.967   5.300   8.620 -0.5237  0.3444  0.0298
  132OSM   H18F14330   2.032   5.375   8.571 -0.0187  0.1881  0.4544
  132OSM   H18G14331   2.026   5.210   8.648  1.4666  1.9112  1.1969
  132OSM   H18H14332   1.926   5.349   8.712  1.4313  1.5189  0.3277
  133OSM      N14333   1.750   6.238   6.089  0.1857  0.0269  0.2767
  133OSM    C1514334   1.627   6.276   6.015 -0.3378  0.1801  0.1140
  133OSM   H15A14335   1.639   6.331   5.923 -1.0778 -0.4036 -0.3517
  133OSM   H15B14336   1.567   6.334   6.083 -1.7885 -0.3076 -0.6810
  133OSM   H15C14337   1.569   6.188   5.990 -0.6717 -0.5442  3.0895
  133OSM    C1414338   1.851   6.166   6.007  0.0276 -1.0036  0.6306
  133OSM   H14A14339   1.942   6.147   6.061  0.7779 -0.3214 -0.3596
  133OSM   H14B14340   1.880   6.243   5.938 -1.5235  0.8723  1.9763
  133OSM   H14C14341   1.814   6.075   5.961  0.3001 -1.3539  1.1015
  133OSM    C1314342   1.801   6.373   6.132  0.0980  1.1098 -0.1684
  133OSM   H13A14343   1.893   6.360   6.187  0.1089  1.0573 -0.1992
  133OSM   H13B14344   1.728   6.410   6.202  1.9222 -1.5176  3.4405
  133OSM   H13C14345   1.812   6.441   6.048  1.7978  1.1578  0.0614
  133OSM    C1214346   1.713   6.157   6.208 -0.2001  0.6032 -0.2828
  133OSM   H12A14347   1.671   6.062   6.178 -2.9461  2.2359 -2.0994
  133OSM   H12B14348   1.639   6.207   6.270  1.4719 -0.6752  2.9985
  133OSM    C1114349   1.828   6.127   6.310 -0.3014  0.2119 -0.0567
  133OSM   H11A14350   1.789   6.083   6.404 -0.6843 -0.1717 -0.3863
  133OSM   H11B14351   1.864   6.221   6.355  0.5660  0.0292 -0.3573
  133OSM      P14352   2.089   6.079   6.286 -0.2761  0.2925 -0.0433
  133OSM    O1314353   2.167   5.975   6.216 -0.8995  0.3633  0.2011
  133OSM    O1414354   2.124   6.222   6.253  0.1346  0.6937  0.0281
  133OSM    O1114355   2.100   6.051   6.443 -0.1272  0.4829 -0.4462
  133OSM    O1214356   1.938   6.049   6.252 -0.2143  0.2940  0.5228
  133OSM    C1S14357   2.049   5.937   6.509  0.6858 -0.0982  0.3887
  133OSM    H1S14358   2.107   5.850   6.469  2.3356  0.2627  1.8746
  133OSM    H1T14359   1.942   5.915   6.488  0.6937 -1.5118  1.6644
  133OSM     NF14360   2.025   5.820   6.710  0.0500  0.7050  0.2647
  133OSM    HNF14361   1.936   5.804   6.751 -0.2174 -1.2398 -0.9410
  133OSM    C2S14362   2.067   5.946   6.657  0.0432  0.7731 -0.2897
  133OSM    H2S14363   2.172   5.966   6.686  1.1944 -2.4941 -1.8188
  133OSM    C3S14364   1.999   6.069   6.719  0.2001 -0.2795 -0.0786
  133OSM    H3S14365   1.893   6.048   6.697  0.4817 -2.2513  0.2980
  133OSM     O314366   2.018   6.187   6.644  0.1855 -0.3469  0.0623
  133OSM    HO314367   2.053   6.153   6.561 -0.7299 -0.0886 -0.4377
  133OSM    C4S14368   2.011   6.071   6.871 -0.7908 -0.5979 -0.3286
  133OSM    H4S14369   1.930   6.043   6.941 -0.8335  3.4056  1.4626
  133OSM    C5S14370   2.116   6.118   6.937 -0.8403 -0.1618  0.5128
  133OSM    H5S14371   2.187   6.176   6.877  0.8272 -1.8959  0.7226
  133OSM    C6S14372   2.134   6.141   7.090 -0.3622 -0.4644  0.2780
  133OSM    H6S14373   2.173   6.245   7.099 -0.7197 -0.2651 -0.3772
  133OSM    H6T14374   2.226   6.087   7.119  0.4994 -0.6319 -2.5103
  133OSM    C7S14375   2.015   6.105   7.174 -0.6926 -0.0591 -0.8146
  133OSM    H7S14376   2.002   5.995   7.181 -0.1954 -0.1741 -1.6336
  133OSM    H7T14377   1.923   6.155   7.138 -0.3204 -0.6848 -2.7472
  133OSM    C8S14378   2.043   6.137   7.321  0.0221 -0.9108 -0.4579
  133OSM    H8S14379   2.046   6.246   7.342 -0.8055 -0.5635 -2.0032
  133OSM    H8T14380   2.138   6.089   7.353  0.5455  0.1343 -0.4085
  133OSM    C9S14381   1.930   6.083   7.407  0.1000  0.6114 -0.2756
  133OSM    H9S14382   1.918   5.975   7.382  1.4316 -0.1396  1.9697
  133OSM    H9T14383   1.839   6.141   7.381  0.6062  1.6924  0.3117
  133OSM   C10S14384   1.956   6.104   7.558  0.0587  0.4779  0.4740
  133OSM   H10S14385   1.866   6.140   7.611  1.0982  0.9466  1.9701
  133OSM   H10T14386   2.040   6.176   7.568  0.3160  0.6612 -2.1526
  133OSM   C11S14387   2.012   5.973   7.622  0.2370  0.4007 -0.0128
  133OSM   H11S14388   2.103   5.941   7.567 -0.5086 -1.7356 -0.1066
  133OSM   H11T14389   1.938   5.891   7.604 -1.0892  1.4256  0.5914
  133OSM   C12S14390   2.044   5.983   7.767 -0.4825 -0.5832 -0.6153
  133OSM   H12S14391   2.082   6.087   7.782 -0.8149 -0.4933 -0.3670
  133OSM   H12T14392   2.128   5.922   7.805 -1.2133 -1.1395  0.1534
  133OSM   C13S14393   1.927   5.947   7.856 -0.0518  0.1106 -0.9063
  133OSM   H13S14394   1.906   5.838   7.863  0.3794 -0.0494 -1.9761
  133OSM   H13T14395   1.836   5.998   7.819 -0.9923 -0.5014  0.4600
  133OSM   C14S14396   1.953   5.990   8.003 -0.0970  0.2523 -0.1537
  133OSM   H14S14397   1.952   6.100   8.017  1.1770  0.4264 -1.1940
  133OSM   H14T14398   2.056   5.968   8.039 -0.2632  1.2805  1.0074
  133OSM   C15S14399   1.842   5.933   8.099  0.7160 -0.5371 -0.1224
  133OSM   H15S14400   1.825   5.823   8.097 -2.5581 -0.1366  0.9350
  133OSM   H15T14401   1.742   5.975   8.076 -0.8137 -2.2723  2.8082
  133OSM   C16S14402   1.875   5.957   8.249  0.1614 -0.0898 -0.2160
  133OSM   H16S14403   1.888   6.066   8.264 -1.2812  0.4298 -2.2863
  133OSM   H16T14404   1.976   5.915   8.268 -0.3373 -0.7835  0.9998
  133OSM   C17S14405   1.770   5.914   8.356 -0.1992 -0.3449 -0.7141
  133OSM   H17S14406   1.695   5.996   8.365 -0.5769 -0.6687 -0.8646
  133OSM   H17T14407   1.826   5.908   8.452  1.3827  1.9820 -1.4008
  133OSM   C18S14408   1.713   5.773   8.336  0.2059  0.5208 -0.2122
  133OSM   H18S14409   1.637   5.785   8.256  0.0660  0.2429 -0.1205
  133OSM   H18T14410   1.663   5.731   8.426 -1.0784  1.2609 -0.5534
  133OSM   H18U14411   1.798   5.706   8.310  1.4094  2.1582 -0.7184
  133OSM    C1F14412   2.102   5.710   6.690 -0.3749  0.0917 -0.2271
  133OSM     OF14413   2.211   5.717   6.637 -0.6477  0.1161  0.1344
  133OSM    C2F14414   2.062   5.581   6.748 -0.1638  0.2758  0.2232
  133OSM    H2F14415   2.043   5.520   6.657  0.8251  1.1808 -0.6220
  133OSM    H2G14416   1.964   5.593   6.799 -1.2434  0.4726 -1.8046
  133OSM    C3F14417   2.174   5.519   6.840 -0.3946 -0.7457 -0.1681
  133OSM    H3F14418   2.204   5.577   6.930 -0.6405  0.4049 -0.8022
  133OSM    H3G14419   2.263   5.509   6.773 -0.0949  0.8824 -0.0595
  133OSM    C4F14420   2.123   5.379   6.882  0.7098  0.2775  0.4335
  133OSM    H4F14421   2.166   5.299   6.819  0.0946  1.2522 -1.2790
  133OSM    H4G14422   2.013   5.374   6.868  1.0568 -1.2178 -2.3699
  133OSM    C5F14423   2.162   5.326   7.025 -1.0485 -0.4788 -0.0783
  133OSM    H5F14424   2.116   5.397   7.097  1.5513  0.1719  1.0325
  133OSM    H5G14425   2.271   5.324   7.048 -0.9788  2.0087  0.0830
  133OSM    C6F14426   2.094   5.191   7.062  0.2137  0.2884  0.4306
  133OSM    H6F14427   2.134   5.104   7.006 -1.3430  0.7145 -1.4327
  133OSM    H6G14428   1.991   5.208   7.025 -0.5039 -2.9607  0.6871
  133OSM    C7F14429   2.082   5.176   7.213  0.2348 -0.5439 -0.8218
  133OSM    H7F14430   2.065   5.274   7.263 -0.2733  0.1745 -2.3550
  133OSM    H7G14431   2.179   5.136   7.249  1.2910  0.7127 -2.1463
  133OSM    C8F14432   1.961   5.089   7.261 -0.4986  0.4378  0.1363
  133OSM    H8F14433   1.955   5.088   7.372  0.2104 -1.4473  0.2020
  133OSM    H8G14434   1.986   4.985   7.232  1.7845  0.6217  1.2027
  133OSM    C9F14435   1.823   5.141   7.218 -0.0939  0.4735  0.0506
  133OSM    H9F14436   1.816   5.247   7.247  2.3022  0.7389 -0.0861
  133OSM   C10F14437   1.730   5.082   7.147  0.5036 -0.2348  0.5285
  133OSM   H10F14438   1.646   5.150   7.124  0.8403  0.2738  0.7901
  133OSM   C11F14439   1.730   4.948   7.083 -0.5871  0.3178 -0.7145
  133OSM   H11F14440   1.670   4.871   7.137 -0.9949  0.1084 -1.4507
  133OSM   H11G14441   1.833   4.904   7.084  0.0882  1.8381 -1.0702
  133OSM   C12F14442   1.667   4.944   6.944 -0.0969 -0.1192  0.3102
  133OSM   H12F14443   1.688   4.843   6.903 -2.5490 -0.7302  0.3854
  133OSM   H12G14444   1.709   5.027   6.883 -1.4339  1.4213  1.3777
  133OSM   C13F14445   1.508   4.954   6.944  0.6248  0.1179 -1.1836
  133OSM   H13F14446   1.482   4.987   6.841  1.1424 -0.6866 -1.5893
  133OSM   H13G14447   1.484   5.032   7.019 -0.7948  0.0790 -1.5659
  133OSM   C14F14448   1.448   4.817   6.987  0.6756 -0.1107  0.1692
  133OSM   H14F14449   1.480   4.792   7.090  1.2130  3.2117  0.9106
  133OSM   H14G14450   1.502   4.745   6.921  2.4355  0.5646  0.8183
  133OSM   C15F14451   1.300   4.831   6.964 -0.4965  0.3579  0.0404
  133OSM   H15F14452   1.270   4.840   6.857  0.4001  0.7773 -0.1799
  133OSM   H15G14453   1.273   4.913   7.033 -1.0252 -1.3346  1.9486
  133OSM   C16F14454   1.235   4.694   6.997  0.5959 -0.4511 -0.1660
  133OSM   H16F14455   1.126   4.700   6.980  0.4371 -2.2836  0.0863
  133OSM   H16G14456   1.261   4.677   7.104 -0.1111  0.1191  0.1060
  133OSM   C17F14457   1.288   4.583   6.912 -0.3683  0.1069 -0.0333
  133OSM   H17F14458   1.392   4.562   6.947 -0.0496  1.3612 -0.1558
  133OSM   H17G14459   1.287   4.616   6.806 -0.2165 -0.7745 -0.3172
  133OSM   C18F14460   1.207   4.460   6.913 -0.6777  0.2763 -0.1693
  133OSM   H18F14461   1.215   4.416   7.015  2.4332 -1.1816 -0.8998
  133OSM   H18G14462   1.254   4.389   6.842  2.5903 -1.4541  3.3559
  133OSM   H18H14463   1.100   4.484   6.900 -1.0694 -0.7931  0.9209
  134OSM      N14464   3.025   2.016   6.690 -0.1188 -0.0684  0.0000
  134OSM    C1514465   2.934   1.932   6.602 -0.5269  0.8888 -0.3693
  134OSM   H15A14466   2.840   1.982   6.587  0.0375  1.5309 -1.9249
  134OSM   H15B14467   2.922   1.833   6.645 -1.7458  1.6562  1.1398
  134OSM   H15C14468   2.984   1.910   6.509 -1.1698 -2.4313 -0.0515
  134OSM    C1414469   3.064   2.121   6.600 -0.0755  0.2362 -0.0449
  134OSM   H14A14470   3.127   2.079   6.524 -1.2048  0.9903 -1.4651
  134OSM   H14B14471   3.119   2.200   6.649 -2.3964  0.7182  2.0248
  134OSM   H14C14472   2.981   2.172   6.552  0.4223  1.0013 -0.1251
  134OSM    C1314473   2.933   2.070   6.794  0.0084 -0.3565  0.0742
  134OSM   H13A14474   2.992   2.137   6.855  0.2200  0.7936 -1.3091
  134OSM   H13B14475   2.890   1.986   6.844 -2.3594  0.3065 -0.7289
  134OSM   H13C14476   2.859   2.137   6.753  2.1825 -0.0632 -3.9040
  134OSM    C1214477   3.155   1.951   6.736  0.3970 -0.5821  0.7522
  134OSM   H12A14478   3.208   2.025   6.794 -1.0829 -0.2000  1.6702
  134OSM   H12B14479   3.214   1.933   6.647  0.9901  0.7302  0.8615
  134OSM    C1114480   3.151   1.823   6.824  0.0026 -0.4313 -0.0187
  134OSM   H11A14481   3.086   1.849   6.911  1.6557  0.3569  1.0156
  134OSM   H11B14482   3.254   1.800   6.858  0.2844  0.2399 -0.3945
  134OSM      P14483   3.193   1.653   6.633  0.2068 -0.0512  0.1082
  134OSM    O1314484   3.104   1.623   6.518 -0.1906 -0.0589 -0.0186
  134OSM    O1414485   3.305   1.747   6.608 -0.5779  0.2407 -0.2736
  134OSM    O1114486   3.237   1.516   6.701 -0.3217 -0.0899 -0.0255
  134OSM    O1214487   3.102   1.713   6.747  0.2544  0.0756 -0.3207
  134OSM    C1S14488   3.295   1.500   6.828 -0.5212  0.2568  0.2472
  134OSM    H1S14489   3.220   1.495   6.910  0.4436  1.2376  1.2309
  134OSM    H1T14490   3.361   1.586   6.855 -1.1038  0.7957 -0.0492
  134OSM     NF14491   3.437   1.359   6.969 -0.3841  0.4369  0.7431
  134OSM    HNF14492   3.533   1.385   6.970 -0.5715  1.4861 -1.5863
  134OSM    C2S14493   3.374   1.366   6.840 -0.2499  0.1804  0.3168
  134OSM    H2S14494   3.295   1.288   6.830 -0.0709 -0.2012  1.6865
  134OSM    C3S14495   3.469   1.347   6.717  0.1612 -0.2116 -0.6680
  134OSM    H3S14496   3.534   1.437   6.708 -0.5963  0.3151 -1.0313
  134OSM     O314497   3.399   1.342   6.592  0.4173 -0.4376  0.5651
  134OSM    HO314498   3.312   1.354   6.632  1.6692 -0.1928  3.4698
  134OSM    C4S14499   3.544   1.211   6.721 -0.4177  0.1497  0.5532
  134OSM    H4S14500   3.479   1.130   6.754 -2.0566  0.5565 -1.4774
  134OSM    C5S14501   3.680   1.207   6.721 -0.6449  0.4063  0.3185
  134OSM    H5S14502   3.734   1.302   6.707 -2.7530  1.3476 -2.7131
  134OSM    C6S14503   3.751   1.075   6.728  0.1380 -0.3295  0.3779
  134OSM    H6S14504   3.806   1.066   6.632 -2.1857 -3.2262 -0.8596
  134OSM    H6T14505   3.686   0.985   6.736 -0.2358 -0.6033 -3.6365
  134OSM    C7S14506   3.840   1.076   6.849 -0.6220 -0.3064 -0.4963
  134OSM    H7S14507   3.892   1.174   6.855 -1.4010  0.1087 -0.4275
  134OSM    H7T14508   3.917   1.000   6.824  0.0611 -0.2120  1.1887
  134OSM    C8S14509   3.778   1.048   6.987  0.7394 -0.1579  0.3592
  134OSM    H8S14510   3.783   0.940   7.011  0.9365 -0.5127 -1.1751
  134OSM    H8T14511   3.672   1.079   6.977  0.8586 -0.1017 -0.8753
  134OSM    C9S14512   3.836   1.134   7.095 -0.5057  0.2841  1.3694
  134OSM    H9S14513   3.812   1.239   7.072 -0.4073 -0.1439 -0.8610
  134OSM    H9T14514   3.946   1.119   7.095 -0.5038 -0.3953 -2.1567
  134OSM   C10S14515   3.771   1.087   7.231  0.3863  0.5323 -0.0554
  134OSM   H10S14516   3.790   0.980   7.255 -0.8629  0.4033  0.4390
  134OSM   H10T14517   3.661   1.095   7.222  0.2602 -0.2695  0.6669
  134OSM   C11S14518   3.803   1.175   7.352 -0.0066 -0.8136  0.0950
  134OSM   H11S14519   3.789   1.280   7.316  1.6094 -1.2092 -1.9159
  134OSM   H11T14520   3.907   1.163   7.389 -0.7554 -2.2176  1.8432
  134OSM   C12S14521   3.705   1.124   7.464  0.1300 -0.0978 -0.4455
  134OSM   H12S14522   3.716   1.013   7.474 -4.8713 -0.7029  0.6813
  134OSM   H12T14523   3.596   1.133   7.449 -0.0012  0.8173  0.9332
  134OSM   C13S14524   3.743   1.203   7.591  0.4734  0.4486  0.0798
  134OSM   H13S14525   3.710   1.308   7.573 -1.3929 -0.4180 -2.0177
  134OSM   H13T14526   3.853   1.204   7.608  0.5833 -0.9116 -0.4864
  134OSM   C14S14527   3.667   1.141   7.708  0.0615  0.1478 -0.7263
  134OSM   H14S14528   3.731   1.057   7.741 -0.9927 -0.9719 -1.4285
  134OSM   H14T14529   3.570   1.105   7.665 -1.0818  2.3472 -0.1159
  134OSM   C15S14530   3.639   1.240   7.818  0.2884  0.2629  0.9020
  134OSM   H15S14531   3.578   1.212   7.907 -0.1033 -0.1677  0.5016
  134OSM   H15T14532   3.575   1.317   7.768  1.1653  0.7822  0.5509
  134OSM   C16S14533   3.756   1.314   7.879  0.1400 -0.2093 -0.3492
  134OSM   H16S14534   3.717   1.403   7.933  2.6339  0.5426  0.3947
  134OSM   H16T14535   3.818   1.347   7.793  2.1968  1.0764  1.4956
  134OSM   C17S14536   3.843   1.222   7.971  0.0542 -0.0805 -0.0614
  134OSM   H17S14537   3.949   1.239   7.943  0.1438 -2.6762 -1.6029
  134OSM   H17T14538   3.813   1.124   7.930 -1.3110  1.0084 -1.8154
  134OSM   C18S14539   3.820   1.226   8.124 -0.0800 -0.4061  0.3722
  134OSM   H18S14540   3.870   1.150   8.187 -0.3846  0.2311  1.4240
  134OSM   H18T14541   3.709   1.218   8.133 -0.4485  1.1284 -1.8954
  134OSM   H18U14542   3.852   1.324   8.165 -3.0645  1.4462 -1.3444
  134OSM    C1F14543   3.356   1.356   7.076  0.4747 -0.2727 -0.1919
  134OSM     OF14544   3.242   1.320   7.069 -0.0652  0.0264  0.8637
  134OSM    C2F14545   3.414   1.396   7.202 -0.1804  0.2631 -0.5096
  134OSM    H2F14546   3.406   1.506   7.220  2.2611  0.3662  0.2506
  134OSM    H2G14547   3.522   1.375   7.205 -0.4432 -1.1191  1.6679
  134OSM    C3F14548   3.346   1.319   7.327 -0.7094 -0.5806 -0.1423
  134OSM    H3F14549   3.391   1.219   7.345 -0.0315 -0.0908  1.0314
  134OSM    H3G14550   3.238   1.302   7.310 -0.3807 -1.9082 -1.1040
  134OSM    C4F14551   3.370   1.401   7.449  0.0203 -0.2056 -0.0838
  134OSM    H4F14552   3.317   1.498   7.450  0.9090  0.4255 -3.3971
  134OSM    H4G14553   3.479   1.419   7.461 -0.1838  2.2040 -1.1510
  134OSM    C5F14554   3.315   1.326   7.574 -0.5123 -0.0493 -0.6627
  134OSM    H5F14555   3.366   1.230   7.596 -1.2171 -0.0231  1.3164
  134OSM    H5G14556   3.212   1.303   7.541 -0.0900 -1.8476 -0.8211
  134OSM    C6F14557   3.321   1.415   7.699 -0.0647  0.0186  0.3255
  134OSM    H6F14558   3.265   1.505   7.665  1.3627  1.1036  0.7168
  134OSM    H6G14559   3.425   1.450   7.717  0.3370 -1.0392  0.0836
  134OSM    C7F14560   3.241   1.354   7.814 -0.1932 -0.3170 -0.3054
  134OSM    H7F14561   3.280   1.255   7.847 -0.6970 -0.4123  0.0275
  134OSM    H7G14562   3.138   1.342   7.776 -1.1161  1.3194  1.4740
  134OSM    C8F14563   3.236   1.444   7.945 -0.5540  0.1650  0.6012
  134OSM    H8F14564   3.170   1.390   8.016 -1.9723  2.8530  1.4592
  134OSM    H8G14565   3.192   1.542   7.919  1.2700  0.4948 -1.5253
  134OSM    C9F14566   3.373   1.459   7.998 -0.1083 -0.5554  0.1060
  134OSM    H9F14567   3.448   1.393   7.950 -1.2085 -1.6883 -0.1031
  134OSM   C10F14568   3.406   1.530   8.105  0.6183  0.2204 -0.3772
  134OSM   H10F14569   3.510   1.528   8.140  1.4950  0.9036 -2.7291
  134OSM   C11F14570   3.318   1.611   8.193  0.3380 -0.4278  0.1646
  134OSM   H11F14571   3.337   1.578   8.298 -2.9986  0.1578  1.0630
  134OSM   H11G14572   3.212   1.586   8.174  0.6159 -2.1347  0.6132
  134OSM   C12F14573   3.338   1.761   8.166  0.0938  1.0938  0.2252
  134OSM   H12F14574   3.336   1.764   8.055 -0.2921 -2.4957  0.0018
  134OSM   H12G14575   3.439   1.796   8.198  1.1551 -1.7932  0.3425
  134OSM   C13F14576   3.237   1.858   8.235  0.2530 -0.1082 -0.0138
  134OSM   H13F14577   3.252   1.957   8.187 -2.0479  0.0985 -0.4245
  134OSM   H13G14578   3.250   1.852   8.345 -1.0678  1.3655  0.2656
  134OSM   C14F14579   3.087   1.830   8.206 -0.1648  0.2717  0.3222
  134OSM   H14F14580   3.047   1.741   8.258  0.0341 -0.0579 -0.0853
  134OSM   H14G14581   3.072   1.795   8.102 -0.6913 -2.3477  1.2125
  134OSM   C15F14582   2.994   1.952   8.229 -0.0036  0.2441 -0.2879
  134OSM   H15F14583   3.000   2.018   8.140  0.0642  0.7730  0.1015
  134OSM   H15G14584   3.016   2.024   8.311 -3.2253 -1.5950  2.4364
  134OSM   C16F14585   2.849   1.912   8.243  0.1859 -0.3500 -0.6588
  134OSM   H16F14586   2.844   1.843   8.330  1.6911 -0.0111 -0.2754
  134OSM   H16G14587   2.832   1.845   8.156  0.4095 -1.8670  0.4231
  134OSM   C17F14588   2.745   2.031   8.250 -0.2877 -0.3506 -0.5074
  134OSM   H17F14589   2.776   2.087   8.159  2.5722 -0.3388  0.3614
  134OSM   H17G14590   2.767   2.094   8.339  0.2727  2.5860 -2.6022
  134OSM   C18F14591   2.604   1.975   8.234  0.1781 -0.3027  0.6513
  134OSM   H18F14592   2.526   2.053   8.249  0.6699 -0.0379  1.9829
  134OSM   H18G14593   2.582   1.908   8.319 -1.5809  1.8364  1.9939
  134OSM   H18H14594   2.598   1.918   8.139  1.1356  2.9248 -1.5211
  135OSM      N14595   2.624   0.956   6.187  0.3318 -0.6117  0.6713
  135OSM    C1514596   2.534   0.990   6.077 -0.0144  0.2741  0.3825
  135OSM   H15A14597   2.521   1.096   6.065 -0.2717  0.0449 -1.9764
  135OSM   H15B14598   2.436   0.949   6.097 -0.0554  1.1656  2.1502
  135OSM   H15C14599   2.576   0.962   5.981 -0.0922  2.4426 -0.3454
  135OSM    C1414600   2.637   0.806   6.202 -0.5246 -0.1501 -0.5310
  135OSM   H14A14601   2.720   0.787   6.269 -0.9567 -0.3031 -0.0350
  135OSM   H14B14602   2.655   0.760   6.106 -0.8255  0.6023 -0.9538
  135OSM   H14C14603   2.554   0.760   6.253 -0.7478  1.7197  0.8969
  135OSM    C1314604   2.756   1.010   6.134  0.1894  0.1982 -0.5248
  135OSM   H13A14605   2.788   0.963   6.042  1.7454  3.4896 -1.8285
  135OSM   H13B14606   2.833   1.003   6.210  0.1204  0.1069 -0.4626
  135OSM   H13C14607   2.749   1.114   6.107 -0.0385  0.1062 -0.8183
  135OSM    C1214608   2.579   1.026   6.314 -0.3583  0.3495 -0.4810
  135OSM   H12A14609   2.480   0.994   6.341 -0.1749 -1.7819 -2.0813
  135OSM   H12B14610   2.577   1.133   6.299 -0.8829  0.5106  0.6242
  135OSM    C1114611   2.678   1.014   6.427  0.0396  0.1779 -0.5741
  135OSM   H11A14612   2.710   0.909   6.439 -0.9510 -0.4960 -3.2589
  135OSM   H11B14613   2.631   1.045   6.524  2.4218  2.6518 -0.0710
  135OSM      P14614   2.775   1.257   6.430 -0.5172 -0.0109  0.1497
  135OSM    O1314615   2.894   1.332   6.384 -0.0097  0.1290 -0.6041
  135OSM    O1414616   2.648   1.295   6.374 -0.2693 -0.2993 -0.3227
  135OSM    O1114617   2.771   1.265   6.589 -0.3710  0.2025  0.3602
  135OSM    O1214618   2.794   1.101   6.402 -0.0108  0.0245  0.3111
  135OSM    C1S14619   2.852   1.364   6.659  0.2053  0.0202 -0.2393
  135OSM    H1S14620   2.813   1.464   6.631 -0.2779 -0.6924 -2.3124
  135OSM    H1T14621   2.956   1.356   6.620 -0.3051  1.3396 -2.0082
  135OSM     NF14622   2.864   1.480   6.877  0.1947 -0.0965  0.4091
  135OSM    HNF14623   2.958   1.513   6.889 -0.5357  2.3127  0.0673
  135OSM    C2S14624   2.843   1.351   6.813 -0.6660 -0.2581 -0.2305
  135OSM    H2S14625   2.740   1.314   6.830 -1.0517 -0.5524 -2.7946
  135OSM    C3S14626   2.940   1.242   6.856 -0.5978  0.0104 -0.3522
  135OSM    H3S14627   3.045   1.273   6.834  0.9989 -3.7733  1.0662
  135OSM     O314628   2.925   1.115   6.784  0.5951 -0.5698 -0.0316
  135OSM    HO314629   2.862   1.136   6.715 -1.0784 -0.4815  1.4382
  135OSM    C4S14630   2.937   1.214   7.005  0.1170 -0.3051 -1.1040
  135OSM    H4S14631   3.013   1.254   7.073 -0.6181 -3.4161  1.7857
  135OSM    C5S14632   2.841   1.152   7.076  0.2645 -0.1985 -0.6591
  135OSM    H5S14633   2.750   1.128   7.019  0.2432 -3.0708  0.4213
  135OSM    C6S14634   2.841   1.125   7.226 -0.5528  0.2486 -0.6315
  135OSM    H6S14635   2.810   1.021   7.250  0.6320  0.0996  0.3520
  135OSM    H6T14636   2.771   1.200   7.268 -1.0235  0.6136 -2.0007
  135OSM    C7S14637   2.976   1.140   7.317 -0.0243 -0.7656  1.5473
  135OSM    H7S14638   3.026   1.229   7.276 -3.5881  0.9782  0.5890
  135OSM    H7T14639   3.043   1.056   7.287 -0.2301 -1.0096  1.7549
  135OSM    C8S14640   2.951   1.148   7.466  0.7299  0.4977 -0.0320
  135OSM    H8S14641   2.907   1.248   7.488  3.9430  2.1420 -0.4222
  135OSM    H8T14642   3.056   1.144   7.503  1.2848  1.6427 -1.3934
  135OSM    C9S14643   2.879   1.017   7.513  0.1553  0.0390  0.7468
  135OSM    H9S14644   2.927   0.931   7.462 -0.0360 -0.1439  0.8738
  135OSM    H9T14645   2.778   1.021   7.468 -0.2218 -1.0193  1.4642
  135OSM   C10S14646   2.869   1.010   7.663 -0.0932 -0.7333 -0.0111
  135OSM   H10S14647   2.967   0.963   7.687 -0.5619 -1.3817  0.6626
  135OSM   H10T14648   2.792   0.932   7.681 -0.8460 -0.2117 -0.8552
  135OSM   C11S14649   2.849   1.144   7.736  0.0826  0.1046 -0.0827
  135OSM   H11S14650   2.751   1.190   7.711 -1.7386 -2.4922  1.7178
  135OSM   H11T14651   2.927   1.215   7.704 -0.7469  0.7173 -0.7824
  135OSM   C12S14652   2.847   1.133   7.892 -0.5681  0.3288 -0.3327
  135OSM   H12S14653   2.945   1.099   7.930  0.6809  0.2233 -3.3464
  135OSM   H12T14654   2.771   1.057   7.918 -0.3551 -0.3828 -1.7287
  135OSM   C13S14655   2.795   1.264   7.956 -0.0812  0.7803 -0.1714
  135OSM   H13S14656   2.700   1.295   7.908  0.1042  0.0194 -1.0467
  135OSM   H13T14657   2.864   1.350   7.946 -0.8524  1.3885 -0.3668
  135OSM   C14S14658   2.766   1.245   8.107 -0.4603  0.0573 -0.0787
  135OSM   H14S14659   2.856   1.225   8.168 -1.1884 -0.2756  0.9051
  135OSM   H14T14660   2.705   1.153   8.113 -0.2537 -0.1129 -0.5330
  135OSM   C15S14661   2.662   1.340   8.166 -0.5065 -0.7176 -0.4644
  135OSM   H15S14662   2.631   1.320   8.271 -1.2793  0.8833 -0.3459
  135OSM   H15T14663   2.568   1.323   8.109  0.5093  0.8837 -2.7714
  135OSM   C16S14664   2.712   1.482   8.181 -0.1634  0.5801  0.0502
  135OSM   H16S14665   2.742   1.519   8.080 -0.4452 -0.7047 -0.5229
  135OSM   H16T14666   2.807   1.481   8.239  1.4573  0.8748 -2.4050
  135OSM   C17S14667   2.616   1.572   8.258  0.5501 -0.2589  0.4818
  135OSM   H17S14668   2.669   1.670   8.268  0.1273  0.3116 -2.1326
  135OSM   H17T14669   2.592   1.531   8.358  0.2680  3.6942  2.2448
  135OSM   C18S14670   2.478   1.595   8.191  0.1350  0.1828  0.3137
  135OSM   H18S14671   2.409   1.509   8.207 -1.0350  0.4711 -2.5581
  135OSM   H18T14672   2.484   1.606   8.080 -1.7362  1.5165  0.2960
  135OSM   H18U14673   2.431   1.692   8.219  0.8637  0.5344  0.3303
  135OSM    C1F14674   2.765   1.565   6.892  0.3656 -0.5333 -0.1175
  135OSM     OF14675   2.652   1.532   6.852  0.1583 -0.3474 -0.9568
  135OSM    C2F14676   2.792   1.691   6.971 -0.6448  0.4278  0.0971
  135OSM    H2F14677   2.814   1.777   6.905  0.1803  0.1395 -0.0252
  135OSM    H2G14678   2.879   1.675   7.040 -0.9224 -0.1176  0.3330
  135OSM    C3F14679   2.666   1.719   7.054 -0.2919  0.3827 -0.4136
  135OSM    H3F14680   2.623   1.633   7.110 -0.2879  0.0923 -0.8527
  135OSM    H3G14681   2.590   1.763   6.986 -0.6847  2.3460  1.1984
  135OSM    C4F14682   2.683   1.829   7.159  0.2737  0.4331 -0.1093
  135OSM    H4F14683   2.773   1.802   7.220  0.6376 -0.0511 -0.8429
  135OSM    H4G14684   2.594   1.819   7.225 -1.2841  1.0724 -2.0089
  135OSM    C5F14685   2.685   1.966   7.087 -0.3065 -0.4691  0.3426
  135OSM    H5F14686   2.597   1.956   7.020  0.3347  0.0662 -0.5942
  135OSM    H5G14687   2.780   1.970   7.030 -1.5581  1.4243 -1.7749
  135OSM    C6F14688   2.675   2.083   7.177 -0.7412 -0.2102  0.1519
  135OSM    H6F14689   2.689   2.182   7.129 -0.8002 -0.0499  0.4576
  135OSM    H6G14690   2.751   2.073   7.258 -1.2042  1.1820  0.7916
  135OSM    C7F14691   2.552   2.092   7.270 -0.1253 -0.1576  0.7448
  135OSM    H7F14692   2.548   2.004   7.338  0.1770 -1.8696 -1.3568
  135OSM    H7G14693   2.468   2.094   7.196 -1.1132 -1.0337  1.8062
  135OSM    C8F14694   2.548   2.222   7.360  0.1327  0.1616 -0.3787
  135OSM    H8F14695   2.445   2.240   7.398  0.3266 -0.2536  0.3659
  135OSM    H8G14696   2.569   2.315   7.303 -0.6524 -0.2044 -1.3043
  135OSM    C9F14697   2.629   2.208   7.492 -0.0539 -0.1405 -0.1528
  135OSM    H9F14698   2.735   2.216   7.467  0.2302  2.3782  1.4543
  135OSM   C10F14699   2.592   2.183   7.617  0.7028 -0.0778  0.4227
  135OSM   H10F14700   2.668   2.177   7.696  2.2692 -0.7041 -1.0796
  135OSM   C11F14701   2.453   2.157   7.676 -0.3452  0.0044  0.2603
  135OSM   H11F14702   2.461   2.065   7.737  0.9535  0.4297  0.7566
  135OSM   H11G14703   2.386   2.128   7.592  1.2344 -1.7564 -0.4665
  135OSM   C12F14704   2.400   2.272   7.758 -0.0272 -0.3691 -0.7511
  135OSM   H12F14705   2.292   2.253   7.772 -0.0630  0.1388 -0.2812
  135OSM   H12G14706   2.408   2.370   7.706  1.7775 -0.0073  0.1361
  135OSM   C13F14707   2.481   2.299   7.895  0.1866 -0.4755 -0.0943
  135OSM   H13F14708   2.577   2.349   7.867  1.0584 -2.8054 -1.4968
  135OSM   H13G14709   2.506   2.199   7.935  0.0945 -0.4834 -0.0585
  135OSM   C14F14710   2.391   2.381   7.994 -0.2499  0.0497  0.3083
  135OSM   H14F14711   2.295   2.327   8.008  1.2810 -2.9515  0.0636
  135OSM   H14G14712   2.364   2.481   7.954  1.7418  0.1534 -0.9468
  135OSM   C15F14713   2.460   2.394   8.137  0.1033 -0.2920  0.3703
  135OSM   H15F14714   2.493   2.296   8.176 -0.7384 -0.1046  1.6142
  135OSM   H15G14715   2.381   2.425   8.209 -0.0085 -2.8095  1.4360
  135OSM   C16F14716   2.583   2.475   8.134  0.1744 -0.3882  0.0849
  135OSM   H16F14717   2.542   2.577   8.116 -0.5144 -0.5241  0.7974
  135OSM   H16G14718   2.655   2.452   8.053 -0.7351  0.1175 -0.8804
  135OSM   C17F14719   2.660   2.492   8.269  0.1519  0.5680  0.3976
  135OSM   H17F14720   2.745   2.563   8.267  0.9092 -0.3062  0.5902
  135OSM   H17G14721   2.707   2.396   8.299 -1.1551 -0.1942  0.0812
  135OSM   C18F14722   2.567   2.545   8.377 -0.1166  0.2177  0.1310
  135OSM   H18F14723   2.512   2.457   8.417  0.4670  0.3743  1.3259
  135OSM   H18G14724   2.498   2.618   8.330  0.0501  1.3849  1.6435
  135OSM   H18H14725   2.612   2.600   8.462 -0.9661  0.7973  0.2125
  136OSM      N14726   1.042   1.983   6.080 -0.2071 -0.4558  0.9806
  136OSM    C1514727   0.983   2.024   6.207  0.0520 -0.3152 -0.2275
  136OSM   H15A14728   0.888   1.976   6.227 -0.5288  1.4557  1.6535
  136OSM   H15B14729   0.947   2.124   6.188 -0.1295  0.0472  1.8176
  136OSM   H15C14730   1.053   2.030   6.289 -1.3452  0.9004  0.9502
  136OSM    C1414731   1.112   1.862   6.097  0.6695  0.0317 -0.0019
  136OSM   H14A14732   1.194   1.879   6.165  0.1632  0.8533  0.4158
  136OSM   H14B14733   1.158   1.835   6.003 -0.4201 -0.8117 -0.3062
  136OSM   H14C14734   1.048   1.781   6.130 -0.0894  0.4267 -0.4833
  136OSM    C1314735   0.924   1.968   5.984  0.5618 -0.7630  0.3474
  136OSM   H13A14736   0.961   1.939   5.886  0.6447  0.5845 -0.0408
  136OSM   H13B14737   0.862   2.056   5.975  2.8024  0.8019 -0.4311
  136OSM   H13C14738   0.863   1.893   6.034 -0.1233 -0.4383  0.0188
  136OSM    C1214739   1.133   2.083   6.013  0.3001 -0.5794  0.5907
  136OSM   H12A14740   1.169   2.030   5.926 -0.8261 -1.7039  0.7771
  136OSM   H12B14741   1.214   2.113   6.077  0.2774  0.0855  0.3101
  136OSM    C1114742   1.069   2.211   5.954  0.6031 -0.3384  0.0344
  136OSM   H11A14743   1.000   2.190   5.869  1.0254 -0.3164 -0.3142
  136OSM   H11B14744   1.148   2.271   5.904  1.2339 -0.8269  0.4270
  136OSM      P14745   0.856   2.336   6.029 -0.4602 -0.2983 -0.7159
  136OSM    O1314746   0.860   2.393   5.893  0.0100  0.1529 -0.1174
  136OSM    O1414747   0.761   2.232   6.059  0.7274 -0.1212 -0.0892
  136OSM    O1114748   0.842   2.456   6.131  0.3302 -0.4010 -0.0229
  136OSM    O1214749   0.997   2.283   6.059 -0.0083 -0.3038 -0.2712
  136OSM    C1S14750   0.834   2.434   6.271 -0.5739  0.1191 -0.2408
  136OSM    H1S14751   0.905   2.352   6.296 -0.5862 -0.0608 -0.7842
  136OSM    H1T14752   0.744   2.376   6.301 -0.8781  0.3592 -0.6678
  136OSM     NF14753   0.843   2.532   6.497 -0.4501  0.8111 -0.4847
  136OSM    HNF14754   0.761   2.569   6.540 -0.2553  3.4942 -2.2080
  136OSM    C2S14755   0.848   2.564   6.350 -0.5637  0.1298 -0.2286
  136OSM    H2S14756   0.950   2.604   6.334  0.2262 -1.1621  1.3317
  136OSM    C3S14757   0.743   2.664   6.310  0.1176  0.3771  0.2557
  136OSM    H3S14758   0.643   2.615   6.313 -0.2911  0.8707 -2.5015
  136OSM     O314759   0.748   2.694   6.169  0.4285 -0.4002 -0.0513
  136OSM    HO314760   0.783   2.609   6.140 -1.2470 -0.4369 -2.2337
  136OSM    C4S14761   0.748   2.790   6.384  0.3047  0.2392  0.0305
  136OSM    H4S14762   0.664   2.812   6.452  0.9176  1.1869  0.5052
  136OSM    C5S14763   0.838   2.893   6.376  0.0311  0.4243 -0.1207
  136OSM    H5S14764   0.918   2.886   6.301 -0.3252  2.3857 -0.7496
  136OSM    C6S14765   0.834   3.020   6.461  0.4616 -0.4172 -0.1976
  136OSM    H6S14766   0.826   3.113   6.400  2.1256  0.1391  0.3946
  136OSM    H6T14767   0.932   3.025   6.511  0.1808  1.7021  0.2228
  136OSM    C7S14768   0.724   3.014   6.574 -0.4575  0.6586  0.5294
  136OSM    H7S14769   0.741   2.928   6.642 -2.2325 -0.4741 -0.3933
  136OSM    H7T14770   0.627   2.999   6.521 -1.2760  2.1139  1.5123
  136OSM    C8S14771   0.708   3.144   6.651 -0.2026 -0.3677  0.5870
  136OSM    H8S14772   0.684   3.223   6.575  0.5140 -1.0114 -0.3289
  136OSM    H8T14773   0.803   3.173   6.699 -0.7621  0.0546  1.4754
  136OSM    C9S14774   0.609   3.145   6.769 -0.3810  0.1758 -0.2756
  136OSM    H9S14775   0.618   3.046   6.818  0.8535 -0.3528 -1.5147
  136OSM    H9T14776   0.504   3.168   6.742 -0.4541 -0.8438 -0.9241
  136OSM   C10S14777   0.648   3.243   6.877 -0.4766 -0.0006 -0.9419
  136OSM   H10S14778   0.642   3.341   6.825  0.0523 -0.4221 -1.8244
  136OSM   H10T14779   0.749   3.220   6.918 -0.9433 -1.2213 -0.4352
  136OSM   C11S14780   0.541   3.239   6.989 -0.2620  0.3996 -0.2387
  136OSM   H11S14781   0.548   3.136   7.029 -0.4400  0.4801  0.0033
  136OSM   H11T14782   0.436   3.241   6.953  0.1113 -0.1157 -1.4308
  136OSM   C12S14783   0.561   3.354   7.092 -0.5036 -0.4557 -0.9663
  136OSM   H12S14784   0.523   3.455   7.065  0.7753  0.5443  0.7699
  136OSM   H12T14785   0.669   3.358   7.115 -0.9244  0.2133  1.0619
  136OSM   C13S14786   0.500   3.335   7.231 -0.4790  0.0235  0.3939
  136OSM   H13S14787   0.520   3.232   7.268  2.7049  0.9002  1.4179
  136OSM   H13T14788   0.390   3.353   7.232 -0.4123  0.4492  1.4642
  136OSM   C14S14789   0.573   3.421   7.336  0.2040  0.2558  0.6509
  136OSM   H14S14790   0.565   3.526   7.301 -0.6230  0.7104  2.1174
  136OSM   H14T14791   0.682   3.400   7.334  0.1761  0.0705  1.0038
  136OSM   C15S14792   0.516   3.406   7.471  0.0167  0.1770 -0.3301
  136OSM   H15S14793   0.426   3.341   7.472  1.1371 -1.4746 -1.2621
  136OSM   H15T14794   0.508   3.512   7.502 -0.4972  0.3870 -1.1433
  136OSM   C16S14795   0.610   3.333   7.571  0.0363 -1.0611  0.3502
  136OSM   H16S14796   0.715   3.347   7.538  0.6833 -1.7160  2.0187
  136OSM   H16T14797   0.574   3.228   7.562 -1.0601 -0.6349 -0.4181
  136OSM   C17S14798   0.599   3.394   7.710 -0.4047  0.4232  0.2447
  136OSM   H17S14799   0.499   3.377   7.757 -0.4996  1.1846  0.3270
  136OSM   H17T14800   0.618   3.503   7.711  2.9636 -0.0704 -0.2587
  136OSM   C18S14801   0.696   3.327   7.812  0.0918 -0.2788  0.1288
  136OSM   H18S14802   0.694   3.216   7.811 -0.8426 -0.2703 -0.8851
  136OSM   H18T14803   0.662   3.345   7.917 -0.2239 -0.1650  0.0087
  136OSM   H18U14804   0.798   3.370   7.799 -0.4162  1.0848  0.4032
  136OSM    C1F14805   0.937   2.451   6.553  0.4816 -0.0704  0.2769
  136OSM     OF14806   1.034   2.418   6.489 -0.3372  0.1224  0.0878
  136OSM    C2F14807   0.897   2.403   6.687  0.0503  0.7242 -0.1332
  136OSM    H2F14808   0.792   2.367   6.689  0.1571  0.0981  4.1254
  136OSM    H2G14809   0.920   2.485   6.758  1.0370  0.0082  0.4032
  136OSM    C3F14810   0.979   2.277   6.730 -0.3839  0.6514  0.4063
  136OSM    H3F14811   1.085   2.308   6.735 -0.7365  2.3993 -1.6688
  136OSM    H3G14812   0.970   2.207   6.644  1.3766 -0.0937  0.7865
  136OSM    C4F14813   0.928   2.206   6.862 -0.2373  0.0339  0.9608
  136OSM    H4F14814   1.009   2.137   6.895  0.3129  1.5107  2.9468
  136OSM    H4G14815   0.833   2.150   6.856 -0.8423  1.1583 -0.6216
  136OSM    C5F14816   0.918   2.307   6.974  0.4062  0.6083  0.6568
  136OSM    H5F14817   0.846   2.383   6.936  0.4863 -0.6233 -2.1468
  136OSM    H5G14818   1.017   2.355   6.990  0.1081  1.8515 -0.9517
  136OSM    C6F14819   0.872   2.250   7.115  0.4171 -0.0677 -0.2366
  136OSM    H6F14820   0.958   2.191   7.154  0.3152  0.3473  0.6436
  136OSM    H6G14821   0.782   2.189   7.096 -0.2823  0.1962  1.9952
  136OSM    C7F14822   0.838   2.363   7.218  0.2918 -0.4850 -0.0405
  136OSM    H7F14823   0.738   2.407   7.197 -0.4572 -2.2706 -0.4592
  136OSM    H7G14824   0.913   2.445   7.213 -1.0346  0.8825  1.2353
  136OSM    C8F14825   0.846   2.309   7.361  0.1709  0.8144 -0.5423
  136OSM    H8F14826   0.834   2.392   7.434 -1.5101  0.1736 -0.0585
  136OSM    H8G14827   0.954   2.280   7.363  0.1858  0.7752 -1.4566
  136OSM    C9F14828   0.751   2.194   7.395  0.6354 -0.3966 -0.2974
  136OSM    H9F14829   0.785   2.092   7.372  1.0353 -0.3174 -0.0708
  136OSM   C10F14830   0.628   2.206   7.442 -0.4545  0.1600  0.3193
  136OSM   H10F14831   0.579   2.114   7.478  2.1800 -0.2882  3.1052
  136OSM   C11F14832   0.563   2.336   7.478  0.0504 -0.0091  0.3565
  136OSM   H11F14833   0.534   2.395   7.389 -1.5607  0.3043  1.0414
  136OSM   H11G14834   0.636   2.407   7.524 -2.5866  2.0389  1.7355
  136OSM   C12F14835   0.444   2.326   7.569 -0.2067 -0.5402 -0.0414
  136OSM   H12F14836   0.368   2.268   7.511  1.6593 -1.2580 -1.9149
  136OSM   H12G14837   0.406   2.428   7.589  0.2248 -0.5170  0.6675
  136OSM   C13F14838   0.485   2.266   7.706 -0.2540 -0.1532  0.3909
  136OSM   H13F14839   0.552   2.180   7.687  0.9298  0.2241  2.5456
  136OSM   H13G14840   0.391   2.256   7.765 -0.5286  0.4308  0.0574
  136OSM   C14F14841   0.587   2.362   7.781 -0.3616  0.0392 -0.1278
  136OSM   H14F14842   0.532   2.458   7.779 -2.1191 -0.7904  2.5436
  136OSM   H14G14843   0.686   2.371   7.730  0.7217  1.0193  1.9916
  136OSM   C15F14844   0.634   2.326   7.918  0.1813  0.6855 -0.5418
  136OSM   H15F14845   0.542   2.315   7.980 -0.0321  1.4047 -0.7286
  136OSM   H15G14846   0.689   2.405   7.973 -0.0580  0.5472 -0.0924
  136OSM   C16F14847   0.716   2.195   7.913 -0.2002  0.4801 -0.0341
  136OSM   H16F14848   0.798   2.208   7.840 -0.5768 -0.3132 -0.6165
  136OSM   H16G14849   0.659   2.107   7.876  1.6515 -1.6641  1.8279
  136OSM   C17F14850   0.786   2.152   8.043  0.5358 -0.0391  0.0927
  136OSM   H17F14851   0.705   2.134   8.117  0.5082 -2.1615 -0.3723
  136OSM   H17G14852   0.847   2.238   8.074 -0.3038  1.1227 -1.3365
  136OSM   C18F14853   0.860   2.021   8.025 -0.3940  0.0738  0.3011
  136OSM   H18F14854   0.959   2.038   7.979  1.0210 -0.4432  2.9446
  136OSM   H18G14855   0.803   1.947   7.965 -0.2108 -0.4011  0.7065
  136OSM   H18H14856   0.873   1.986   8.130  0.0115  0.7462  0.4830
  137OSM      N14857   4.173   1.350   6.321 -0.6986  0.4165 -0.4286
  137OSM    C1514858   4.316   1.312   6.312  0.0337 -0.7079 -0.6235
  137OSM   H15A14859   4.341   1.247   6.394 -1.2494  0.9175  1.1320
  137OSM   H15B14860   4.381   1.398   6.324  1.2886 -1.8019  0.7529
  137OSM   H15C14861   4.343   1.275   6.214  0.7125 -0.8161 -0.3995
  137OSM    C1414862   4.143   1.466   6.229  0.0597 -0.2194  0.7947
  137OSM   H14A14863   4.182   1.560   6.263  2.3393 -0.6235 -0.4899
  137OSM   H14B14864   4.038   1.458   6.203  0.5097 -2.2164 -0.7322
  137OSM   H14C14865   4.188   1.449   6.132 -1.3048 -2.2178  0.4359
  137OSM    C1314866   4.100   1.234   6.266 -0.5093 -0.4319  0.1940
  137OSM   H13A14867   4.114   1.231   6.159 -0.3188  0.4461  0.1855
  137OSM   H13B14868   3.994   1.247   6.279  0.0328  2.6257  2.7037
  137OSM   H13C14869   4.135   1.142   6.311 -1.3965 -0.2622  1.2779
  137OSM    C1214870   4.126   1.378   6.462  0.3482  0.0794  0.1974
  137OSM   H12A14871   4.136   1.294   6.530 -0.5809 -0.4282 -0.2746
  137OSM   H12B14872   4.025   1.414   6.448 -0.2890 -1.9327 -0.7998
  137OSM    C1114873   4.212   1.477   6.545  0.1681  0.1643 -0.4298
  137OSM   H11A14874   4.318   1.444   6.556 -0.4381 -1.3408  1.4991
  137OSM   H11B14875   4.179   1.487   6.651  1.3580 -1.6313  0.1590
  137OSM      P14876   4.322   1.703   6.488 -0.3972  0.3827  0.3999
  137OSM    O1314877   4.410   1.671   6.371  0.3194  0.3529  0.4724
  137OSM    O1414878   4.280   1.844   6.502  0.6010  0.4949  0.7631
  137OSM    O1114879   4.390   1.660   6.622 -0.4704 -0.4021 -0.0015
  137OSM    O1214880   4.197   1.607   6.486 -0.0222  0.1278  0.1473
  137OSM    C1S14881   4.341   1.718   6.743 -0.2998 -1.0495 -0.5471
  137OSM    H1S14882   4.231   1.732   6.740 -0.1547  1.1921  1.2875
  137OSM    H1T14883   4.379   1.821   6.762  4.7626 -3.0310  2.0694
  137OSM     NF14884   4.295   1.656   6.984 -0.0172 -0.3671  0.5204
  137OSM    HNF14885   4.341   1.712   7.053 -0.8329 -0.4140  1.1244
  137OSM    C2S14886   4.378   1.633   6.872 -0.6909 -0.4268  0.3772
  137OSM    H2S14887   4.372   1.526   6.843  2.2104 -0.5436 -0.1774
  137OSM    C3S14888   4.532   1.657   6.897 -0.0863  0.1811 -0.4309
  137OSM    H3S14889   4.561   1.757   6.936  0.4562  0.0045 -0.3670
  137OSM     O314890   4.621   1.648   6.783  0.5132 -0.4166 -0.8580
  137OSM    HO314891   4.556   1.652   6.712  1.0843 -2.1251 -1.5192
  137OSM    C4S14892   4.577   1.563   7.009  0.0330  0.0949  0.4022
  137OSM    H4S14893   4.553   1.610   7.105 -1.4146 -2.2098  1.2633
  137OSM    C5S14894   4.621   1.439   6.997 -0.4371 -0.1200 -0.0538
  137OSM    H5S14895   4.623   1.395   6.897  0.9371 -1.3240  0.4640
  137OSM    C6S14896   4.662   1.341   7.103 -0.4667  0.4589  0.2947
  137OSM    H6S14897   4.773   1.336   7.116 -0.4351 -0.3126 -0.1611
  137OSM    H6T14898   4.643   1.241   7.057  0.6554  1.2686 -2.1472
  137OSM    C7S14899   4.611   1.371   7.247 -0.1830  0.7027  0.2337
  137OSM    H7S14900   4.504   1.346   7.257  0.4387 -2.1814  0.7962
  137OSM    H7T14901   4.629   1.478   7.273 -0.2164 -0.4211  6.5631
  137OSM    C8S14902   4.698   1.285   7.338  0.2570  0.3784 -0.1877
  137OSM    H8S14903   4.805   1.310   7.322  0.3928 -0.7458 -1.1834
  137OSM    H8T14904   4.681   1.181   7.304  1.2227  0.7224 -1.8844
  137OSM    C9S14905   4.673   1.327   7.484  0.7428 -0.5493  0.4069
  137OSM    H9S14906   4.563   1.321   7.495  0.8363 -2.4575  0.6837
  137OSM    H9T14907   4.707   1.433   7.492  2.7661 -0.9146 -2.1759
  137OSM   C10S14908   4.717   1.235   7.589  0.0361  0.1836 -0.8455
  137OSM   H10S14909   4.826   1.214   7.581 -0.0429 -0.2937 -0.6558
  137OSM   H10T14910   4.666   1.137   7.585 -1.3831  0.7868  1.1419
  137OSM   C11S14911   4.692   1.295   7.728 -0.5669 -0.2903 -0.6296
  137OSM   H11S14912   4.595   1.350   7.718  0.0664  0.6691 -1.7755
  137OSM   H11T14913   4.767   1.375   7.749 -1.4165  0.0789  1.1700
  137OSM   C12S14914   4.691   1.189   7.837  0.2695  0.0890  0.0479
  137OSM   H12S14915   4.785   1.135   7.862 -1.4827 -2.0735  2.4575
  137OSM   H12T14916   4.619   1.106   7.822  0.2288 -0.2730  2.0369
  137OSM   C13S14917   4.640   1.251   7.966  0.1346 -0.1139  0.1114
  137OSM   H13S14918   4.546   1.308   7.951 -0.6250 -0.5406  2.7972
  137OSM   H13T14919   4.720   1.324   7.990 -0.3007  0.1788  0.7098
  137OSM   C14S14920   4.605   1.156   8.082  0.0508 -0.4566 -0.1437
  137OSM   H14S14921   4.694   1.089   8.087  1.3732  1.2612 -0.0458
  137OSM   H14T14922   4.516   1.097   8.050 -0.8038  0.9734 -0.4928
  137OSM   C15S14923   4.572   1.217   8.223 -0.1175 -0.8623 -0.1654
  137OSM   H15S14924   4.547   1.138   8.298 -0.0062 -0.6451  0.1056
  137OSM   H15T14925   4.483   1.280   8.202  1.4489  1.1389 -1.1460
  137OSM   C16S14926   4.681   1.311   8.285 -0.3801 -0.5997 -0.0336
  137OSM   H16S14927   4.709   1.383   8.205 -0.0733  1.2709  1.6698
  137OSM   H16T14928   4.763   1.239   8.301 -0.2874 -1.4149 -3.5123
  137OSM   C17S14929   4.634   1.384   8.415  0.5799  0.2093  0.3891
  137OSM   H17S14930   4.534   1.433   8.418 -0.4339 -1.7162 -0.3553
  137OSM   H17T14931   4.715   1.459   8.431  0.9637 -0.0286 -0.4010
  137OSM   C18S14932   4.667   1.296   8.541 -0.2125 -0.1010  0.1728
  137OSM   H18S14933   4.618   1.197   8.527  1.9265 -0.8846 -3.1350
  137OSM   H18T14934   4.639   1.335   8.640 -3.1577 -0.4383 -0.4491
  137OSM   H18U14935   4.776   1.274   8.531 -0.5766 -1.3302 -1.6169
  137OSM    C1F14936   4.167   1.633   6.982  0.3394  0.0588 -0.9077
  137OSM     OF14937   4.112   1.585   6.884  0.4514  0.3378 -0.1495
  137OSM    C2F14938   4.098   1.652   7.116 -0.1319 -0.5616  0.0540
  137OSM    H2F14939   4.096   1.761   7.141  1.1269 -0.3923 -0.4954
  137OSM    H2G14940   4.153   1.593   7.192  0.3720 -0.1522  0.0189
  137OSM    C3F14941   3.949   1.593   7.121 -0.4788  0.2202 -0.2085
  137OSM    H3F14942   3.951   1.492   7.075  1.8415  0.6784 -1.2582
  137OSM    H3G14943   3.891   1.665   7.059 -0.7512  1.3291  1.2705
  137OSM    C4F14944   3.872   1.585   7.252 -0.1410  0.2518  0.0613
  137OSM    H4F14945   3.909   1.500   7.313 -1.4014 -0.5800 -0.3023
  137OSM    H4G14946   3.763   1.571   7.242  0.2365 -1.1264 -4.8967
  137OSM    C5F14947   3.902   1.696   7.352 -0.4254  0.4678  0.1638
  137OSM    H5F14948   3.870   1.794   7.312  0.9283  0.6847 -0.4470
  137OSM    H5G14949   4.012   1.697   7.369 -0.2326 -0.5047 -0.8707
  137OSM    C6F14950   3.827   1.666   7.487  0.0370  0.2400 -0.4264
  137OSM    H6F14951   3.879   1.734   7.558  1.6598 -1.4436  0.0871
  137OSM    H6G14952   3.857   1.570   7.535 -0.0676  1.3289  1.9834
  137OSM    C7F14953   3.676   1.686   7.477 -0.8146 -0.7543 -0.0215
  137OSM    H7F14954   3.621   1.611   7.416 -0.4194 -0.6314 -0.5318
  137OSM    H7G14955   3.660   1.782   7.424  0.4456  0.3270  1.4567
  137OSM    C8F14956   3.609   1.688   7.614  0.0583  0.3332 -0.9943
  137OSM    H8F14957   3.647   1.598   7.666 -1.4682  1.4408  2.3759
  137OSM    H8G14958   3.500   1.666   7.602  0.4814 -0.8556 -3.0192
  137OSM    C9F14959   3.642   1.810   7.706  0.1165  0.2208  0.0512
  137OSM    H9F14960   3.600   1.907   7.675  1.5914  0.4886 -1.2509
  137OSM   C10F14961   3.709   1.808   7.820 -0.0525 -0.1681 -0.2063
  137OSM   H10F14962   3.721   1.903   7.875  1.0535 -0.5820  0.3086
  137OSM   C11F14963   3.754   1.683   7.886  0.2938 -0.2100 -0.5160
  137OSM   H11F14964   3.812   1.622   7.813  0.0160 -2.8121  1.2931
  137OSM   H11G14965   3.663   1.631   7.921  0.3813 -0.0780 -0.0862
  137OSM   C12F14966   3.845   1.694   8.012 -0.5681 -0.4610  0.0336
  137OSM   H12F14967   3.932   1.760   7.991 -1.1757  0.4805  0.4089
  137OSM   H12G14968   3.885   1.597   8.047  1.2743  0.8269  1.6706
  137OSM   C13F14969   3.764   1.757   8.134 -0.0395 -0.3096  0.4607
  137OSM   H13F14970   3.673   1.696   8.152 -0.7763  1.0038  1.3346
  137OSM   H13G14971   3.733   1.860   8.109  0.6858  0.2138  1.6256
  137OSM   C14F14972   3.848   1.766   8.260 -0.7820 -0.1787 -0.3687
  137OSM   H14F14973   3.799   1.831   8.335 -0.5993 -0.9546  0.4385
  137OSM   H14G14974   3.942   1.821   8.239 -0.6814  0.7422  2.1756
  137OSM   C15F14975   3.881   1.632   8.323 -0.9572  0.3264 -0.5859
  137OSM   H15F14976   3.981   1.634   8.370 -1.3332 -1.0269  0.3420
  137OSM   H15G14977   3.885   1.548   8.252 -0.4037 -0.1910  0.0481
  137OSM   C16F14978   3.775   1.597   8.431  0.3271  0.3386  0.1948
  137OSM   H16F14979   3.672   1.597   8.389  1.0485  0.4381 -1.6764
  137OSM   H16G14980   3.790   1.682   8.501  0.1944  1.4041 -1.0346
  137OSM   C17F14981   3.816   1.467   8.510  0.3097  0.1213  0.1910
  137OSM   H17F14982   3.923   1.478   8.534  0.1197 -0.1790  1.2024
  137OSM   H17G14983   3.797   1.379   8.444  0.7298  0.3962 -0.3074
  137OSM   C18F14984   3.726   1.453   8.633 -0.1012  0.5230 -0.0041
  137OSM   H18F14985   3.721   1.349   8.673  0.1108  0.6159  0.2691
  137OSM   H18G14986   3.622   1.485   8.612 -0.3312 -0.6202 -0.6985
  137OSM   H18H14987   3.762   1.525   8.710 -0.1898  2.1626 -1.4321
  138OSM      N14988   4.008   3.772   6.295 -0.4183 -0.1592  0.4208
  138OSM    C1514989   3.955   3.678   6.385  0.3547  0.5783 -1.2199
  138OSM   H15A14990   4.030   3.607   6.415 -1.7234 -0.2274  2.7812
  138OSM   H15B14991   3.878   3.618   6.338 -0.2798  0.7742 -0.4485
  138OSM   H15C14992   3.918   3.720   6.477  2.6516 -1.3852  0.7334
  138OSM    C1414993   4.043   3.692   6.172  0.3596 -0.4624 -0.5004
  138OSM   H14A14994   4.104   3.607   6.199  0.1642 -1.9833 -4.2693
  138OSM   H14B14995   4.093   3.747   6.094  0.7122  1.0438  0.7405
  138OSM   H14C14996   3.959   3.639   6.127  0.3528  0.2570 -1.3666
  138OSM    C1314997   3.906   3.881   6.257  0.4979  0.1907  0.7750
  138OSM   H13A14998   3.810   3.834   6.243  1.3078 -1.7728  1.4786
  138OSM   H13B14999   3.957   3.918   6.169  2.5416 -1.5326  1.1469
  138OSM   H13C15000   3.898   3.953   6.336  0.8015  0.5071  0.5209
  138OSM    C1215001   4.136   3.832   6.351  0.5204  0.0234 -0.3886
  138OSM   H12A15002   4.210   3.754   6.342 -0.0392 -0.5139 -0.3923
  138OSM   H12B15003   4.120   3.846   6.457  1.0727 -1.9700 -0.0020
  138OSM    C1115004   4.178   3.950   6.276 -0.1265 -0.6162  0.2467
  138OSM   H11A15005   4.108   4.031   6.305 -0.4120  0.1546 -2.3026
  138OSM   H11B15006   4.188   3.934   6.166  3.4994 -1.2111  0.5190
  138OSM      P15007   4.364   4.136   6.283 -0.5344 -0.7138 -0.0392
  138OSM    O1315008   4.500   4.129   6.228 -0.5101  0.2439 -0.2909
  138OSM    O1415009   4.273   4.212   6.201 -0.0105 -0.0868  0.2262
  138OSM    O1115010   4.378   4.215   6.421  0.2992 -0.0533 -0.6524
  138OSM    O1215011   4.306   3.995   6.324 -0.3635  0.2513 -0.6443
  138OSM    C1S15012   4.270   4.216   6.520 -0.9327 -0.1449  0.0419
  138OSM    H1S15013   4.193   4.137   6.508 -1.1075 -0.2213  1.5539
  138OSM    H1T15014   4.213   4.308   6.497 -1.4741 -0.2594  0.8844
  138OSM     NF15015   4.208   4.254   6.755  0.3303  0.0483  0.1378
  138OSM    HNF15016   4.202   4.352   6.771  1.7449  0.1771  0.0475
  138OSM    C2S15017   4.313   4.208   6.671 -0.0485  0.2027 -0.5400
  138OSM    H2S15018   4.343   4.103   6.694  0.1455  0.4782  0.5059
  138OSM    C3S15019   4.445   4.281   6.690  0.2333  0.1086 -0.4268
  138OSM    H3S15020   4.437   4.383   6.647 -2.1661 -0.1608 -0.7469
  138OSM     O315021   4.559   4.233   6.623  0.5173 -0.3673 -0.2303
  138OSM    HO315022   4.527   4.207   6.536 -0.2154  0.6840 -0.3061
  138OSM    C4S15023   4.472   4.292   6.836  0.1284 -1.2321 -0.1156
  138OSM    H4S15024   4.479   4.192   6.882  1.8901 -2.3224 -2.5104
  138OSM    C5S15025   4.493   4.399   6.916  0.6630 -0.0504  1.2060
  138OSM    H5S15026   4.493   4.494   6.860 -3.5439 -2.5089 -3.8558
  138OSM    C6S15027   4.521   4.415   7.060  0.4264 -0.1022 -0.5471
  138OSM    H6S15028   4.548   4.520   7.083  0.7573 -0.0809 -1.0124
  138OSM    H6T15029   4.598   4.341   7.091  2.7246  1.8394 -1.2453
  138OSM    C7S15030   4.387   4.392   7.136  0.7362 -0.2993 -0.7586
  138OSM    H7S15031   4.345   4.289   7.130 -0.8423 -0.1376  3.7424
  138OSM    H7T15032   4.316   4.468   7.098  1.4080  0.8612  0.2221
  138OSM    C8S15033   4.410   4.421   7.289  0.1565 -0.7690  0.0972
  138OSM    H8S15034   4.499   4.364   7.323  1.6394  0.8673 -0.8912
  138OSM    H8T15035   4.326   4.373   7.345 -0.9099 -1.5137 -2.0448
  138OSM    C9S15036   4.419   4.574   7.333 -0.2000 -0.5471 -0.1376
  138OSM    H9S15037   4.323   4.624   7.311  0.4533  1.8019  1.8899
  138OSM    H9T15038   4.502   4.625   7.279  0.9122 -0.6006  1.4552
  138OSM   C10S15039   4.442   4.588   7.482 -0.5182 -0.1609 -0.4659
  138OSM   H10S15040   4.516   4.668   7.503  1.0169 -2.3333  3.5518
  138OSM   H10T15041   4.487   4.497   7.529  0.8019  1.4794  1.6267
  138OSM   C11S15042   4.309   4.601   7.562 -0.5229 -0.2807 -0.2892
  138OSM   H11S15043   4.259   4.502   7.556 -0.2545 -0.5047  0.8476
  138OSM   H11T15044   4.252   4.677   7.506 -1.5735 -1.7545 -1.2995
  138OSM   C12S15045   4.305   4.625   7.714  0.2354  0.0651 -0.5088
  138OSM   H12S15046   4.204   4.660   7.745  1.1553  3.0091 -0.4729
  138OSM   H12T15047   4.376   4.711   7.717  0.3714 -0.0032 -1.4720
  138OSM   C13S15048   4.351   4.505   7.792  0.0809 -0.8296 -0.5056
  138OSM   H13S15049   4.446   4.477   7.740  0.0129  0.0230 -1.1182
  138OSM   H13T15050   4.289   4.414   7.786  1.5906 -2.1732  2.2091
  138OSM   C14S15051   4.383   4.524   7.937  0.4093 -0.0632 -1.0810
  138OSM   H14S15052   4.453   4.604   7.970  0.7110 -0.8743  0.3373
  138OSM   H14T15053   4.421   4.427   7.976  0.0306  0.1550 -0.1333
  138OSM   C15S15054   4.253   4.542   8.007 -0.5192  0.2469 -0.1010
  138OSM   H15S15055   4.168   4.474   7.985 -0.0431 -0.8901  1.3586
  138OSM   H15T15056   4.207   4.641   7.985 -3.1419 -1.3149 -2.2960
  138OSM   C16S15057   4.255   4.540   8.159  0.1662 -0.2025 -0.3673
  138OSM   H16S15058   4.349   4.595   8.182 -0.1710  1.4746 -2.7020
  138OSM   H16T15059   4.276   4.437   8.195  0.2696 -0.3212 -0.7610
  138OSM   C17S15060   4.132   4.606   8.221 -0.5458 -0.0658 -0.6955
  138OSM   H17S15061   4.076   4.534   8.284 -0.1727 -1.5087 -1.9593
  138OSM   H17T15062   4.057   4.624   8.141 -2.1196 -0.4658  0.6421
  138OSM   C18S15063   4.154   4.734   8.305 -0.8545  0.8050 -0.0122
  138OSM   H18S15064   4.057   4.776   8.339 -1.1786 -1.0845  1.6287
  138OSM   H18T15065   4.213   4.813   8.254  2.8435 -0.9736  1.1546
  138OSM   H18U15066   4.214   4.702   8.393  1.1430 -0.6138 -1.7926
  138OSM    C1F15067   4.093   4.181   6.772  0.5593  0.5577 -0.1876
  138OSM     OF15068   4.074   4.072   6.711  0.5976 -0.0711  0.0614
  138OSM    C2F15069   3.984   4.234   6.863 -0.3161  0.3636 -0.0052
  138OSM    H2F15070   3.910   4.285   6.798  0.7818 -0.1433 -1.7516
  138OSM    H2G15071   4.029   4.308   6.932 -0.3410  0.2667  0.1147
  138OSM    C3F15072   3.918   4.123   6.944  0.2061 -0.0894  0.4270
  138OSM    H3F15073   3.890   4.053   6.862 -0.9546 -2.1646  2.4631
  138OSM    H3G15074   3.831   4.156   7.003  1.3008  0.8437  1.5856
  138OSM    C4F15075   4.007   4.026   7.033  0.2166  0.2825  0.0707
  138OSM    H4F15076   4.058   3.947   6.974 -1.9386 -0.6973 -0.5588
  138OSM    H4G15077   3.945   3.965   7.102  0.7706 -0.2313  0.1196
  138OSM    C5F15078   4.127   4.096   7.105 -0.2373 -0.2008 -0.1386
  138OSM    H5F15079   4.185   4.161   7.035  0.7709  0.1671  1.0040
  138OSM    H5G15080   4.184   4.004   7.134  0.0168 -0.2546 -0.7785
  138OSM    C6F15081   4.116   4.170   7.234 -0.6570 -0.3716  0.3328
  138OSM    H6F15082   4.075   4.270   7.207 -1.4644 -0.5187  0.9573
  138OSM    H6G15083   4.218   4.180   7.275 -0.5643 -2.6138  0.7345
  138OSM    C7F15084   4.024   4.116   7.347  0.4679  0.4908 -0.0640
  138OSM    H7F15085   4.063   4.013   7.367  2.6131  1.3878  0.7081
  138OSM    H7G15086   3.922   4.093   7.312  0.4118  2.1679 -1.1193
  138OSM    C8F15087   4.015   4.208   7.477  0.8125 -0.1321  0.5682
  138OSM    H8F15088   3.998   4.312   7.441  0.6364 -0.7576 -1.2565
  138OSM    H8G15089   4.109   4.214   7.536  1.6972  0.7434 -0.8674
  138OSM    C9F15090   3.894   4.157   7.555 -0.4204  0.1742 -0.2688
  138OSM    H9F15091   3.801   4.155   7.498 -1.7970  1.8016  1.7712
  138OSM   C10F15092   3.899   4.107   7.683 -0.4593  0.1837 -0.3272
  138OSM   H10F15093   3.811   4.055   7.723 -0.3027  0.0335 -0.1769
  138OSM   C11F15094   4.020   4.111   7.776 -0.7174 -0.2950  0.2776
  138OSM   H11F15095   4.106   4.166   7.732 -0.6944 -0.3523  0.2506
  138OSM   H11G15096   4.050   4.010   7.809 -0.7594 -0.2448  0.4688
  138OSM   C12F15097   4.006   4.182   7.915 -0.0085  0.4219 -0.4313
  138OSM   H12F15098   3.920   4.147   7.977 -0.5133 -0.9903 -1.8770
  138OSM   H12G15099   3.976   4.284   7.883 -0.5280  0.5297  0.3482
  138OSM   C13F15100   4.129   4.152   7.999  0.0497 -0.4062  0.2532
  138OSM   H13F15101   4.216   4.209   7.959 -1.4083  0.9492 -1.1063
  138OSM   H13G15102   4.173   4.051   7.988 -2.1706 -1.7187  2.3196
  138OSM   C14F15103   4.100   4.171   8.148 -0.4208  0.3150 -0.2450
  138OSM   H14F15104   4.015   4.109   8.184 -1.1526  1.0064 -0.7380
  138OSM   H14G15105   4.060   4.272   8.173  1.1562  0.7722  0.6028
  138OSM   C15F15106   4.220   4.144   8.240  0.0533  0.3735  0.3350
  138OSM   H15F15107   4.299   4.202   8.186 -0.2939 -0.5925 -1.2581
  138OSM   H15G15108   4.240   4.036   8.227  3.7342  0.7721  1.4523
  138OSM   C16F15109   4.196   4.177   8.386  0.4185 -0.6355 -0.4568
  138OSM   H16F15110   4.101   4.126   8.414 -0.7819  1.0348 -1.2922
  138OSM   H16G15111   4.180   4.287   8.392 -0.0792 -0.6519 -1.3226
  138OSM   C17F15112   4.308   4.136   8.474  0.0908 -0.3878 -0.2982
  138OSM   H17F15113   4.390   4.210   8.464  0.0674 -0.0372  1.8178
  138OSM   H17G15114   4.349   4.039   8.437  0.1460 -0.3088 -0.4478
  138OSM   C18F15115   4.262   4.127   8.623  0.5252  0.3427  0.0227
  138OSM   H18F15116   4.341   4.077   8.683  0.4398 -0.0258 -0.1632
  138OSM   H18G15117   4.170   4.064   8.624  2.1858 -2.2337  1.5438
  138OSM   H18H15118   4.245   4.230   8.660  1.4502  1.4884 -2.4824
  139OSM      N15119   3.351   4.683   6.051 -0.6260  0.3224 -0.0733
  139OSM    C1515120   3.450   4.793   6.016 -0.4195  0.2528  0.1631
  139OSM   H15A15121   3.519   4.764   5.939  1.7917 -0.7850  2.3953
  139OSM   H15B15122   3.521   4.810   6.095  0.4208 -2.4488  0.0742
  139OSM   H15C15123   3.399   4.878   5.973 -0.1012  1.1868  1.5478
  139OSM    C1415124   3.242   4.687   5.942  0.1499  0.6715  0.0871
  139OSM   H14A15125   3.197   4.784   5.927 -0.1543  0.9507  2.3251
  139OSM   H14B15126   3.154   4.626   5.959 -0.8898  0.9816 -3.4367
  139OSM   H14C15127   3.271   4.649   5.846 -1.2820  1.1411 -0.5589
  139OSM    C1315128   3.420   4.550   6.070  0.2045 -0.0754  0.4881
  139OSM   H13A15129   3.500   4.571   6.139 -0.1735  1.6376  0.4507
  139OSM   H13B15130   3.463   4.506   5.981 -0.5136 -1.9081  0.9946
  139OSM   H13C15131   3.353   4.478   6.116  1.2390 -0.0239  2.1488
  139OSM    C1215132   3.291   4.734   6.178 -0.7060 -0.6677  0.7240
  139OSM   H12A15133   3.236   4.821   6.145  1.4896 -0.0778 -1.7808
  139OSM   H12B15134   3.366   4.782   6.238 -0.2413 -0.5887  0.0878
  139OSM    C1115135   3.212   4.640   6.268  0.1260  0.3273 -0.3018
  139OSM   H11A15136   3.180   4.689   6.362 -0.8671 -0.8700  0.0198
  139OSM   H11B15137   3.265   4.551   6.310 -1.3636 -0.2087  0.5327
  139OSM      P15138   2.952   4.640   6.227  0.3194 -0.3060  0.6372
  139OSM    O1315139   2.947   4.769   6.163  0.0878 -0.2950  0.4357
  139OSM    O1415140   2.855   4.541   6.174  0.0534  0.2976  0.0878
  139OSM    O1115141   2.941   4.653   6.379 -0.2388 -0.2745  0.6751
  139OSM    O1215142   3.095   4.581   6.203 -0.0153 -0.5231  0.0560
  139OSM    C1S15143   2.944   4.539   6.460 -0.1716  0.7629 -0.4910
  139OSM    H1S15144   3.044   4.520   6.505 -0.6307  2.2928  1.2628
  139OSM    H1T15145   2.918   4.439   6.418 -1.1762  0.3808  0.9628
  139OSM     NF15146   2.887   4.482   6.699  0.1927  0.2049 -0.3201
  139OSM    HNF15147   2.842   4.393   6.698  1.5019 -0.4953  0.5876
  139OSM    C2S15148   2.850   4.566   6.586 -0.1433 -0.3247  1.5150
  139OSM    H2S15149   2.882   4.667   6.618  2.5173 -0.7528  0.5553
  139OSM    C3S15150   2.697   4.550   6.555  0.2103  0.0947 -0.0747
  139OSM    H3S15151   2.686   4.441   6.537  1.2159 -0.2043  0.9864
  139OSM     O315152   2.655   4.607   6.433  0.1748 -0.0065 -0.7443
  139OSM    HO315153   2.719   4.675   6.412 -0.7018  0.8665 -0.6446
  139OSM    C4S15154   2.618   4.593   6.672 -0.1163 -0.1265 -0.4153
  139OSM    H4S15155   2.648   4.684   6.726  2.4009 -1.8925  1.3806
  139OSM    C5S15156   2.516   4.518   6.724  0.5153  0.7416 -0.3661
  139OSM    H5S15157   2.479   4.434   6.663 -0.6564  1.8789 -1.2543
  139OSM    C6S15158   2.426   4.550   6.839 -0.0961 -0.2292 -0.0583
  139OSM    H6S15159   2.362   4.465   6.869 -1.3779  1.9320  4.1149
  139OSM    H6T15160   2.369   4.631   6.787  2.1088 -0.0024 -2.3194
  139OSM    C7S15161   2.489   4.595   6.967 -0.1272 -0.3135  0.0002
  139OSM    H7S15162   2.407   4.606   7.041  1.1266  0.6579  1.3325
  139OSM    H7T15163   2.528   4.699   6.953 -0.5119 -0.1034  0.4765
  139OSM    C8S15164   2.604   4.512   7.021  0.0797 -0.5569 -0.4738
  139OSM    H8S15165   2.680   4.516   6.940  1.2469 -0.5102  0.5948
  139OSM    H8T15166   2.574   4.406   7.032 -1.2993 -0.1974 -0.6259
  139OSM    C9S15167   2.673   4.561   7.148  0.9735 -0.1730  0.1259
  139OSM    H9S15168   2.626   4.661   7.161  0.9831  0.1850 -2.2661
  139OSM    H9T15169   2.784   4.568   7.144  0.8760  1.6437 -0.1867
  139OSM   C10S15170   2.623   4.480   7.272 -0.2109  0.0710 -0.1031
  139OSM   H10S15171   2.667   4.378   7.271 -0.0878  0.1210 -0.9768
  139OSM   H10T15172   2.512   4.471   7.267 -0.2673  1.0189 -0.7347
  139OSM   C11S15173   2.661   4.541   7.412 -0.0685 -0.4095  0.5552
  139OSM   H11S15174   2.660   4.652   7.405 -1.3609 -0.3980  0.8306
  139OSM   H11T15175   2.769   4.519   7.427  0.4401  0.3022 -1.6817
  139OSM   C12S15176   2.586   4.479   7.529 -0.0901  0.5754 -0.0041
  139OSM   H12S15177   2.585   4.369   7.534  0.0641  0.5687 -0.1241
  139OSM   H12T15178   2.480   4.513   7.537  0.1455  1.0763  1.2127
  139OSM   C13S15179   2.654   4.531   7.660 -0.9354 -0.3536  0.4065
  139OSM   H13S15180   2.639   4.640   7.675  0.9449  0.0202 -0.1350
  139OSM   H13T15181   2.763   4.512   7.647 -1.0443 -0.6286 -0.1480
  139OSM   C14S15182   2.595   4.463   7.779 -0.5690  0.1899 -0.5058
  139OSM   H14S15183   2.580   4.353   7.786  1.1627  0.0502  2.6750
  139OSM   H14T15184   2.491   4.502   7.781 -0.7597 -0.3063 -0.5104
  139OSM   C15S15185   2.677   4.494   7.908  0.3991  0.0665  0.6401
  139OSM   H15S15186   2.698   4.603   7.914 -0.0682  0.0741  2.9106
  139OSM   H15T15187   2.775   4.442   7.911  2.0300  2.8610 -0.3662
  139OSM   C16S15188   2.596   4.455   8.026 -0.4703 -0.4125 -0.2086
  139OSM   H16S15189   2.584   4.345   8.027  1.0164 -0.5935  1.6265
  139OSM   H16T15190   2.496   4.505   8.026 -1.0036 -1.4149 -1.4802
  139OSM   C17S15191   2.680   4.491   8.157  1.0304 -0.1503  0.1717
  139OSM   H17S15192   2.716   4.596   8.154  2.4505 -0.6180 -0.1548
  139OSM   H17T15193   2.775   4.433   8.152  0.9411 -0.2424 -0.6143
  139OSM   C18S15194   2.612   4.467   8.290  0.5340 -0.8905 -0.3791
  139OSM   H18S15195   2.514   4.519   8.291 -0.1956 -2.2433  0.5161
  139OSM   H18T15196   2.685   4.486   8.372  0.6205 -3.6314  0.2548
  139OSM   H18U15197   2.575   4.363   8.295 -0.8725 -0.4714 -1.3412
  139OSM    C1F15198   2.994   4.503   6.780 -0.7892  0.3143  0.4446
  139OSM     OF15199   3.069   4.597   6.758 -0.2594  0.3103 -0.0090
  139OSM    C2F15200   3.010   4.410   6.897  0.1531 -0.4909 -0.8818
  139OSM    H2F15201   3.065   4.318   6.866 -2.7267 -1.9718 -1.9123
  139OSM    H2G15202   2.915   4.360   6.924  0.2613 -0.4527 -0.4182
  139OSM    C3F15203   3.071   4.490   7.014 -0.7986 -0.1089 -0.4358
  139OSM    H3F15204   2.994   4.564   7.045  0.8611  2.3887 -1.9515
  139OSM    H3G15205   3.163   4.543   6.984 -0.2704 -1.2213 -0.8257
  139OSM    C4F15206   3.102   4.392   7.127 -1.3390 -0.1113 -0.1055
  139OSM    H4F15207   3.182   4.446   7.182 -0.4048  0.6938 -2.1512
  139OSM    H4G15208   3.142   4.299   7.081  2.2859  2.0164 -1.6167
  139OSM    C5F15209   2.990   4.371   7.227  0.5383 -0.2483  0.3036
  139OSM    H5F15210   2.903   4.333   7.169 -1.0338  0.8296  1.8477
  139OSM    H5G15211   2.974   4.471   7.273  0.0123 -0.7520  1.2407
  139OSM    C6F15212   3.016   4.265   7.337  0.0013  0.5480 -0.3314
  139OSM    H6F15213   3.120   4.274   7.373 -0.4977 -0.4908  1.4833
  139OSM    H6G15214   2.997   4.165   7.291  0.1782  0.2555  0.2225
  139OSM    C7F15215   2.912   4.279   7.466 -0.0708 -0.4294 -0.0316
  139OSM    H7F15216   2.808   4.273   7.426  0.4482 -2.6571 -1.2504
  139OSM    H7G15217   2.927   4.377   7.516 -1.7965 -1.3977  2.6016
  139OSM    C8F15218   2.939   4.171   7.571  0.8210  0.2319 -0.4662
  139OSM    H8F15219   3.047   4.148   7.560  0.8039 -0.9909  1.5133
  139OSM    H8G15220   2.877   4.086   7.536 -0.4537  0.6248  0.7137
  139OSM    C9F15221   2.913   4.209   7.712 -0.9957  0.3460 -0.3582
  139OSM    H9F15222   2.981   4.293   7.734 -0.0307 -0.0709 -1.6648
  139OSM   C10F15223   2.840   4.150   7.808  1.1431  0.8402 -0.6678
  139OSM   H10F15224   2.837   4.183   7.913 -1.0935 -2.0976  0.3126
  139OSM   C11F15225   2.754   4.028   7.784 -0.4210 -1.1629 -0.6553
  139OSM   H11F15226   2.789   3.966   7.699  1.4236  0.3036 -1.0176
  139OSM   H11G15227   2.650   4.065   7.767 -0.3123  0.4514  1.7731
  139OSM   C12F15228   2.746   3.935   7.905  0.0603  0.2519 -1.2459
  139OSM   H12F15229   2.846   3.906   7.944  0.1921  3.2518  1.0087
  139OSM   H12G15230   2.694   3.841   7.880 -1.5441  0.4622  0.9966
  139OSM   C13F15231   2.658   3.993   8.021 -0.4373 -0.6300 -0.4564
  139OSM   H13F15232   2.554   3.976   7.986 -0.7133  0.8776 -0.4075
  139OSM   H13G15233   2.682   4.100   8.034 -2.3857 -0.2106 -0.0260
  139OSM   C14F15234   2.663   3.911   8.151 -0.3059 -0.1389  0.1240
  139OSM   H14F15235   2.767   3.897   8.186 -0.3951  0.7236  0.7429
  139OSM   H14G15236   2.642   3.807   8.117  1.9520 -1.3149  2.0442
  139OSM   C15F15237   2.560   3.960   8.253  0.3280  0.5419 -0.1497
  139OSM   H15F15238   2.457   3.979   8.213 -1.3639  0.3006  3.6667
  139OSM   H15G15239   2.598   4.056   8.293  2.9352 -0.5959  0.2768
  139OSM   C16F15240   2.543   3.857   8.369  0.2999  0.4722  0.5252
  139OSM   H16F15241   2.638   3.843   8.423  0.5315  1.4896  0.4148
  139OSM   H16G15242   2.495   3.766   8.327  0.3294  1.5296 -1.9832
  139OSM   C17F15243   2.442   3.903   8.471  0.1929  0.4453 -0.1837
  139OSM   H17F15244   2.425   3.819   8.541  0.2126  0.1349 -0.5508
  139OSM   H17G15245   2.344   3.916   8.420 -0.2317 -2.3038 -0.1813
  139OSM   C18F15246   2.476   4.023   8.559 -0.5712 -0.0477 -0.1063
  139OSM   H18F15247   2.581   4.014   8.595  0.5486  1.1619 -2.8315
  139OSM   H18G15248   2.415   4.032   8.651  0.2583 -0.2233  0.4774
  139OSM   H18H15249   2.476   4.119   8.503  1.9021 -0.0639 -0.2584
  140OSM      N15250   4.559   6.538   6.153 -0.2718  0.0817  0.3627
  140OSM    C1515251   4.567   6.430   6.047 -0.6388 -0.5383  0.4287
  140OSM   H15A15252   4.478   6.427   5.987  0.7010 -2.2826 -1.6506
  140OSM   H15B15253   4.566   6.334   6.097 -3.5913  0.0758  1.7580
  140OSM   H15C15254   4.649   6.446   5.978 -0.7152  0.6034  0.5887
  140OSM    C1415255   4.573   6.669   6.091 -0.6984  0.3626  0.4526
  140OSM   H14A15256   4.586   6.738   6.173  0.7565 -1.0130  1.4558
  140OSM   H14B15257   4.488   6.695   6.029  0.6116  0.8336 -1.2289
  140OSM   H14C15258   4.659   6.672   6.025 -1.6191 -0.2902 -0.8198
  140OSM    C1315259   4.427   6.522   6.220  0.0676  0.1311 -0.6189
  140OSM   H13A15260   4.409   6.619   6.265 -0.2185  0.4372 -1.3780
  140OSM   H13B15261   4.413   6.439   6.287 -1.1249 -0.7797 -1.9528
  140OSM   H13C15262   4.359   6.498   6.140 -0.8581  0.7866 -0.0496
  140OSM    C1215263   4.671   6.525   6.258 -0.2306  0.4711 -0.2667
  140OSM   H12A15264   4.769   6.546   6.217  0.0964 -1.7499 -0.7649
  140OSM   H12B15265   4.667   6.421   6.288  0.7296  0.5577  0.2029
  140OSM    C1115266   4.663   6.619   6.380  0.1602 -0.6380 -0.3982
  140OSM   H11A15267   4.717   6.571   6.465  0.1145 -0.0820 -0.0504
  140OSM   H11B15268   4.557   6.636   6.407  0.0730 -0.4597 -0.8530
  140OSM      P15269   4.662   6.877   6.416 -0.5565 -0.0351 -0.3913
  140OSM    O1315270   4.761   6.983   6.397 -0.3768  0.5933 -0.2964
  140OSM    O1415271   4.529   6.911   6.368  0.2883  0.6163 -0.8279
  140OSM    O1115272   4.658   6.835   6.566  0.3835 -0.4414  0.1549
  140OSM    O1215273   4.723   6.742   6.353  0.5186 -0.5310 -0.0104
  140OSM    C1S15274   4.774   6.813   6.653 -0.4206  0.3910 -0.8274
  140OSM    H1S15275   4.849   6.894   6.643 -0.9978  0.8519 -1.4265
  140OSM    H1T15276   4.815   6.713   6.625 -1.3231  0.6629 -3.3199
  140OSM     NF15277   4.847   6.814   6.895  0.0763  0.3334 -0.9259
  140OSM    HNF15278   4.890   6.728   6.923 -0.9528 -0.2360 -1.0389
  140OSM    C2S15279   4.729   6.811   6.806 -0.3513  0.7610  0.1851
  140OSM    H2S15280   4.670   6.904   6.821  0.6872  1.4388  0.1576
  140OSM    C3S15281   4.636   6.682   6.833  0.5527 -0.4000  0.1765
  140OSM    H3S15282   4.704   6.595   6.825  2.8196  1.1640  1.4518
  140OSM     O315283   4.524   6.670   6.741  0.2208  0.5912  0.2524
  140OSM    HO315284   4.529   6.752   6.690 -1.4742 -0.4987 -1.8390
  140OSM    C4S15285   4.584   6.704   6.975  0.8445 -1.7483  0.3807
  140OSM    H4S15286   4.510   6.784   6.986  2.8081 -0.1079  2.5443
  140OSM    C5S15287   4.604   6.619   7.074  0.4748 -0.0773 -0.4516
  140OSM    H5S15288   4.668   6.530   7.061  0.8740 -0.0263  0.9799
  140OSM    C6S15289   4.541   6.624   7.209  0.3935  0.5315  0.5393
  140OSM    H6S15290   4.494   6.526   7.230  1.6281 -0.0444  0.7188
  140OSM    H6T15291   4.456   6.696   7.209 -2.2811 -2.4299  1.2493
  140OSM    C7S15292   4.636   6.663   7.323 -0.1932  0.9897 -0.5519
  140OSM    H7S15293   4.682   6.759   7.290  2.1844 -0.2365 -1.0547
  140OSM    H7T15294   4.719   6.590   7.329 -0.5899  0.4679 -1.2693
  140OSM    C8S15295   4.573   6.672   7.457  0.0989  0.0783 -0.5902
  140OSM    H8S15296   4.550   6.572   7.498 -1.6679 -0.8766 -3.6127
  140OSM    H8T15297   4.480   6.733   7.458 -0.4033 -0.6214  1.6393
  140OSM    C9S15298   4.670   6.729   7.558  0.1757 -0.1672  0.6041
  140OSM    H9S15299   4.697   6.828   7.514 -1.2001  0.3583  0.8758
  140OSM    H9T15300   4.757   6.660   7.564  1.0183  0.8524  0.4680
  140OSM   C10S15301   4.614   6.740   7.701 -0.5591  0.3162 -0.1292
  140OSM   H10S15302   4.686   6.774   7.779 -1.9218  2.7092  0.1498
  140OSM   H10T15303   4.576   6.638   7.726 -1.2184  0.4665 -0.4973
  140OSM   C11S15304   4.489   6.830   7.717  0.5038 -0.5474 -0.7579
  140OSM   H11S15305   4.449   6.873   7.622 -1.2014 -1.1684 -0.3632
  140OSM   H11T15306   4.527   6.914   7.778  1.0251 -0.1131 -1.6730
  140OSM   C12S15307   4.373   6.763   7.799  0.0551 -0.1788  0.0832
  140OSM   H12S15308   4.347   6.667   7.750 -5.2120  1.2043 -0.4107
  140OSM   H12T15309   4.283   6.827   7.787  1.4061  2.0262  1.0622
  140OSM   C13S15310   4.404   6.735   7.944 -0.3477 -0.4403  0.4247
  140OSM   H13S15311   4.430   6.834   7.988  2.4717 -0.5893 -0.6653
  140OSM   H13T15312   4.502   6.687   7.966  0.3626  1.2548  1.1161
  140OSM   C14S15313   4.292   6.676   8.031  0.2924 -0.8242  0.1042
  140OSM   H14S15314   4.301   6.566   8.034 -0.1371 -0.8846 -0.5963
  140OSM   H14T15315   4.197   6.692   7.975  0.8519  1.5850 -0.2522
  140OSM   C15S15316   4.275   6.740   8.174  0.2121  0.2152  0.0952
  140OSM   H15S15317   4.207   6.667   8.223  2.3080 -2.0926 -0.2008
  140OSM   H15T15318   4.229   6.841   8.176  1.1277  0.6633 -0.4839
  140OSM   C16S15319   4.405   6.743   8.253 -0.8113 -0.3365  0.1563
  140OSM   H16S15320   4.474   6.822   8.217 -1.4317 -1.0058 -2.7314
  140OSM   H16T15321   4.460   6.647   8.244  0.5152 -0.0335  3.4972
  140OSM   C17S15322   4.386   6.772   8.400 -0.3005 -0.7216  0.3448
  140OSM   H17S15323   4.294   6.721   8.437  0.8261 -1.5828  2.0934
  140OSM   H17T15324   4.357   6.878   8.418  0.0516 -0.4439 -0.6849
  140OSM   C18S15325   4.502   6.718   8.486  0.2337 -0.3083  0.3911
  140OSM   H18S15326   4.532   6.617   8.454  0.3953 -1.0095  2.5998
  140OSM   H18T15327   4.464   6.690   8.587  0.5591 -0.5778  0.4390
  140OSM   H18U15328   4.588   6.788   8.497  0.7709 -0.8320 -0.4184
  140OSM    C1F15329   4.911   6.928   6.909  0.5712  0.1319 -0.1143
  140OSM     OF15330   4.875   7.026   6.844 -0.1359 -0.2149 -0.0556
  140OSM    C2F15331   5.028   6.927   7.005 -0.0752  0.3612 -0.2948
  140OSM    H2F15332   5.127   6.917   6.956  0.3263 -0.0626  0.5612
  140OSM    H2G15333   5.020   6.839   7.072  3.2694  0.4978  0.4991
  140OSM    C3F15334   5.026   7.052   7.093 -0.2464 -0.1159  0.0661
  140OSM    H3F15335   5.006   7.139   7.027 -0.3692  0.1071  0.3979
  140OSM    H3G15336   5.124   7.067   7.143 -0.7559  1.7069  0.5885
  140OSM    C4F15337   4.923   7.037   7.205 -0.1571  0.0741 -0.0582
  140OSM    H4F15338   4.841   6.970   7.171 -1.8108  1.0072  1.8446
  140OSM    H4G15339   4.876   7.135   7.228  0.0532 -0.0498  0.9336
  140OSM    C5F15340   4.971   6.977   7.341  0.1506  0.2783  0.6183
  140OSM    H5F15341   4.995   6.869   7.335  0.2611  0.3271  0.0581
  140OSM    H5G15342   4.892   6.989   7.418  0.1765 -1.6182  0.9844
  140OSM    C6F15343   5.101   7.038   7.409  0.2975  0.2848  0.4484
  140OSM    H6F15344   5.098   7.149   7.401 -1.9263  0.2204 -0.4137
  140OSM    H6G15345   5.186   6.998   7.350 -2.4102 -0.9913 -3.0266
  140OSM    C7F15346   5.109   6.994   7.558 -0.3449 -0.0748 -0.2089
  140OSM    H7F15347   5.134   6.886   7.566  1.8822  0.2504 -1.7190
  140OSM    H7G15348   5.009   7.018   7.600 -0.1065  2.3139 -0.8904
  140OSM    C8F15349   5.210   7.073   7.630 -0.0330  0.2582 -0.2915
  140OSM    H8F15350   5.218   7.042   7.736  0.7792 -2.1865 -1.0196
  140OSM    H8G15351   5.180   7.180   7.645  0.8789  0.5266 -0.3299
  140OSM    C9F15352   5.349   7.057   7.572 -0.0597  0.8452  0.4173
  140OSM    H9F15353   5.337   7.069   7.463 -0.2976 -1.0706  0.1910
  140OSM   C10F15354   5.470   7.028   7.617  0.0270  0.0504 -0.1114
  140OSM   H10F15355   5.551   7.014   7.544  1.5386 -3.1938  1.9328
  140OSM   C11F15356   5.504   7.001   7.771 -0.2603  0.5818  0.5946
  140OSM   H11F15357   5.453   7.078   7.834  0.3701 -0.0581  1.9257
  140OSM   H11G15358   5.613   7.012   7.786 -0.3744  2.3681  0.4174
  140OSM   C12F15359   5.440   6.867   7.819 -0.3496 -0.0418  0.2828
  140OSM   H12F15360   5.515   6.785   7.818  1.5673  1.6232  0.9199
  140OSM   H12G15361   5.352   6.839   7.758 -0.7983 -0.7397  1.2185
  140OSM   C13F15362   5.401   6.874   7.964  0.5632 -0.1396  0.1539
  140OSM   H13F15363   5.332   6.959   7.982  2.0723  1.0416  0.5806
  140OSM   H13G15364   5.498   6.882   8.018  0.1835  1.3725  0.6515
  140OSM   C14F15365   5.332   6.755   8.021 -0.3218 -0.4403 -0.4557
  140OSM   H14F15366   5.283   6.718   7.929  0.2349  0.7690 -1.2664
  140OSM   H14G15367   5.247   6.795   8.080  1.4282  1.6578  0.8076
  140OSM   C15F15368   5.415   6.647   8.084  0.2856 -0.2997 -0.4499
  140OSM   H15F15369   5.489   6.695   8.152 -1.7114 -0.1720  1.7669
  140OSM   H15G15370   5.469   6.592   8.004  0.7537 -0.3730 -0.0884
  140OSM   C16F15371   5.328   6.551   8.178 -1.0041  0.5876 -0.3429
  140OSM   H16F15372   5.225   6.542   8.138 -1.0851  0.7530 -0.1715
  140OSM   H16G15373   5.306   6.596   8.277  1.9529 -0.2625  0.8228
  140OSM   C17F15374   5.375   6.411   8.215 -0.4501 -0.9847 -0.2003
  140OSM   H17F15375   5.406   6.353   8.126 -0.2711  1.7077 -2.0191
  140OSM   H17G15376   5.287   6.372   8.271 -1.4970 -0.2457 -1.2795
  140OSM   C18F15377   5.499   6.420   8.304 -0.2525  0.5796  0.2866
  140OSM   H18F15378   5.514   6.319   8.349 -0.0691  0.4453 -0.0768
  140OSM   H18G15379   5.488   6.497   8.384  0.7175  2.1420 -1.0223
  140OSM   H18H15380   5.580   6.456   8.237 -2.2893  1.6996 -1.7155
  141OSM      N15381   4.800   0.777   6.465 -0.1714  0.2999 -0.6083
  141OSM    C1515382   4.816   0.628   6.446 -0.2470 -0.3791 -0.9604
  141OSM   H15A15383   4.813   0.580   6.543  0.7516  1.1304 -0.1569
  141OSM   H15B15384   4.908   0.604   6.395 -1.2370 -1.5832 -2.2927
  141OSM   H15C15385   4.738   0.589   6.382 -0.1768 -0.2453 -1.1283
  141OSM    C1415386   4.913   0.830   6.553  0.0119  0.2109  0.0880
  141OSM   H14A15387   5.007   0.822   6.502 -0.1690 -0.6334 -0.1245
  141OSM   H14B15388   4.924   0.773   6.644 -3.1724  0.0341  0.4930
  141OSM   H14C15389   4.897   0.932   6.587 -0.5915 -0.4558  1.9359
  141OSM    C1315390   4.806   0.850   6.332 -0.2306 -0.1353  0.3620
  141OSM   H13A15391   4.900   0.821   6.286  1.3641  0.4535  3.0161
  141OSM   H13B15392   4.802   0.957   6.347 -0.8267  0.0753 -1.1280
  141OSM   H13C15393   4.721   0.832   6.268 -0.9725 -0.5205  1.4357
  141OSM    C1215394   4.663   0.804   6.532  0.6312 -0.0465 -0.0877
  141OSM   H12A15395   4.636   0.908   6.532 -0.4347 -0.3100 -0.3575
  141OSM   H12B15396   4.676   0.775   6.636  2.0930 -1.4062 -0.6121
  141OSM    C1115397   4.546   0.726   6.462  0.0667 -0.6477 -0.6200
  141OSM   H11A15398   4.454   0.739   6.524  0.3313 -1.2585 -0.0877
  141OSM   H11B15399   4.559   0.616   6.475 -3.7894 -1.3274 -1.1566
  141OSM      P15400   4.461   0.906   6.299  0.2258 -0.3803  0.1781
  141OSM    O1315401   4.562   1.006   6.332 -0.1604  0.4084 -0.1109
  141OSM    O1415402   4.394   0.916   6.167  0.1961  0.3512 -0.2631
  141OSM    O1115403   4.339   0.910   6.401  0.0374  0.4975  0.3098
  141OSM    O1215404   4.513   0.760   6.333  0.1814  0.8832  1.0141
  141OSM    C1S15405   4.332   0.974   6.527 -0.0013 -0.1047  0.9708
  141OSM    H1S15406   4.308   1.081   6.509  0.5627 -0.1998 -0.4513
  141OSM    H1T15407   4.422   0.957   6.590  0.5819  0.9545  0.4541
  141OSM     NF15408   4.224   1.001   6.746 -0.9196  0.2948  0.6562
  141OSM    HNF15409   4.273   0.955   6.819 -1.2654 -0.0355  0.6838
  141OSM    C2S15410   4.214   0.936   6.620 -0.1046 -0.9650 -0.2707
  141OSM    H2S15411   4.124   0.983   6.574  1.8619  2.9806 -0.4908
  141OSM    C3S15412   4.198   0.783   6.625 -0.1658 -0.7955 -0.3181
  141OSM    H3S15413   4.290   0.737   6.666  0.6171  1.2442  0.3351
  141OSM     O315414   4.186   0.727   6.490  0.4413  0.3106 -0.3011
  141OSM    HO315415   4.218   0.801   6.439  1.2148 -0.1832 -0.5432
  141OSM    C4S15416   4.076   0.745   6.701  0.4015 -0.5099 -0.6779
  141OSM    H4S15417   3.978   0.788   6.677  0.2915 -0.8589 -0.8655
  141OSM    C5S15418   4.079   0.651   6.798  0.0005 -0.7099  0.2112
  141OSM    H5S15419   4.170   0.612   6.846 -0.7013 -2.7829 -0.0395
  141OSM    C6S15420   3.957   0.622   6.879  1.0111 -0.1583  0.0210
  141OSM    H6S15421   3.929   0.515   6.869  1.1738 -0.0926 -1.4066
  141OSM    H6T15422   3.874   0.682   6.837  0.9359  0.5255  1.1132
  141OSM    C7S15423   3.979   0.653   7.026  0.7938 -0.3042 -0.1121
  141OSM    H7S15424   3.996   0.763   7.035 -0.0217 -0.1680 -0.1347
  141OSM    H7T15425   4.068   0.607   7.072  0.5293  1.3367  2.1977
  141OSM    C8S15426   3.856   0.607   7.113 -0.1395 -0.4609  0.0158
  141OSM    H8S15427   3.858   0.497   7.106  1.2299 -0.5581  1.4175
  141OSM    H8T15428   3.763   0.658   7.078 -0.3552 -0.9020 -0.0566
  141OSM    C9S15429   3.879   0.628   7.262 -0.6709  0.2066  1.1640
  141OSM    H9S15430   3.877   0.739   7.264 -0.8563  0.2385 -0.0385
  141OSM    H9T15431   3.981   0.596   7.292 -1.5164 -0.9356  2.9863
  141OSM   C10S15432   3.776   0.584   7.359 -0.3659  0.5368  0.1346
  141OSM   H10S15433   3.752   0.477   7.344 -1.2438  0.7965 -0.3909
  141OSM   H10T15434   3.678   0.636   7.344 -0.0565  1.4538  1.1760
  141OSM   C11S15435   3.814   0.593   7.511 -0.4933 -0.7631  0.0289
  141OSM   H11S15436   3.841   0.700   7.527  0.1450 -0.7710 -0.9209
  141OSM   H11T15437   3.908   0.542   7.537 -0.2268 -0.4932 -0.3886
  141OSM   C12S15438   3.704   0.543   7.604 -0.1681 -0.2111  0.1750
  141OSM   H12S15439   3.707   0.433   7.596 -3.7378 -0.3577 -0.8403
  141OSM   H12T15440   3.604   0.579   7.570  0.0396 -0.7830 -1.0756
  141OSM   C13S15441   3.721   0.583   7.754  0.2678  0.3138  0.2832
  141OSM   H13S15442   3.719   0.694   7.762  0.0293  0.2129  1.8453
  141OSM   H13T15443   3.815   0.548   7.801  1.2731  0.4644 -1.5137
  141OSM   C14S15444   3.610   0.529   7.835 -1.0041  0.1865 -0.7385
  141OSM   H14S15445   3.610   0.420   7.813 -0.8562  0.0704 -0.1741
  141OSM   H14T15446   3.511   0.574   7.813 -2.4365 -1.6677  1.3744
  141OSM   C15S15447   3.633   0.566   7.985  0.1476 -0.5038 -0.3887
  141OSM   H15S15448   3.650   0.676   7.994  1.5212 -0.7110 -0.1267
  141OSM   H15T15449   3.726   0.508   8.007 -0.4261  0.0597  4.6197
  141OSM   C16S15450   3.516   0.533   8.082 -0.2865 -0.2762  0.5008
  141OSM   H16S15451   3.505   0.423   8.081  3.9353 -0.9045  1.5776
  141OSM   H16T15452   3.420   0.567   8.038 -0.0845 -3.2634 -2.6350
  141OSM   C17S15453   3.547   0.584   8.222  0.1465 -0.3460 -0.1699
  141OSM   H17S15454   3.527   0.693   8.223  0.0199 -0.3335 -1.8424
  141OSM   H17T15455   3.658   0.585   8.231  0.0651  0.5478  0.8617
  141OSM   C18S15456   3.472   0.513   8.339 -0.5967  0.1794 -0.3246
  141OSM   H18S15457   3.497   0.405   8.343 -1.7651 -0.1828 -1.7770
  141OSM   H18T15458   3.362   0.527   8.334 -1.1133 -1.1597  3.4803
  141OSM   H18U15459   3.495   0.565   8.435  2.2161 -0.0782 -0.7718
  141OSM    C1F15460   4.200   1.127   6.764  0.3706  0.1090 -0.3991
  141OSM     OF15461   4.124   1.188   6.690  0.4749 -0.6320  0.0503
  141OSM    C2F15462   4.281   1.193   6.869 -1.0102 -0.1334 -0.0502
  141OSM    H2F15463   4.337   1.276   6.819  0.3283 -0.0240  1.5516
  141OSM    H2G15464   4.361   1.124   6.903 -0.2342  0.9504  0.3911
  141OSM    C3F15465   4.191   1.253   6.974  1.0448 -0.3212 -0.3152
  141OSM    H3F15466   4.125   1.175   7.018 -0.0340  0.3534 -0.7086
  141OSM    H3G15467   4.134   1.335   6.926  1.5084 -0.3692 -0.9607
  141OSM    C4F15468   4.271   1.301   7.093  0.0700  0.1766  0.4184
  141OSM    H4F15469   4.307   1.406   7.081 -0.0970  0.4494  2.1535
  141OSM    H4G15470   4.365   1.245   7.108 -1.3369 -1.9975  1.5612
  141OSM    C5F15471   4.180   1.287   7.219  0.6209 -0.5016  0.4082
  141OSM    H5F15472   4.157   1.181   7.245 -1.9235  0.0214  0.5944
  141OSM    H5G15473   4.088   1.343   7.191  2.3545  2.0874 -0.4353
  141OSM    C6F15474   4.232   1.344   7.347  0.3782 -0.0097  0.2030
  141OSM    H6F15475   4.281   1.444   7.341 -0.5904  0.3953 -1.9153
  141OSM    H6G15476   4.304   1.271   7.390 -1.5708 -3.0849 -1.4027
  141OSM    C7F15477   4.130   1.351   7.457  0.0175 -0.4808 -0.0080
  141OSM    H7F15478   4.114   1.245   7.486  1.1220 -0.6367  0.0623
  141OSM    H7G15479   4.030   1.382   7.419  0.4465  1.1314  0.1022
  141OSM    C8F15480   4.179   1.438   7.572  0.3011 -0.1714 -0.1336
  141OSM    H8F15481   4.185   1.543   7.534  2.1499 -0.2754 -0.1777
  141OSM    H8G15482   4.281   1.406   7.602 -1.1243 -3.7369  1.4563
  141OSM    C9F15483   4.080   1.458   7.690  0.5264 -0.7589 -0.0738
  141OSM    H9F15484   3.977   1.488   7.666  0.3811 -1.6563 -0.6487
  141OSM   C10F15485   4.106   1.464   7.826 -0.5583 -0.9161  0.2545
  141OSM   H10F15486   4.027   1.497   7.896 -0.8274  1.2129 -0.9553
  141OSM   C11F15487   4.241   1.442   7.885 -0.4305  0.0479  0.0227
  141OSM   H11F15488   4.318   1.499   7.829  1.1842 -1.1137  0.9356
  141OSM   H11G15489   4.266   1.334   7.876 -0.4883  0.1832 -2.2578
  141OSM   C12F15490   4.249   1.479   8.037 -0.1437 -0.1769  0.5019
  141OSM   H12F15491   4.200   1.576   8.060 -0.2778 -1.0563  4.7946
  141OSM   H12G15492   4.355   1.479   8.071 -0.3691 -0.9584  1.2498
  141OSM   C13F15493   4.191   1.369   8.129 -0.7249  0.1460 -0.0940
  141OSM   H13F15494   4.252   1.276   8.126  1.0746  1.1790  1.7990
  141OSM   H13G15495   4.087   1.331   8.121 -0.2957 -1.4387  1.1701
  141OSM   C14F15496   4.197   1.403   8.277  0.2990 -0.7915 -0.8492
  141OSM   H14F15497   4.131   1.491   8.294  0.1400 -0.1897 -3.8997
  141OSM   H14G15498   4.303   1.425   8.300 -0.3311  1.0769  0.5957
  141OSM   C15F15499   4.143   1.292   8.363 -0.3426  0.5637 -0.7198
  141OSM   H15F15500   4.184   1.200   8.317  2.2501  1.3614 -0.1857
  141OSM   H15G15501   4.033   1.289   8.349 -0.1358  2.7128 -3.3866
  141OSM   C16F15502   4.167   1.308   8.516  0.2294 -0.4167  0.2928
  141OSM   H16F15503   4.139   1.413   8.539 -0.2049 -0.2740 -0.7998
  141OSM   H16G15504   4.276   1.297   8.534  0.4704  1.1131 -0.0828
  141OSM   C17F15505   4.084   1.206   8.591 -0.2817  0.9249 -1.1598
  141OSM   H17F15506   4.087   1.102   8.554  0.8593 -0.0543  1.4687
  141OSM   H17G15507   3.977   1.239   8.586 -0.5150  0.9392  1.8507
  141OSM   C18F15508   4.126   1.215   8.743  0.4632  0.0128 -0.2820
  141OSM   H18F15509   4.061   1.157   8.813  1.2989 -2.6632 -1.5610
  141OSM   H18G15510   4.116   1.320   8.777  0.4840  0.0376 -0.3514
  141OSM   H18H15511   4.232   1.181   8.748  0.9492  1.1342 -2.0430
  142OSM      N15512   4.378   3.015   6.293 -0.6624 -0.2625 -0.1162
  142OSM    C1515513   4.420   2.956   6.427 -0.1328 -0.0543 -0.0674
  142OSM   H15A15514   4.527   2.938   6.430 -0.2864 -1.0443 -0.1650
  142OSM   H15B15515   4.381   2.856   6.436 -0.9307  0.1910 -0.7031
  142OSM   H15C15516   4.383   3.013   6.510  0.5030  0.2735  0.0027
  142OSM    C1415517   4.458   3.138   6.248  0.6512  0.7942 -0.1704
  142OSM   H14A15518   4.444   3.200   6.335 -3.6864 -1.3966  0.9907
  142OSM   H14B15519   4.410   3.195   6.170 -0.5948 -0.7098 -0.5746
  142OSM   H14C15520   4.559   3.116   6.218  0.6874  1.3693 -0.4803
  142OSM    C1315521   4.398   2.906   6.193  0.4881  0.2332 -0.1086
  142OSM   H13A15522   4.364   2.811   6.231 -1.0676  0.1373 -1.6253
  142OSM   H13B15523   4.501   2.890   6.165  0.1643  0.1851 -1.3178
  142OSM   H13C15524   4.340   2.919   6.103  0.8981 -3.6773 -1.1060
  142OSM    C1215525   4.232   3.056   6.300 -0.0965  0.2615  0.2508
  142OSM   H12A15526   4.170   2.968   6.314  1.9391 -0.8099  3.5908
  142OSM   H12B15527   4.206   3.090   6.201  1.2886 -0.6807 -0.4623
  142OSM    C1115528   4.191   3.167   6.397 -0.0099  0.2060  0.4973
  142OSM   H11A15529   4.235   3.152   6.497  1.7319  2.0334  0.0569
  142OSM   H11B15530   4.080   3.163   6.398 -0.0066  0.1903  0.7902
  142OSM      P15531   4.250   3.428   6.409  0.5363  0.0104  0.0812
  142OSM    O1315532   4.370   3.421   6.491 -0.4531  0.2442  0.0563
  142OSM    O1415533   4.248   3.531   6.300  0.3395  0.3997  0.1981
  142OSM    O1115534   4.116   3.451   6.497 -0.5488 -0.4797  0.1398
  142OSM    O1215535   4.229   3.291   6.340 -0.3574  0.3020 -0.3274
  142OSM    C1S15536   4.130   3.416   6.638  0.4230 -0.0334  0.1119
  142OSM    H1S15537   4.205   3.487   6.679 -1.2330  1.7141  0.3038
  142OSM    H1T15538   4.158   3.309   6.649  0.4978 -0.6369 -4.1206
  142OSM     NF15539   4.020   3.434   6.864 -0.0247 -0.7541 -0.4991
  142OSM    HNF15540   3.995   3.355   6.920 -0.0942 -0.1262  0.3588
  142OSM    C2S15541   3.995   3.429   6.719  0.0258 -0.4638 -0.1867
  142OSM    H2S15542   3.957   3.530   6.693  0.0203 -0.3683  0.1834
  142OSM    C3S15543   3.889   3.323   6.660 -0.3246 -0.1841  0.6015
  142OSM    H3S15544   3.911   3.219   6.693  1.4807 -0.0559 -0.0363
  142OSM     O315545   3.889   3.312   6.516 -0.0531 -0.5021  0.0266
  142OSM    HO315546   3.970   3.352   6.484  0.4096 -0.7575  0.8451
  142OSM    C4S15547   3.755   3.370   6.704 -0.1768 -0.3754  0.8685
  142OSM    H4S15548   3.742   3.479   6.701 -0.7800 -0.4741 -0.5101
  142OSM    C5S15549   3.650   3.295   6.743 -0.0476  0.0870 -0.2152
  142OSM    H5S15550   3.663   3.186   6.741  1.3153  0.1881  1.1479
  142OSM    C6S15551   3.518   3.359   6.785 -0.6229  0.6942 -0.1284
  142OSM    H6S15552   3.441   3.354   6.705 -0.6793 -4.1825 -0.0735
  142OSM    H6T15553   3.537   3.464   6.817  3.6948 -0.0045  0.2282
  142OSM    C7S15554   3.467   3.278   6.910 -0.0146 -0.9444  0.0884
  142OSM    H7S15555   3.541   3.261   6.991  0.3080  0.8797  0.2049
  142OSM    H7T15556   3.433   3.179   6.872  2.1416 -0.7898 -2.5121
  142OSM    C8S15557   3.348   3.360   6.974 -0.2357  0.5220 -0.2127
  142OSM    H8S15558   3.271   3.361   6.894 -1.1291  2.1350  0.6091
  142OSM    H8T15559   3.386   3.460   7.005  1.2332 -0.4113  1.1118
  142OSM    C9S15560   3.295   3.297   7.108 -0.2094  0.2480  0.8691
  142OSM    H9S15561   3.266   3.190   7.097  3.0729 -0.8556  1.7461
  142OSM    H9T15562   3.204   3.351   7.141 -0.3846 -0.4558  1.5912
  142OSM   C10S15563   3.390   3.322   7.219 -0.1687  0.3092  0.0072
  142OSM   H10S15564   3.476   3.385   7.188  0.8552 -0.2931  1.5022
  142OSM   H10T15565   3.443   3.227   7.241  0.1013 -0.3355 -3.0817
  142OSM   C11S15566   3.334   3.373   7.352  0.1357 -0.0795 -0.0243
  142OSM   H11S15567   3.241   3.320   7.381  1.3204 -1.2813  1.7473
  142OSM   H11T15568   3.319   3.483   7.340  1.1472 -0.0257 -0.9339
  142OSM   C12S15569   3.435   3.359   7.470  0.6858 -0.1767 -0.1220
  142OSM   H12S15570   3.524   3.418   7.440  0.0412  1.2882  0.7621
  142OSM   H12T15571   3.452   3.249   7.482  0.9032 -0.2281 -0.8397
  142OSM   C13S15572   3.398   3.422   7.606 -0.4994 -0.9162  0.1154
  142OSM   H13S15573   3.287   3.418   7.608 -0.9318  2.7489 -3.5463
  142OSM   H13T15574   3.419   3.531   7.609  1.2068 -1.2444  1.1872
  142OSM   C14S15575   3.471   3.361   7.730  0.2153 -0.0290  0.6775
  142OSM   H14S15576   3.577   3.372   7.699 -0.3684  0.8884 -1.1623
  142OSM   H14T15577   3.441   3.257   7.757  0.5473 -0.2626  0.1760
  142OSM   C15S15578   3.443   3.449   7.849 -0.3716 -0.3204  0.1170
  142OSM   H15S15579   3.336   3.459   7.878 -0.0654  0.8852  0.9357
  142OSM   H15T15580   3.472   3.554   7.824  1.6812 -0.4376  1.7503
  142OSM   C16S15581   3.522   3.411   7.975 -0.1116  0.9943 -0.2571
  142OSM   H16S15582   3.632   3.417   7.960  0.7032 -0.4330  3.8759
  142OSM   H16T15583   3.506   3.307   8.013 -0.8393  1.5590  1.0394
  142OSM   C17S15584   3.490   3.501   8.092  0.1800  0.2252  0.1870
  142OSM   H17S15585   3.395   3.466   8.139 -0.7749  2.9891  0.4868
  142OSM   H17T15586   3.468   3.604   8.056  0.5775  0.0135 -0.6841
  142OSM   C18S15587   3.599   3.505   8.199  0.5260  0.0386 -0.8654
  142OSM   H18S15588   3.699   3.501   8.150  1.0011  1.0308 -0.0191
  142OSM   H18T15589   3.596   3.414   8.262 -0.1921  0.1923 -0.6746
  142OSM   H18U15590   3.603   3.597   8.261  2.4578  0.2708 -1.2693
  142OSM    C1F15591   4.087   3.536   6.928 -0.1354 -0.4579  0.0251
  142OSM     OF15592   4.083   3.647   6.877  0.0894 -0.4970 -0.7077
  142OSM    C2F15593   4.154   3.501   7.056  0.3822 -0.3305  0.5141
  142OSM    H2F15594   4.265   3.501   7.053  0.4285  1.7233  0.5228
  142OSM    H2G15595   4.107   3.402   7.072 -0.8559  0.0388 -0.6778
  142OSM    C3F15596   4.099   3.598   7.161 -0.3618  0.6219 -0.4719
  142OSM    H3F15597   3.988   3.591   7.168 -0.3048  0.4828  0.4554
  142OSM    H3G15598   4.122   3.704   7.136  0.7404  0.3301 -0.7163
  142OSM    C4F15599   4.162   3.578   7.294  0.3871  0.5549  0.6388
  142OSM    H4F15600   4.272   3.574   7.278  0.4070 -1.2626  0.9770
  142OSM    H4G15601   4.130   3.482   7.339 -2.9434 -0.6348 -3.5849
  142OSM    C5F15602   4.140   3.694   7.391 -0.3505  0.2900 -0.3100
  142OSM    H5F15603   4.035   3.726   7.404  0.4682  2.8160  0.5755
  142OSM    H5G15604   4.187   3.782   7.343  2.9281 -1.9339 -1.5567
  142OSM    C6F15605   4.212   3.670   7.524 -0.4169 -0.4200 -0.7289
  142OSM    H6F15606   4.317   3.707   7.514 -0.5380 -0.1554 -1.0399
  142OSM    H6G15607   4.221   3.562   7.549 -0.2446  0.0892  1.5938
  142OSM    C7F15608   4.166   3.756   7.643  0.2065  0.4550  0.7013
  142OSM    H7F15609   4.154   3.858   7.602  2.6132  0.8533  0.8540
  142OSM    H7G15610   4.251   3.751   7.715  0.7197 -0.7426  0.0506
  142OSM    C8F15611   4.033   3.721   7.704  0.2632 -0.1418 -0.2201
  142OSM    H8F15612   3.954   3.731   7.626  0.4227  1.6571 -0.1759
  142OSM    H8G15613   4.012   3.792   7.787 -1.3484 -0.5258 -0.2501
  142OSM    C9F15614   4.027   3.583   7.761  0.3694 -0.0714  0.2902
  142OSM    H9F15615   4.066   3.504   7.696  1.1485  0.4886  0.0698
  142OSM   C10F15616   3.990   3.546   7.888 -0.0460 -0.1725  0.1804
  142OSM   H10F15617   3.987   3.440   7.917 -1.8654 -0.4845 -0.9478
  142OSM   C11F15618   3.935   3.641   7.992  0.4776  0.6545  0.2681
  142OSM   H11F15619   3.841   3.588   8.021 -0.5927 -0.3544 -4.2923
  142OSM   H11G15620   3.906   3.737   7.946  1.0005  1.4618  1.5659
  142OSM   C12F15621   4.043   3.653   8.103 -0.1609 -0.7246  0.7437
  142OSM   H12F15622   4.121   3.722   8.067 -0.4309 -0.9417 -0.2812
  142OSM   H12G15623   4.099   3.557   8.113 -0.1124 -0.7201  0.5046
  142OSM   C13F15624   4.001   3.700   8.244  0.2700 -0.1273  0.2268
  142OSM   H13F15625   4.100   3.713   8.293  0.7181  0.7115 -0.8475
  142OSM   H13G15626   3.945   3.618   8.292  0.9353 -0.6163  0.1882
  142OSM   C14F15627   3.927   3.833   8.247 -0.5796 -0.4383  0.3610
  142OSM   H14F15628   3.848   3.848   8.171  0.9819  1.5512 -0.9610
  142OSM   H14G15629   4.006   3.906   8.219  0.3723 -0.8173  1.9265
  142OSM   C15F15630   3.860   3.870   8.385  0.0056 -0.0505 -0.0678
  142OSM   H15F15631   3.783   3.791   8.396  0.5475 -0.6375 -0.3822
  142OSM   H15G15632   3.833   3.975   8.363  1.7080  0.0755 -1.8678
  142OSM   C16F15633   3.950   3.854   8.509 -1.0575 -0.3420  0.4961
  142OSM   H16F15634   3.995   3.955   8.526 -0.6545 -0.0107 -2.0666
  142OSM   H16G15635   4.037   3.788   8.492 -0.7502 -0.5068  2.4983
  142OSM   C17F15636   3.876   3.829   8.638 -0.4487  0.2589 -0.3378
  142OSM   H17F15637   3.821   3.732   8.633 -0.9748  0.5223  0.1756
  142OSM   H17G15638   3.794   3.905   8.643 -2.0219 -1.2162 -2.0768
  142OSM   C18F15639   3.981   3.843   8.760 -0.1390  0.5562 -0.3777
  142OSM   H18F15640   4.058   3.765   8.748 -0.7062  0.2554 -2.3511
  142OSM   H18G15641   3.922   3.837   8.854 -1.8292 -0.8515 -1.4530
  142OSM   H18H15642   4.021   3.947   8.762  1.6376 -0.0040  3.8282
  143OSM      N15643   6.360   5.482   6.382 -0.1343  0.5260 -0.1022
  143OSM    C1515644   6.496   5.502   6.320  0.3923 -0.0452  0.6926
  143OSM   H15A15645   6.484   5.456   6.223 -0.2608  2.3328 -0.4182
  143OSM   H15B15646   6.578   5.451   6.368 -0.1626  0.5719  2.3736
  143OSM   H15C15647   6.515   5.606   6.301  0.4151 -0.4223 -1.5760
  143OSM    C1415648   6.351   5.567   6.502 -0.9557 -0.7488  0.2968
  143OSM   H14A15649   6.435   5.540   6.565  1.1423  3.0380 -0.5712
  143OSM   H14B15650   6.249   5.561   6.536 -0.7210 -1.1859  0.9455
  143OSM   H14C15651   6.365   5.671   6.477 -0.1064 -1.1279 -0.9037
  143OSM    C1315652   6.259   5.535   6.282 -0.2828  0.1275 -0.4071
  143OSM   H13A15653   6.286   5.629   6.237 -0.3725 -0.1609 -1.0707
  143OSM   H13B15654   6.159   5.533   6.324  0.1505  0.3604  0.6780
  143OSM   H13C15655   6.257   5.476   6.192 -0.6935 -1.6379  0.7044
  143OSM    C1215656   6.349   5.335   6.423 -0.3018  0.7754  0.2384
  143OSM   H12A15657   6.254   5.326   6.474 -0.2013 -2.3959  0.0882
  143OSM   H12B15658   6.435   5.322   6.488 -0.1852 -1.1259 -0.2124
  143OSM    C1115659   6.337   5.225   6.314  0.1828 -0.3449 -0.2001
  143OSM   H11A15660   6.257   5.252   6.242 -1.4664  0.1669  1.7325
  143OSM   H11B15661   6.301   5.135   6.369 -2.2480  0.9684  0.5011
  143OSM      P15662   6.559   5.104   6.279 -0.1865  0.0000  0.2979
  143OSM    O1315663   6.507   4.976   6.236 -0.1787  0.0617  0.0381
  143OSM    O1415664   6.675   5.148   6.209  0.1174 -0.4334 -0.7957
  143OSM    O1115665   6.575   5.120   6.440  0.5585  0.4289 -0.6416
  143OSM    O1215666   6.452   5.210   6.236  0.1461  0.1720 -0.0864
  143OSM    C1S15667   6.624   5.001   6.496  0.2701  0.1719  0.1536
  143OSM    H1S15668   6.731   4.992   6.467  1.0635  1.1987  2.4986
  143OSM    H1T15669   6.583   4.903   6.463  2.2028 -0.6963  0.1827
  143OSM     NF15670   6.701   4.895   6.706  0.1576  0.1925  0.1639
  143OSM    HNF15671   6.673   4.811   6.754  3.9277 -1.1048  0.4181
  143OSM    C2S15672   6.617   5.001   6.652  0.1212  0.5022  0.0616
  143OSM    H2S15673   6.646   5.099   6.696 -0.5416 -0.0965  1.9707
  143OSM    C3S15674   6.464   5.001   6.700  0.3840  0.1677 -0.7615
  143OSM    H3S15675   6.421   4.899   6.700  2.1558 -0.6088 -0.1468
  143OSM     O315676   6.383   5.078   6.616  0.3737  0.1129 -0.1761
  143OSM    HO315677   6.451   5.095   6.550  0.5995  0.4622  0.1462
  143OSM    C4S15678   6.443   5.061   6.841  0.1363  0.1227  0.7758
  143OSM    H4S15679   6.458   5.170   6.840 -0.3784  0.1967  0.7165
  143OSM    C5S15680   6.442   4.988   6.954 -0.0245 -0.4030 -0.3811
  143OSM    H5S15681   6.443   4.879   6.943 -0.7569 -0.3167 -1.4480
  143OSM    C6S15682   6.434   5.054   7.089  0.6365  0.9051 -0.2318
  143OSM    H6S15683   6.421   5.165   7.085  0.0618  0.8665  0.3843
  143OSM    H6T15684   6.527   5.044   7.148 -0.0600  1.8296  1.0829
  143OSM    C7S15685   6.320   4.998   7.172  0.3897 -0.0994 -0.3707
  143OSM    H7S15686   6.335   4.888   7.164  2.1175 -0.0675  1.6323
  143OSM    H7T15687   6.215   5.029   7.154  0.7671  0.7744 -1.1353
  143OSM    C8S15688   6.344   5.034   7.321  0.8706  0.0956 -0.6254
  143OSM    H8S15689   6.247   5.074   7.359  0.4764 -0.8459 -0.6232
  143OSM    H8T15690   6.409   5.124   7.327 -0.3510  0.9796 -0.0993
  143OSM    C9S15691   6.397   4.925   7.408 -0.6220  1.0222 -0.1034
  143OSM    H9S15692   6.493   4.893   7.363 -1.4640 -1.1513 -0.5095
  143OSM    H9T15693   6.331   4.835   7.406 -0.3625  0.8297 -0.0725
  143OSM   C10S15694   6.430   4.963   7.557  0.2997  0.5022  0.3445
  143OSM   H10S15695   6.526   5.019   7.554  0.8092 -0.3299  0.4487
  143OSM   H10T15696   6.445   4.872   7.620 -0.7264 -1.7388 -2.4067
  143OSM   C11S15697   6.320   5.048   7.624  1.0207  0.2395  0.1054
  143OSM   H11S15698   6.220   5.011   7.591  0.4296  0.9756  1.0300
  143OSM   H11T15699   6.327   5.155   7.594 -1.3710  0.0281 -1.4650
  143OSM   C12S15700   6.328   5.028   7.776  0.0024 -0.4028  0.2861
  143OSM   H12S15701   6.307   4.921   7.800 -0.7386 -0.5509 -0.8957
  143OSM   H12T15702   6.257   5.103   7.817  0.1946 -0.3763  0.5688
  143OSM   C13S15703   6.467   5.048   7.843 -0.4281 -0.4481  0.0430
  143OSM   H13S15704   6.488   5.153   7.812 -1.5558 -0.4908 -0.9435
  143OSM   H13T15705   6.537   4.968   7.812 -1.0983 -1.7933  1.8287
  143OSM   C14S15706   6.454   5.032   7.996 -0.3543  0.1557  1.0419
  143OSM   H14S15707   6.422   4.926   8.005 -0.7025  0.0474 -1.0123
  143OSM   H14T15708   6.375   5.089   8.049  1.2621  0.0147  3.8168
  143OSM   C15S15709   6.583   5.043   8.083 -0.7989  0.4634 -0.1101
  143OSM   H15S15710   6.626   5.142   8.059  0.2765  0.1261  0.3897
  143OSM   H15T15711   6.646   4.958   8.050 -0.3818  0.4818  0.6336
  143OSM   C16S15712   6.541   5.021   8.230 -0.4771  0.1499  0.3662
  143OSM   H16S15713   6.490   4.923   8.241  1.0278 -0.4637  2.5708
  143OSM   H16T15714   6.475   5.103   8.267  0.0623  0.9383 -0.3906
  143OSM   C17S15715   6.657   5.009   8.325 -0.3704  0.1814 -0.2310
  143OSM   H17S15716   6.609   5.009   8.426  0.9179  1.3451  0.4014
  143OSM   H17T15717   6.717   5.102   8.318  1.5538 -1.1260 -2.9596
  143OSM   C18S15718   6.742   4.882   8.306 -0.3380 -0.2782 -0.0175
  143OSM   H18S15719   6.811   4.870   8.393  0.0730 -0.7082 -0.4008
  143OSM   H18T15720   6.811   4.885   8.219 -0.0692  0.3858  0.2072
  143OSM   H18U15721   6.685   4.787   8.303  0.8694 -1.1530  2.2613
  143OSM    C1F15722   6.831   4.895   6.691  0.2574 -0.0189 -0.1554
  143OSM     OF15723   6.894   4.996   6.655  0.0115  0.4031  0.1906
  143OSM    C2F15724   6.908   4.767   6.720 -0.9293 -0.2810 -0.1780
  143OSM    H2F15725   6.993   4.752   6.650 -0.5852 -1.3714  0.4609
  143OSM    H2G15726   6.831   4.687   6.716  1.4832 -2.7376 -0.3257
  143OSM    C3F15727   6.965   4.761   6.862 -0.5360  0.5416 -0.6882
  143OSM    H3F15728   6.882   4.743   6.933  0.0532  1.4671  0.2547
  143OSM    H3G15729   7.003   4.864   6.877 -0.1588  0.4447 -0.9438
  143OSM    C4F15730   7.071   4.654   6.888 -0.1361 -0.0578  0.4143
  143OSM    H4F15731   7.160   4.654   6.821 -1.4626 -2.2782 -1.5276
  143OSM    H4G15732   7.027   4.553   6.884  0.2271 -0.2636  1.3365
  143OSM    C5F15733   7.126   4.662   7.033  0.7927 -0.1553  0.3402
  143OSM    H5F15734   7.183   4.568   7.041  0.5439 -0.5291 -1.6122
  143OSM    H5G15735   7.032   4.668   7.092  1.1533  0.9678  0.8241
  143OSM    C6F15736   7.232   4.771   7.053 -0.5362  0.2550 -0.7521
  143OSM    H6F15737   7.208   4.856   6.985  0.7426  1.2982  0.0575
  143OSM    H6G15738   7.331   4.736   7.016 -1.2746 -1.9520 -0.7872
  143OSM    C7F15739   7.254   4.821   7.193 -0.1466 -0.9094 -0.2097
  143OSM    H7F15740   7.156   4.837   7.242  0.0035 -1.5876  0.3312
  143OSM    H7G15741   7.325   4.906   7.185  0.8153 -1.6499  0.2280
  143OSM    C8F15742   7.314   4.713   7.286 -0.4755 -0.2304  0.3302
  143OSM    H8F15743   7.246   4.626   7.286  1.0050 -1.4405  1.1110
  143OSM    H8G15744   7.315   4.759   7.388  1.3634  0.1226  0.1970
  143OSM    C9F15745   7.459   4.674   7.270  0.0669  0.5393 -0.0560
  143OSM    H9F15746   7.480   4.571   7.237 -0.3444  0.1142  0.9792
  143OSM   C10F15747   7.566   4.744   7.293  0.2304 -0.6582 -0.3524
  143OSM   H10F15748   7.662   4.691   7.289  1.5051  1.5838 -2.2338
  143OSM   C11F15749   7.587   4.882   7.343  0.3755  0.3766 -0.1823
  143OSM   H11F15750   7.503   4.955   7.352  0.3558  0.5770 -1.7763
  143OSM   H11G15751   7.644   4.931   7.262 -2.3921  2.4832 -1.0135
  143OSM   C12F15752   7.658   4.887   7.480 -0.1784 -0.5579 -1.2326
  143OSM   H12F15753   7.675   4.991   7.513 -0.8002 -0.9438  0.3943
  143OSM   H12G15754   7.758   4.846   7.453  0.4485  0.8370 -1.0993
  143OSM   C13F15755   7.586   4.816   7.590 -0.1854  0.3405 -0.1817
  143OSM   H13F15756   7.576   4.707   7.571  0.1994 -0.2377  2.4649
  143OSM   H13G15757   7.482   4.848   7.609 -0.3352 -0.7585  1.0055
  143OSM   C14F15758   7.660   4.818   7.730  0.5213 -0.2290  0.5398
  143OSM   H14F15759   7.600   4.773   7.812  1.5986 -0.2472  1.3470
  143OSM   H14G15760   7.670   4.928   7.743  1.1436  0.1638 -2.4626
  143OSM   C15F15761   7.795   4.744   7.732  0.1377  0.1648  0.0853
  143OSM   H15F15762   7.845   4.757   7.634  1.0548  0.9858  0.6555
  143OSM   H15G15763   7.776   4.635   7.744 -2.5480  0.7115  1.6024
  143OSM   C16F15764   7.873   4.786   7.851 -0.2417 -0.2946  0.1030
  143OSM   H16F15765   7.803   4.798   7.936 -0.9938  3.6599 -0.9108
  143OSM   H16G15766   7.909   4.888   7.828 -0.6192 -0.3821 -0.9493
  143OSM   C17F15767   7.998   4.692   7.883  0.3851  0.1346  0.1879
  143OSM   H17F15768   8.061   4.698   7.792  0.1775  1.0592  0.0919
  143OSM   H17G15769   7.967   4.587   7.898  0.5023  0.2378  1.2003
  143OSM   C18F15770   8.085   4.733   8.001 -0.5655 -0.4403  0.1855
  143OSM   H18F15771   8.168   4.658   8.002  0.9283  1.1509  0.1891
  143OSM   H18G15772   8.028   4.739   8.096 -2.0079 -2.1993 -0.4980
  143OSM   H18H15773   8.132   4.832   7.982  1.2190 -1.3017 -0.1737
  144OSM      N15774   2.987   5.076   6.388 -0.0785 -0.1524 -0.0859
  144OSM    C1515775   2.938   5.106   6.257  0.1142 -0.8254  0.9923
  144OSM   H15A15776   2.916   5.211   6.243  2.3738 -0.3690  0.5211
  144OSM   H15B15777   2.850   5.048   6.234 -0.2615 -0.2118  0.8260
  144OSM   H15C15778   3.009   5.073   6.183 -0.3246 -1.2834  0.7720
  144OSM    C1415779   3.089   5.176   6.423 -0.0026 -1.0819 -0.3765
  144OSM   H14A15780   3.131   5.160   6.520 -1.8314  1.3871  0.9421
  144OSM   H14B15781   3.044   5.274   6.424  0.3771 -0.9052  1.4613
  144OSM   H14C15782   3.170   5.178   6.352  0.6697 -0.5950  0.3929
  144OSM    C1315783   2.886   5.097   6.493 -0.9422 -0.4189 -0.2568
  144OSM   H13A15784   2.919   5.099   6.596  1.4185  0.8263 -0.9597
  144OSM   H13B15785   2.804   5.027   6.484 -0.3960 -0.8229 -3.4028
  144OSM   H13C15786   2.848   5.198   6.485  2.2011  1.0953  1.7646
  144OSM    C1215787   3.044   4.934   6.401  0.0929  0.3729  0.8081
  144OSM   H12A15788   3.122   4.932   6.327 -1.2024  0.2616 -0.6006
  144OSM   H12B15789   2.967   4.864   6.371  3.1001 -2.1109 -1.7733
  144OSM    C1115790   3.110   4.909   6.538  0.3121 -0.0470  0.6594
  144OSM   H11A15791   3.144   4.803   6.536  1.7815  0.3989  1.0496
  144OSM   H11B15792   3.032   4.920   6.616  0.3706 -1.8444  1.0207
  144OSM      P15793   3.370   4.946   6.508  0.1993  0.1397  0.4411
  144OSM    O1315794   3.359   4.915   6.364  0.2032 -0.0273  0.1885
  144OSM    O1415795   3.467   5.042   6.550 -0.4900 -0.1781  0.3975
  144OSM    O1115796   3.392   4.807   6.581  0.0470  0.0421  0.1394
  144OSM    O1215797   3.222   4.993   6.553 -0.2950 -0.2176 -0.0584
  144OSM    C1S15798   3.449   4.808   6.710 -0.4733 -0.2450  0.0852
  144OSM    H1S15799   3.410   4.889   6.775  2.1967  2.9631 -2.0172
  144OSM    H1T15800   3.559   4.812   6.697 -0.3515 -3.8972 -1.4072
  144OSM     NF15801   3.469   4.701   6.926 -0.6865 -0.4538 -0.4408
  144OSM    HNF15802   3.567   4.720   6.931 -0.6953 -0.5482  0.1000
  144OSM    C2S15803   3.414   4.681   6.799  0.8144  0.8268 -0.3356
  144OSM    H2S15804   3.303   4.681   6.812  0.8715  3.4345  0.8078
  144OSM    C3S15805   3.455   4.550   6.722 -0.2474 -0.4330  0.4771
  144OSM    H3S15806   3.564   4.554   6.701 -0.4493 -1.8357 -1.0475
  144OSM     O315807   3.393   4.538   6.596  0.1156  0.0516 -0.5459
  144OSM    HO315808   3.347   4.619   6.575 -2.6481 -1.2436  0.0133
  144OSM    C4S15809   3.413   4.430   6.803  0.3895 -0.4507 -0.2237
  144OSM    H4S15810   3.306   4.405   6.811  0.6617 -1.2006  1.4898
  144OSM    C5S15811   3.494   4.349   6.868 -0.1136 -0.0386 -0.3453
  144OSM    H5S15812   3.602   4.355   6.854 -0.0200 -0.9499 -0.1009
  144OSM    C6S15813   3.455   4.235   6.960  0.2790 -0.4915 -0.2939
  144OSM    H6S15814   3.490   4.137   6.921  1.5183 -0.8114  1.4867
  144OSM    H6T15815   3.345   4.224   6.962  0.0375  1.5450  1.6349
  144OSM    C7S15816   3.520   4.246   7.095 -0.3559  0.5996 -0.4095
  144OSM    H7S15817   3.631   4.236   7.096 -0.4992 -1.7813 -1.4206
  144OSM    H7T15818   3.487   4.155   7.150  1.1643 -0.0561 -0.5141
  144OSM    C8S15819   3.489   4.378   7.174  0.1055  0.8030 -0.1941
  144OSM    H8S15820   3.381   4.393   7.193 -0.0533  1.1197 -1.2635
  144OSM    H8T15821   3.529   4.468   7.123 -0.8265  0.5050 -1.5107
  144OSM    C9S15822   3.549   4.361   7.316  0.4919 -0.4640  0.1113
  144OSM    H9S15823   3.656   4.333   7.307  1.2105  2.3784 -0.9751
  144OSM    H9T15824   3.492   4.279   7.365 -0.1372  0.2064  0.5202
  144OSM   C10S15825   3.539   4.488   7.395 -0.0098  0.8655 -0.0549
  144OSM   H10S15826   3.602   4.570   7.354  1.5648 -0.2452  0.0648
  144OSM   H10T15827   3.601   4.479   7.486 -0.6599  1.8869  0.5126
  144OSM   C11S15828   3.395   4.530   7.431 -0.7026  0.6095  0.2556
  144OSM   H11S15829   3.333   4.439   7.425 -1.8110  1.4580 -1.9374
  144OSM   H11T15830   3.359   4.592   7.346  0.2292 -2.5145 -2.5992
  144OSM   C12S15831   3.388   4.617   7.555  0.0426  0.0519  0.3703
  144OSM   H12S15832   3.311   4.695   7.540  0.5783  0.3018 -1.1946
  144OSM   H12T15833   3.480   4.679   7.560  0.9971 -1.2981  0.0434
  144OSM   C13S15834   3.374   4.544   7.688  0.3118 -0.1069 -0.2387
  144OSM   H13S15835   3.425   4.611   7.760  2.1114  0.8502 -2.2842
  144OSM   H13T15836   3.440   4.455   7.675  0.4431 -0.1491  0.6684
  144OSM   C14S15837   3.232   4.511   7.715 -0.6852 -0.9522 -0.5384
  144OSM   H14S15838   3.191   4.435   7.644 -1.4864 -0.1390 -0.9614
  144OSM   H14T15839   3.176   4.605   7.702 -0.4341 -0.7807 -0.3817
  144OSM   C15S15840   3.227   4.469   7.865 -0.0470 -0.1341 -0.0747
  144OSM   H15S15841   3.117   4.464   7.884 -0.0208  2.6495  1.2774
  144OSM   H15T15842   3.273   4.536   7.941  0.3298 -0.9831  0.4530
  144OSM   C16S15843   3.289   4.330   7.881  0.4678  0.1229 -0.8984
  144OSM   H16S15844   3.398   4.343   7.866  0.4096  1.6427 -0.1688
  144OSM   H16T15845   3.246   4.256   7.809 -1.0777  0.2906 -0.1841
  144OSM   C17S15846   3.281   4.288   8.028  0.6748  0.1134 -0.0834
  144OSM   H17S15847   3.307   4.381   8.083  0.1721  0.2499 -0.0727
  144OSM   H17T15848   3.356   4.207   8.041  0.6261 -0.3682 -2.3459
  144OSM   C18S15849   3.148   4.222   8.075 -0.4514 -0.9901  0.6363
  144OSM   H18S15850   3.128   4.141   8.002  1.3986 -0.7387 -0.2046
  144OSM   H18T15851   3.061   4.290   8.066  2.6296  3.2280 -0.3379
  144OSM   H18U15852   3.158   4.167   8.172  0.1321 -2.1722 -0.0693
  144OSM    C1F15853   3.411   4.752   7.036  0.4189  0.9910  0.0224
  144OSM     OF15854   3.290   4.763   7.038  0.0601  0.3905 -0.2289
  144OSM    C2F15855   3.500   4.819   7.140 -0.2221  0.5013  0.7741
  144OSM    H2F15856   3.569   4.885   7.084  2.2490 -2.6622 -0.1912
  144OSM    H2G15857   3.571   4.743   7.178 -0.1890  0.6646  1.0380
  144OSM    C3F15858   3.417   4.882   7.255  0.0626  0.2928 -0.3977
  144OSM    H3F15859   3.346   4.803   7.289  0.3234  0.1405 -0.2085
  144OSM    H3G15860   3.361   4.964   7.205 -0.4570  0.8009  0.9777
  144OSM    C4F15861   3.503   4.937   7.368 -0.0183 -0.5001 -0.4992
  144OSM    H4F15862   3.569   5.023   7.342  0.9428 -0.5912  1.4917
  144OSM    H4G15863   3.567   4.850   7.393  0.0752 -0.6117 -1.1090
  144OSM    C5F15864   3.429   4.981   7.494  0.0538  0.0267 -0.3055
  144OSM    H5F15865   3.357   4.908   7.536  0.2717 -0.2248 -0.3690
  144OSM    H5G15866   3.375   5.076   7.473  0.6295  0.3153 -0.5270
  144OSM    C6F15867   3.536   5.016   7.608  0.6630  0.5905 -0.1801
  144OSM    H6F15868   3.598   5.104   7.580 -0.6301  1.1518 -1.3813
  144OSM    H6G15869   3.600   4.932   7.642 -1.7932 -0.9512  0.9340
  144OSM    C7F15870   3.461   5.045   7.743 -0.2919 -0.2493  0.1111
  144OSM    H7F15871   3.382   4.969   7.756 -0.6624  0.0256 -0.4937
  144OSM    H7G15872   3.401   5.136   7.722 -2.4170 -2.0056 -2.0991
  144OSM    C8F15873   3.548   5.060   7.872 -0.3808 -0.3402  0.7121
  144OSM    H8F15874   3.510   5.138   7.941 -0.0605 -0.6001  1.1886
  144OSM    H8G15875   3.644   5.106   7.841 -0.4222 -0.7887 -0.0911
  144OSM    C9F15876   3.575   4.925   7.930 -0.5135  0.3313  0.0908
  144OSM    H9F15877   3.599   4.852   7.850  1.0654  0.7238  0.1689
  144OSM   C10F15878   3.573   4.880   8.055  0.3152 -0.2923 -1.1586
  144OSM   H10F15879   3.575   4.771   8.074 -2.5047 -0.4770 -1.5175
  144OSM   C11F15880   3.534   4.951   8.181 -0.5769 -0.3267 -0.4044
  144OSM   H11F15881   3.480   5.046   8.163 -4.2017 -1.3649  3.3715
  144OSM   H11G15882   3.626   4.980   8.237 -1.8089  2.8366  0.2300
  144OSM   C12F15883   3.446   4.881   8.285 -0.2890 -0.0479 -0.0232
  144OSM   H12F15884   3.426   4.945   8.374 -2.9392  0.0496 -0.6127
  144OSM   H12G15885   3.492   4.785   8.314 -0.9100 -0.0633  0.9827
  144OSM   C13F15886   3.303   4.857   8.231 -0.3249  0.8467  0.1577
  144OSM   H13F15887   3.311   4.803   8.134  0.8220  1.6574 -0.2124
  144OSM   H13G15888   3.261   4.956   8.206  0.0320  0.7490 -0.8932
  144OSM   C14F15889   3.208   4.791   8.329 -0.2835 -0.0938 -0.3349
  144OSM   H14F15890   3.116   4.795   8.268 -0.7966 -2.4755  0.2078
  144OSM   H14G15891   3.200   4.855   8.420  2.0095 -0.1313 -0.0465
  144OSM   C15F15892   3.244   4.646   8.356 -0.1931 -0.8589  0.0931
  144OSM   H15F15893   3.338   4.642   8.414  1.9403 -2.5851 -3.1626
  144OSM   H15G15894   3.280   4.599   8.262  2.4999  0.7912  0.2035
  144OSM   C16F15895   3.134   4.579   8.432 -0.2624 -0.3271 -0.3299
  144OSM   H16F15896   3.048   4.557   8.366  2.6122 -2.9331 -3.5936
  144OSM   H16G15897   3.101   4.655   8.506 -1.4501 -0.4837 -0.6749
  144OSM   C17F15898   3.190   4.452   8.511  0.3644  0.2789  0.5720
  144OSM   H17F15899   3.116   4.420   8.587 -1.9218  2.5407 -0.5523
  144OSM   H17G15900   3.290   4.468   8.558  0.3137  1.1236  0.4100
  144OSM   C18F15901   3.205   4.327   8.413  0.2178  0.8360 -0.7621
  144OSM   H18F15902   3.104   4.300   8.377  0.8909 -2.2597 -0.5740
  144OSM   H18G15903   3.258   4.249   8.471 -0.2544  1.9597  1.2684
  144OSM   H18H15904   3.260   4.361   8.322 -1.1161  2.9276 -0.8705
  145SAPE     N15905   3.920   5.496  10.779 -0.8036  0.3513  0.4040
  145SAPE   HN115906   3.980   5.430  10.833 -0.7530 -2.2788 -2.5912
  145SAPE   HN215907   3.949   5.595  10.787 -1.3624  0.7158 -1.6041
  145SAPE   HN315908   3.822   5.492  10.813 -1.0933  1.2765 -0.3019
  145SAPE   C1215909   3.923   5.450  10.635 -0.4469 -0.1494  0.3000
  145SAPE  H12A15910   3.902   5.341  10.629 -2.6490  0.2632 -0.6985
  145SAPE  H12B15911   4.023   5.469  10.592 -0.9743 -0.1353 -0.9829
  145SAPE   C1115912   3.819   5.524  10.548 -0.5524 -0.1095 -0.1230
  145SAPE  H11A15913   3.810   5.482  10.445  1.4260  0.4956 -0.5981
  145SAPE  H11B15914   3.863   5.626  10.537 -2.1882  0.7686  1.2005
  145SAPE     P15915   3.577   5.413  10.606  0.0820 -0.1158 -0.0333
  145SAPE   O1315916   3.625   5.285  10.650 -0.4923 -0.0790 -0.4032
  145SAPE   O1415917   3.450   5.460  10.669 -0.3976 -0.2762  0.0434
  145SAPE   O1215918   3.688   5.526  10.613 -0.1206 -0.1555  0.2090
  145SAPE   O1115919   3.546   5.412  10.447  0.1202 -0.1060  0.2494
  145SAPE    C115920   3.520   5.538  10.382  0.4117  0.2672 -0.3873
  145SAPE    HA15921   3.426   5.585  10.418  1.5313  2.2205  0.1756
  145SAPE    HB15922   3.603   5.612  10.396 -0.0124  1.0716 -1.8534
  145SAPE    C215923   3.507   5.527  10.227  0.1285  0.0506 -0.0632
  145SAPE    HS15924   3.509   5.628  10.181 -0.0055  0.0436 -0.0835
  145SAPE   O2115925   3.391   5.447  10.200 -0.7226 -0.3071  0.7885
  145SAPE   C2115926   3.279   5.505  10.219 -0.1248  1.0492 -0.2684
  145SAPE   O2215927   3.267   5.626  10.239  0.4958  0.2404 -0.1570
  145SAPE   C2215928   3.156   5.410  10.189 -0.2834 -0.1294 -0.1642
  145SAPE   H2R15929   3.180   5.303  10.199 -1.0793 -0.4386 -1.3336
  145SAPE   H2S15930   3.071   5.448  10.250 -0.3311 -0.2242 -0.1723
  145SAPE    C315931   3.624   5.454  10.172 -0.4483  0.4490  0.1503
  145SAPE    HX15932   3.605   5.454  10.063  0.7753  0.3095 -0.0769
  145SAPE    HY15933   3.639   5.355  10.221  1.2362 -0.0221 -1.2161
  145SAPE   O3115934   3.739   5.540  10.190  0.2716  0.1400  0.3436
  145SAPE   C3115935   3.852   5.466  10.170 -0.2924 -0.5364 -0.3492
  145SAPE   O3215936   3.856   5.351  10.148  0.6492  0.7574  0.4344
  145SAPE   C3215937   3.969   5.558  10.184 -0.1712 -0.1783 -0.2581
  145SAPE   H2X15938   4.032   5.529  10.271  0.1343  2.0801  0.3413
  145SAPE   H2Y15939   3.937   5.663  10.200  0.9131  0.1325 -0.0084
  145SAPE   C2315940   3.104   5.429  10.041  0.5555 -0.1242 -0.5789
  145SAPE   H3R15941   3.079   5.537  10.028 -0.2726 -0.4499 -1.8913
  145SAPE   H3S15942   3.014   5.367  10.020 -0.1448  0.7881 -0.3805
  145SAPE   C2415943   3.210   5.383   9.934 -0.2261  0.6615 -0.7101
  145SAPE   H4R15944   3.214   5.272   9.938 -2.1933  0.5891  1.8915
  145SAPE   H4S15945   3.314   5.407   9.965  0.2819 -0.5798 -1.3889
  145SAPE   C2515946   3.197   5.446   9.799 -0.2272  0.1321 -0.2288
  145SAPE   H5R15947   3.157   5.549   9.802 -0.1004  0.1906 -0.5178
  145SAPE   C2615948   3.214   5.385   9.676 -0.1922 -0.4952 -0.3284
  145SAPE   H6R15949   3.186   5.454   9.595 -1.2370  1.5683  1.6787
  145SAPE   C2715950   3.244   5.237   9.657 -0.5572 -0.3483  0.2765
  145SAPE   H7R15951   3.148   5.188   9.631 -0.9332  0.6101 -0.1693
  145SAPE   H7S15952   3.280   5.184   9.748  0.0811 -1.7613 -0.7687
  145SAPE   C2815953   3.353   5.202   9.557 -0.1388  0.4309  0.2218
  145SAPE   H8R15954   3.452   5.245   9.579 -0.0528 -0.8749  2.6619
  145SAPE   C2915955   3.345   5.123   9.455  0.1088  0.4329  0.5947
  145SAPE   H9R15956   3.437   5.115   9.395 -1.2230 -0.8379 -1.3943
  145SAPE  C21015957   3.231   5.038   9.399 -0.3536  0.2907 -0.5192
  145SAPE  H10R15958   3.236   5.057   9.290 -1.3224 -2.3397 -1.0884
  145SAPE  H10S15959   3.131   5.069   9.436 -1.2162 -3.5060  0.7999
  145SAPE  C21115960   3.263   4.891   9.419  0.1049  1.4014  0.4526
  145SAPE  H11R15961   3.321   4.874   9.511  2.3789  2.8524 -0.6337
  145SAPE  C21215962   3.250   4.794   9.327  0.3449 -0.0265 -0.2323
  145SAPE  H12R15963   3.267   4.694   9.369 -1.0151  0.5772  1.8947
  145SAPE  C21315964   3.197   4.817   9.196  0.2525 -0.3892  0.4829
  145SAPE  H13R15965   3.277   4.832   9.120  0.5553 -0.8873  0.6929
  145SAPE  H13S15966   3.128   4.904   9.189 -0.0016 -0.3886  2.4092
  145SAPE  C21415967   3.120   4.697   9.149  0.6309 -0.0277 -0.2101
  145SAPE  H14R15968   3.064   4.658   9.235 -1.4532  4.3630  0.7525
  145SAPE  C21515969   3.102   4.656   9.023  0.7073  0.4740  0.1638
  145SAPE  H15R15970   3.037   4.569   9.010  0.2147  0.5132  2.0835
  145SAPE  C21615971   3.152   4.712   8.892 -0.5003 -0.6255 -0.8002
  145SAPE  H16R15972   3.242   4.656   8.860 -0.6551  0.3855 -3.2367
  145SAPE  H16S15973   3.205   4.807   8.918  1.0908 -2.1187  1.9091
  145SAPE  C21715974   3.042   4.734   8.781 -0.5564  0.2526 -0.7535
  145SAPE  H17R15975   2.981   4.643   8.766  0.4366 -1.2304  3.1423
  145SAPE  H17S15976   3.100   4.757   8.689  3.7679 -2.3767  0.9960
  145SAPE  C21815977   2.945   4.855   8.802  0.6764  0.6290 -0.2253
  145SAPE  H18R15978   2.996   4.954   8.803 -1.7518  1.9944  2.4030
  145SAPE  H18S15979   2.897   4.851   8.902  1.4923 -1.4336  0.1328
  145SAPE  C21915980   2.829   4.859   8.701 -0.0857 -0.0150 -0.0279
  145SAPE  H19R15981   2.744   4.921   8.735  0.4692 -0.1075  1.5951
  145SAPE  H19S15982   2.800   4.753   8.691 -2.9110  0.5019  1.4700
  145SAPE  C22015983   2.867   4.946   8.579  0.0374  0.2726 -0.0686
  145SAPE  H20R15984   2.782   4.992   8.525 -0.6668  0.3650  1.0868
  145SAPE  H20S15985   2.909   4.877   8.503  3.0379 -0.9337  2.4587
  145SAPE  H20T15986   2.944   5.019   8.610 -0.0354  0.2665  0.1327
  145SAPE   C3315987   4.052   5.564  10.047  0.3846  0.5005 -0.5827
  145SAPE   H3X15988   4.059   5.463  10.002 -3.1890  0.1509 -0.6473
  145SAPE   H3Y15989   4.146   5.604  10.090 -1.4348  1.8878  2.4933
  145SAPE   C3415990   4.008   5.664   9.934  0.3936 -0.0907 -0.1784
  145SAPE   H4X15991   4.090   5.686   9.862 -0.1428 -0.0279 -0.7834
  145SAPE   H4Y15992   3.980   5.757   9.988  3.2376  0.2293  0.9016
  145SAPE   C3515993   3.910   5.612   9.830 -0.6635 -0.1362  0.4313
  145SAPE   H5X15994   3.875   5.708   9.787 -0.8893 -0.6551 -0.5743
  145SAPE   H5Y15995   3.826   5.552   9.872 -0.9645  1.4609  2.2653
  145SAPE   C3615996   3.967   5.534   9.710  0.7147  0.1140  0.1003
  145SAPE   H6X15997   4.022   5.441   9.737 -1.3723 -1.1378  0.3131
  145SAPE   H6Y15998   4.036   5.602   9.656  2.6763 -1.2563  0.7730
  145SAPE   C3715999   3.859   5.488   9.605 -0.1384  0.2508 -0.0161
  145SAPE   H7X16000   3.802   5.574   9.565 -1.1885 -0.7458 -0.7640
  145SAPE   H7Y16001   3.790   5.435   9.674  3.4375 -2.8360  1.6032
  145SAPE   C3816002   3.922   5.398   9.493 -0.3044 -0.2318 -0.3036
  145SAPE   H8X16003   3.965   5.309   9.543  0.5683  0.1462 -0.3600
  145SAPE   H8Y16004   3.996   5.463   9.440 -0.5419 -0.5298 -1.0188
  145SAPE   C3916005   3.814   5.349   9.404 -0.1091  1.0044 -0.2215
  145SAPE   H9X16006   3.756   5.430   9.355  0.1230  1.6235  0.5063
  145SAPE   H9Y16007   3.734   5.299   9.463  1.6226 -0.2223  1.1761
  145SAPE  C31016008   3.880   5.254   9.299  0.9515  0.0492  0.1894
  145SAPE  H10X16009   3.938   5.170   9.342  0.4560  0.1373  1.0645
  145SAPE  H10Y16010   3.955   5.308   9.237  0.7661  0.7962  0.6017
  145SAPE  C31116011   3.759   5.199   9.213 -0.1988 -0.3603  0.1835
  145SAPE  H11X16012   3.698   5.286   9.180 -1.2391  0.1326  3.1271
  145SAPE  H11Y16013   3.703   5.128   9.276 -0.4826 -1.2293 -1.0200
  145SAPE  C31216014   3.815   5.130   9.091  0.6714  0.3289 -0.0584
  145SAPE  H12X16015   3.856   5.033   9.127  1.1164  0.3138 -0.5870
  145SAPE  H12Y16016   3.898   5.179   9.036  0.2131 -1.0756 -2.1511
  145SAPE  C31316017   3.714   5.109   8.983  0.0225 -0.2342 -0.6041
  145SAPE  H13X16018   3.673   5.209   8.957 -3.6247 -1.7837 -1.4709
  145SAPE  H13Y16019   3.620   5.068   9.027 -0.4141  1.2860 -0.0451
  145SAPE  C31416020   3.759   5.033   8.858 -0.3773 -0.1772  0.0681
  145SAPE  H14X16021   3.785   4.929   8.888  1.0478 -1.0573 -3.7046
  145SAPE  H14Y16022   3.843   5.081   8.804 -1.7413  3.1262  0.5905
  145SAPE  C31516023   3.641   5.015   8.753 -0.4609 -0.4584  0.5819
  145SAPE  H15X16024   3.628   5.110   8.697 -0.0412 -0.5106  0.3946
  145SAPE  H15Y16025   3.546   4.993   8.806 -1.5987  0.0699 -1.1561
  145SAPE  C31616026   3.670   4.910   8.639  0.6464  0.0155  0.0461
  145SAPE  H16X16027   3.587   4.915   8.566  2.1303  0.2074 -1.6892
  145SAPE  H16Y16028   3.686   4.810   8.686  2.0294  0.4903  0.6497
  145SAPE  C31716029   3.801   4.948   8.559 -0.1333  0.2030  0.5350
  145SAPE  H17X16030   3.892   4.967   8.621 -0.2287  1.6942  0.2675
  145SAPE  H17Y16031   3.780   5.045   8.508 -3.2674 -0.0506  1.1918
  145SAPE  C31816032   3.821   4.839   8.464  0.6083 -0.8720  0.3211
  145SAPE  H18X16033   3.886   4.885   8.387 -1.2076  0.0527 -0.7491
  145SAPE  H18Y16034   3.727   4.810   8.411  2.7219 -1.8404 -3.1955
  145SAPE  H18Z16035   3.867   4.748   8.506  1.0432 -1.1443 -0.7299
  146SAPE     N16036   2.418   0.053  11.062  0.2246  0.1011 -1.0021
  146SAPE   HN116037   2.416   0.155  11.086  2.3916 -0.3723  1.7142
  146SAPE   HN216038   2.322   0.021  11.087  0.3526  1.2990  1.3892
  146SAPE   HN316039   2.480   0.004  11.130 -0.2204  0.6984 -0.1306
  146SAPE   C1216040   2.446   0.041  10.917 -0.5742  0.5923 -0.5320
  146SAPE  H12A16041   2.367   0.089  10.856  1.6008  3.4143 -1.3859
  146SAPE  H12B16042   2.439  -0.068  10.899  1.0278  0.3986 -0.1606
  146SAPE   C1116043   2.586   0.092  10.877  0.2292 -0.3311  0.6510
  146SAPE  H11A16044   2.605   0.196  10.910  0.9090  0.8225 -2.9700
  146SAPE  H11B16045   2.599   0.104  10.768 -2.8135  0.0487  0.2675
  146SAPE     P16046   2.826   0.046  10.967  0.1033 -0.1838 -0.1814
  146SAPE   O1316047   2.798   0.107  11.098  0.1131 -0.8135 -0.2010
  146SAPE   O1416048   2.923  -0.062  10.978 -0.0367  0.0212  0.0706
  146SAPE   O1216049   2.682  -0.003  10.924 -0.6621  0.4741 -0.4681
  146SAPE   O1116050   2.883   0.157  10.872  0.6696  0.7145  0.5927
  146SAPE    C116051   2.999   0.139  10.794 -0.7511 -0.0396  0.3243
  146SAPE    HA16052   3.090   0.157  10.855 -0.0076  1.1599 -1.0684
  146SAPE    HB16053   3.012   0.048  10.733 -0.0275  1.1541 -1.3798
  146SAPE    C216054   3.004   0.254  10.688 -0.2183 -0.3287 -0.9216
  146SAPE    HS16055   2.980   0.345  10.748 -2.6631 -0.9840 -0.7778
  146SAPE   O2116056   2.904   0.238  10.582 -0.0283 -0.1511  0.3800
  146SAPE   C2116057   2.797   0.309  10.597  0.3378 -0.2835  0.9993
  146SAPE   O2216058   2.777   0.387  10.690 -0.3592 -1.1809  0.7646
  146SAPE   C2216059   2.702   0.280  10.482  0.1433 -0.6427 -0.3195
  146SAPE   H2R16060   2.691   0.170  10.473 -3.3825 -0.3719 -0.4227
  146SAPE   H2S16061   2.609   0.319  10.528 -0.4117 -0.7340 -1.3430
  146SAPE    C316062   3.141   0.268  10.623  0.5641 -0.8651 -0.6279
  146SAPE    HX16063   3.219   0.296  10.698 -0.2134  0.2831 -0.2130
  146SAPE    HY16064   3.134   0.352  10.551  0.7185  0.2290  0.5813
  146SAPE   O3116065   3.179   0.135  10.561 -0.6883  0.2472  0.3002
  146SAPE   C3116066   3.163   0.123  10.431  0.8099 -1.0059  0.2578
  146SAPE   O3216067   3.093   0.203  10.369  0.2321  0.5614 -0.0224
  146SAPE   C3216068   3.232   0.002  10.368 -0.4276  0.0923 -0.0558
  146SAPE   H2X16069   3.164  -0.084  10.387  1.2108 -1.2079  0.1898
  146SAPE   H2Y16070   3.321  -0.026  10.429  0.4134 -0.7475 -1.6149
  146SAPE   C2316071   2.723   0.358  10.355  0.9209  0.2545  0.3479
  146SAPE   H3R16072   2.796   0.306  10.289 -1.5087 -4.1560  0.7436
  146SAPE   H3S16073   2.751   0.460  10.386 -1.8623  0.5809  2.1832
  146SAPE   C2416074   2.602   0.367  10.270  0.3285 -0.4033  0.1114
  146SAPE   H4R16075   2.621   0.437  10.186 -0.7159  1.0793  1.0769
  146SAPE   H4S16076   2.522   0.413  10.331  2.0336  0.1337  2.0466
  146SAPE   C2516077   2.549   0.234  10.221  0.8477  0.3024 -0.2305
  146SAPE   H5R16078   2.518   0.166  10.301 -0.4253  0.3568 -0.6534
  146SAPE   C2616079   2.553   0.189  10.094  0.7733  0.2606  0.7265
  146SAPE   H6R16080   2.517   0.087  10.076  2.1410 -0.3989  1.4887
  146SAPE   C2716081   2.593   0.272   9.969  0.5662  0.5412 -0.4732
  146SAPE   H7R16082   2.690   0.227   9.941  0.3894  0.4798 -0.9940
  146SAPE   H7S16083   2.630   0.372   9.998 -0.0546  0.0699  2.3070
  146SAPE   C2816084   2.495   0.286   9.852  0.0773  0.2875 -0.1264
  146SAPE   H8R16085   2.390   0.302   9.878  0.0394 -1.5998  1.0464
  146SAPE   C2916086   2.527   0.285   9.721  0.2922 -0.0529 -0.1309
  146SAPE   H9R16087   2.444   0.305   9.650  1.3273  0.7755 -1.1508
  146SAPE  C21016088   2.668   0.268   9.655  1.3636 -0.2478  0.3344
  146SAPE  H10R16089   2.755   0.279   9.724  1.4133 -1.5217  0.4837
  146SAPE  H10S16090   2.668   0.360   9.592  1.6619 -1.2235 -1.1355
  146SAPE  C21116091   2.673   0.150   9.564  1.1227  0.0500 -1.0229
  146SAPE  H11R16092   2.694   0.061   9.625 -0.9588 -0.4773 -1.0183
  146SAPE  C21216093   2.659   0.138   9.433  0.0535  0.1639 -0.0151
  146SAPE  H12R16094   2.682   0.039   9.390  0.0866 -0.3540  1.1740
  146SAPE  C21316095   2.631   0.248   9.336  0.3180  0.2242  0.3015
  146SAPE  H13R16096   2.710   0.250   9.258 -2.4795 -1.2413 -2.7962
  146SAPE  H13S16097   2.640   0.352   9.376  2.2670 -0.0387  0.6637
  146SAPE  C21416098   2.502   0.229   9.273 -0.2055 -0.3825 -0.1869
  146SAPE  H14R16099   2.420   0.249   9.344  1.0867  1.1224  0.9676
  146SAPE  C21516100   2.470   0.227   9.140 -0.1317  1.0766  0.3266
  146SAPE  H15R16101   2.363   0.223   9.116 -0.5100 -2.0943  2.0100
  146SAPE  C21616102   2.562   0.217   9.026 -0.2574 -0.4219  1.0108
  146SAPE  H16R16103   2.508   0.163   8.945  1.8149 -1.2256  0.0849
  146SAPE  H16S16104   2.647   0.147   9.042 -1.2168 -1.8079  0.2707
  146SAPE  C21716105   2.626   0.353   8.993 -0.2249 -0.3436  0.0839
  146SAPE  H17R16106   2.697   0.371   9.076 -0.3009 -0.9563  0.2880
  146SAPE  H17S16107   2.552   0.436   8.989  0.2760  0.1095  0.0760
  146SAPE  C21816108   2.690   0.340   8.852  0.0247 -0.6804 -0.4280
  146SAPE  H18R16109   2.608   0.315   8.781  0.0767  0.0987 -0.7656
  146SAPE  H18S16110   2.762   0.255   8.856 -0.9230 -1.5741 -1.5523
  146SAPE  C21916111   2.755   0.471   8.813 -0.2000  0.2466  0.7533
  146SAPE  H19R16112   2.817   0.493   8.902  0.2746 -1.5541  0.8926
  146SAPE  H19S16113   2.671   0.544   8.805 -0.3925 -0.0246  0.2567
  146SAPE  C22016114   2.845   0.478   8.690  0.2388  0.2327  0.0564
  146SAPE  H20R16115   2.789   0.442   8.601 -0.3249  2.3292 -0.4719
  146SAPE  H20S16116   2.936   0.413   8.689 -0.3500 -0.6266 -1.4886
  146SAPE  H20T16117   2.882   0.582   8.676 -0.7832  0.4175 -1.5839
  146SAPE   C3316118   3.264   0.026  10.214  0.8553 -0.1951 -0.7655
  146SAPE   H3X16119   3.177   0.057  10.153  1.3892  1.0281 -0.9301
  146SAPE   H3Y16120   3.308  -0.068  10.173  1.1748  0.0202 -0.9185
  146SAPE   C3416121   3.371   0.138  10.198  0.3545  0.8344 -0.3525
  146SAPE   H4X16122   3.452   0.121  10.273  1.0465  3.3853 -0.4128
  146SAPE   H4Y16123   3.334   0.241  10.216  1.2560  0.6701  3.2805
  146SAPE   C3516124   3.438   0.120  10.061  0.0883 -0.1641  0.1245
  146SAPE   H5X16125   3.526   0.057  10.085  1.9411  1.8829 -0.9700
  146SAPE   H5Y16126   3.487   0.213  10.028 -1.2583  0.1500 -1.0651
  146SAPE   C3616127   3.345   0.076   9.949 -0.6927  0.2252 -0.5969
  146SAPE   H6X16128   3.270   0.155   9.928  1.1880  1.7872 -1.7790
  146SAPE   H6Y16129   3.299  -0.024   9.969 -0.0124 -0.1652 -0.9416
  146SAPE   C3716130   3.443   0.041   9.831 -0.1591  0.2220 -0.3147
  146SAPE   H7X16131   3.481  -0.063   9.842 -3.6814 -1.1874 -0.0090
  146SAPE   H7Y16132   3.526   0.115   9.836  0.5195 -0.6116  1.6038
  146SAPE   C3816133   3.373   0.028   9.699 -0.4543  0.0933 -0.4726
  146SAPE   H8X16134   3.339   0.132   9.678 -0.9816 -0.0605 -0.3991
  146SAPE   H8Y16135   3.296  -0.052   9.694 -0.6856  0.3560 -1.3416
  146SAPE   C3916136   3.478   0.000   9.597  0.3052  0.8183 -0.3244
  146SAPE   H9X16137   3.536  -0.093   9.614 -1.2662 -0.1606 -0.0643
  146SAPE   H9Y16138   3.545   0.087   9.610 -1.2057  1.8870  0.7620
  146SAPE  C31016139   3.416   0.002   9.453 -0.6231  0.0972  0.5025
  146SAPE  H10X16140   3.410   0.110   9.428 -1.5464  0.4245  2.0421
  146SAPE  H10Y16141   3.317  -0.048   9.447 -1.2844  1.3859  0.2688
  146SAPE  C31116142   3.498  -0.074   9.350 -0.7063  0.3304 -0.1537
  146SAPE  H11X16143   3.535  -0.161   9.408 -2.0830 -0.8318 -0.9681
  146SAPE  H11Y16144   3.593  -0.024   9.321 -0.2361 -1.3420 -1.6979
  146SAPE  C31216145   3.418  -0.089   9.225 -0.3535  0.1501 -0.6541
  146SAPE  H12X16146   3.331  -0.158   9.234  0.6284 -1.3934 -2.3440
  146SAPE  H12Y16147   3.494  -0.148   9.169  0.2038 -1.5285  1.6806
  146SAPE  C31316148   3.379   0.044   9.170  0.2424 -0.7409 -0.2939
  146SAPE  H13X16149   3.466   0.112   9.175  0.7569 -1.3919 -0.3352
  146SAPE  H13Y16150   3.302   0.101   9.228  3.4913  3.2635  0.5567
  146SAPE  C31416151   3.347   0.036   9.020 -0.8752 -0.4729  0.1415
  146SAPE  H14X16152   3.263  -0.036   9.016 -0.9552 -0.4474  1.0347
  146SAPE  H14Y16153   3.428  -0.023   8.972  1.0912  2.3300 -0.2406
  146SAPE  C31516154   3.304   0.166   8.950 -0.0608  0.4206  0.6528
  146SAPE  H15X16155   3.384   0.243   8.957 -0.2744  0.6292  0.8059
  146SAPE  H15Y16156   3.211   0.200   9.001 -0.2885 -0.2585  0.6993
  146SAPE  C31616157   3.288   0.137   8.802 -0.6788 -0.7836  0.1446
  146SAPE  H16X16158   3.208   0.060   8.790 -2.1646  0.3508  2.2056
  146SAPE  H16Y16159   3.376   0.087   8.756 -0.1477  0.2566 -0.0025
  146SAPE  C31716160   3.242   0.263   8.734  0.3798 -0.2643 -0.3866
  146SAPE  H17X16161   3.315   0.342   8.763  0.6996 -1.1498  1.3451
  146SAPE  H17Y16162   3.146   0.302   8.772  0.3028 -0.5195 -0.3216
  146SAPE  C31816163   3.224   0.234   8.592 -0.2576  0.4048  0.7402
  146SAPE  H18X16164   3.327   0.221   8.553  0.0223 -1.7243  2.0057
  146SAPE  H18Y16165   3.181   0.323   8.541  2.6647  1.0970 -0.7769
  146SAPE  H18Z16166   3.178   0.134   8.579  1.5462 -0.4827  0.8652
  147SAPE     N16167   5.349   3.324  11.136  0.2434 -0.6174 -0.1560
  147SAPE   HN116168   5.423   3.274  11.083 -0.8807 -1.8096 -0.6706
  147SAPE   HN216169   5.382   3.415  11.176 -1.0628 -0.7694  1.3887
  147SAPE   HN316170   5.345   3.263  11.221  2.9398  0.8427  1.1469
  147SAPE   C1216171   5.229   3.366  11.050 -0.0423 -0.1362  0.0382
  147SAPE  H12A16172   5.147   3.407  11.113 -1.0220 -3.5111  1.1624
  147SAPE  H12B16173   5.187   3.269  11.017  1.0180 -0.9523  1.0156
  147SAPE   C1116174   5.268   3.450  10.926  0.3856  0.1747 -0.1421
  147SAPE  H11A16175   5.198   3.415  10.846 -0.8797 -0.7802  1.3226
  147SAPE  H11B16176   5.375   3.448  10.898  0.5138  2.0160  0.0961
  147SAPE     P16177   5.319   3.683  11.048  0.5312 -0.2254 -0.1514
  147SAPE   O1316178   5.219   3.764  11.115  0.0893 -0.4903  0.3792
  147SAPE   O1416179   5.411   3.598  11.138  0.0409 -0.0760  0.0085
  147SAPE   O1216180   5.236   3.593  10.946 -1.1063  0.4326  0.0310
  147SAPE   O1116181   5.407   3.770  10.949  0.1789  0.5026  0.2217
  147SAPE    C116182   5.346   3.843  10.843  0.3743 -0.3743  0.3169
  147SAPE    HA16183   5.253   3.894  10.876  0.0299 -0.9512  0.2610
  147SAPE    HB16184   5.411   3.926  10.808 -0.6340  0.8480  1.2272
  147SAPE    C216185   5.300   3.769  10.714  0.3355  0.3762 -0.6507
  147SAPE    HS16186   5.214   3.702  10.735  1.8056 -1.3838  0.0248
  147SAPE   O2116187   5.416   3.691  10.678  0.1767  0.6141 -0.3198
  147SAPE   C2116188   5.393   3.587  10.599  0.2148  0.2506 -0.8297
  147SAPE   O2216189   5.283   3.552  10.576  0.0949  0.2428 -0.3388
  147SAPE   C2216190   5.527   3.540  10.543 -0.3644  0.6076  0.3322
  147SAPE   H2R16191   5.584   3.624  10.499 -0.3583  0.1437 -0.5605
  147SAPE   H2S16192   5.585   3.498  10.628 -1.6266  1.0364  1.4506
  147SAPE    C316193   5.257   3.868  10.601 -0.3207 -0.1364 -0.7319
  147SAPE    HX16194   5.340   3.942  10.596  1.7423 -2.3634 -1.9165
  147SAPE    HY16195   5.157   3.914  10.617  0.8740  3.2338 -2.1749
  147SAPE   O3116196   5.256   3.804  10.471 -0.1264 -0.1297  0.1248
  147SAPE   C3116197   5.183   3.865  10.376 -0.5162 -0.1916 -0.3607
  147SAPE   O3216198   5.124   3.969  10.393  0.3177 -0.0323  0.0354
  147SAPE   C3216199   5.189   3.787  10.247  0.1111 -0.0568 -0.5364
  147SAPE   H2X16200   5.166   3.683  10.278  0.4779  0.2292  0.7538
  147SAPE   H2Y16201   5.290   3.786  10.200  0.8012 -1.7098  0.8500
  147SAPE   C2316202   5.507   3.421  10.451  0.0878 -0.9502  0.2025
  147SAPE   H3R16203   5.441   3.440  10.364  0.9256 -0.8979 -0.4316
  147SAPE   H3S16204   5.456   3.341  10.509 -2.0100 -0.8563 -1.4257
  147SAPE   C2416205   5.637   3.354  10.389 -0.0730  0.0678  0.4038
  147SAPE   H4R16206   5.600   3.256  10.352  0.2819  0.2620 -0.4897
  147SAPE   H4S16207   5.716   3.329  10.464 -0.5498 -0.5347  0.7203
  147SAPE   C2516208   5.685   3.449  10.280 -0.0704 -0.9120 -1.0471
  147SAPE   H5R16209   5.747   3.533  10.316 -0.2481 -0.9791 -0.5735
  147SAPE   C2616210   5.678   3.441  10.143 -0.3002  0.2458 -0.7674
  147SAPE   H6R16211   5.715   3.528  10.086  0.0913  0.1958 -0.5868
  147SAPE   C2716212   5.621   3.331  10.052  0.3146 -0.4547  0.0629
  147SAPE   H7R16213   5.532   3.372  10.000  0.0594  0.4683  1.1859
  147SAPE   H7S16214   5.581   3.241  10.106 -0.0111 -0.2438  0.1795
  147SAPE   C2816215   5.735   3.271   9.971  0.1030 -0.3920  0.0942
  147SAPE   H8R16216   5.824   3.254  10.035 -0.5142  1.4203  1.5290
  147SAPE   C2916217   5.745   3.261   9.841  0.2474  0.3791 -0.1109
  147SAPE   H9R16218   5.829   3.203   9.801 -0.9279 -0.6497 -1.1685
  147SAPE  C21016219   5.641   3.299   9.737  0.6566  0.3195  0.2238
  147SAPE  H10R16220   5.553   3.341   9.790  0.3547 -1.1585  0.9487
  147SAPE  H10S16221   5.601   3.207   9.690  0.7723  0.0017  0.7374
  147SAPE  C21116222   5.691   3.400   9.630  0.5631 -1.1187  0.3928
  147SAPE  H11R16223   5.746   3.485   9.674 -2.3402  1.0841 -0.0079
  147SAPE  C21216224   5.673   3.394   9.497 -0.3344 -0.5796  0.5086
  147SAPE  H12R16225   5.703   3.481   9.436  0.3220 -0.0990  1.4862
  147SAPE  C21316226   5.590   3.280   9.427 -0.5286  0.1631 -0.3939
  147SAPE  H13R16227   5.495   3.313   9.380 -1.3310 -0.6535  0.6044
  147SAPE  H13S16228   5.557   3.197   9.493 -3.7704  1.2642 -0.4669
  147SAPE  C21416229   5.669   3.228   9.305 -0.1524  0.4623 -0.1339
  147SAPE  H14R16230   5.646   3.280   9.211 -2.1601 -1.4413 -0.7889
  147SAPE  C21516231   5.752   3.121   9.294  0.9480  0.5869  0.6560
  147SAPE  H15R16232   5.796   3.099   9.196  0.9307  0.8081  0.5972
  147SAPE  C21616233   5.789   3.029   9.410  0.4846 -0.2615 -0.5595
  147SAPE  H16R16234   5.757   2.925   9.390  1.8064 -0.5969 -0.9989
  147SAPE  H16S16235   5.740   3.066   9.503  1.9519 -3.1339  1.4891
  147SAPE  C21716236   5.939   3.018   9.445 -0.2350  0.0208  0.2244
  147SAPE  H17R16237   5.992   3.018   9.347 -0.9871  1.1592 -0.1945
  147SAPE  H17S16238   5.970   2.912   9.461 -0.7111 -0.4000 -1.3656
  147SAPE  C21816239   5.992   3.138   9.534 -0.5266 -0.1641 -0.7313
  147SAPE  H18R16240   5.927   3.130   9.623 -0.7494  1.5593 -0.7047
  147SAPE  H18S16241   5.974   3.232   9.478  0.6154  0.4734 -0.0630
  147SAPE  C21916242   6.141   3.134   9.565 -0.0184  0.0635 -0.1810
  147SAPE  H19R16243   6.167   3.049   9.631  2.1203  1.3632  0.7419
  147SAPE  H19S16244   6.163   3.225   9.624 -1.6095  0.6535 -0.4403
  147SAPE  C22016245   6.230   3.127   9.443  0.5124  0.0643  0.4338
  147SAPE  H20R16246   6.250   3.034   9.385  1.7322  1.4767 -1.5298
  147SAPE  H20S16247   6.330   3.163   9.478  1.0323 -2.1574  1.4538
  147SAPE  H20T16248   6.204   3.211   9.376 -0.2207  0.5439  1.3121
  147SAPE   C3316249   5.082   3.838  10.145 -0.3409 -0.4203 -0.4347
  147SAPE   H3X16250   5.120   3.936  10.107 -1.3056  0.2562  0.2673
  147SAPE   H3Y16251   4.986   3.860  10.196 -0.5058 -0.0834 -0.8751
  147SAPE   C3416252   5.060   3.734  10.038 -0.2766  0.0290 -0.3893
  147SAPE   H4X16253   5.031   3.630  10.062 -1.9729  0.2729 -1.2186
  147SAPE   H4Y16254   5.161   3.728   9.992 -0.5008  2.0547 -1.2555
  147SAPE   C3516255   4.953   3.771   9.929 -0.4727  0.0364  0.2415
  147SAPE   H5X16256   4.934   3.674   9.879  2.4331 -1.3764  1.6224
  147SAPE   H5Y16257   5.004   3.847   9.867 -1.5203 -0.1099 -0.8322
  147SAPE   C3616258   4.823   3.837   9.969 -0.2555 -0.1280 -0.1172
  147SAPE   H6X16259   4.768   3.858   9.875  0.2750  2.4965  0.0683
  147SAPE   H6Y16260   4.826   3.939  10.014  2.4191 -0.5114  0.7235
  147SAPE   C3716261   4.736   3.749  10.065 -0.8813 -0.2545 -0.3171
  147SAPE   H7X16262   4.788   3.754  10.164 -0.0762  2.7005 -0.7980
  147SAPE   H7Y16263   4.728   3.644  10.029  0.8660 -0.6260  0.2530
  147SAPE   C3816264   4.596   3.805  10.094 -0.0051  1.0046 -0.0556
  147SAPE   H8X16265   4.599   3.916  10.095  1.1428  1.0089 -1.3878
  147SAPE   H8Y16266   4.560   3.768  10.193  3.1901  2.7801  1.9602
  147SAPE   C3916267   4.498   3.767   9.986  0.3209  0.6922 -0.2143
  147SAPE   H9X16268   4.483   3.659   9.966  1.6736  0.8070 -2.0635
  147SAPE   H9Y16269   4.549   3.794   9.891  0.4475  2.7170  0.3732
  147SAPE  C31016270   4.363   3.836  10.003 -0.1860  0.0896  0.0868
  147SAPE  H10X16271   4.393   3.941   9.985  2.2179 -0.8512 -1.8880
  147SAPE  H10Y16272   4.318   3.819  10.104 -1.1773 -0.0240 -0.3639
  147SAPE  C31116273   4.260   3.795   9.894 -0.1252 -0.6082 -0.6816
  147SAPE  H11X16274   4.169   3.858   9.900  1.2558  1.3762  0.5218
  147SAPE  H11Y16275   4.218   3.694   9.914  2.8968 -2.0942 -1.2161
  147SAPE  C31216276   4.311   3.806   9.745  0.0799  0.5752  0.2327
  147SAPE  H12X16277   4.382   3.723   9.729 -0.1096  0.5206 -0.3679
  147SAPE  H12Y16278   4.364   3.903   9.736  0.5659  0.2819 -0.1050
  147SAPE  C31316279   4.194   3.786   9.649 -0.2788  0.4408 -0.1831
  147SAPE  H13X16280   4.100   3.838   9.678  0.3689  2.2113 -1.0650
  147SAPE  H13Y16281   4.163   3.680   9.650  1.8872 -0.2275  0.9313
  147SAPE  C31416282   4.223   3.835   9.509  0.0145 -0.7283  0.1497
  147SAPE  H14X16283   4.331   3.856   9.495 -0.0389 -1.4935 -1.7316
  147SAPE  H14Y16284   4.167   3.929   9.492 -0.5288 -1.1749 -0.5917
  147SAPE  C31516285   4.172   3.752   9.394 -0.0271  1.0291  0.4305
  147SAPE  H15X16286   4.061   3.752   9.390 -0.1543 -1.9144  1.3358
  147SAPE  H15Y16287   4.194   3.647   9.422 -3.8507  0.2518  1.0998
  147SAPE  C31616288   4.240   3.782   9.259  0.2255  0.0512  1.1422
  147SAPE  H16X16289   4.350   3.793   9.249  0.0052  0.3804 -2.1716
  147SAPE  H16Y16290   4.202   3.882   9.228  2.4571  1.0512  1.4017
  147SAPE  C31716291   4.213   3.678   9.153  0.3866 -0.0434  0.3076
  147SAPE  H17X16292   4.257   3.583   9.190  0.4420 -0.1139  0.0661
  147SAPE  H17Y16293   4.258   3.712   9.057 -1.8412 -1.0042 -1.1640
  147SAPE  C31816294   4.062   3.671   9.111  0.0222 -0.1146 -0.2634
  147SAPE  H18X16295   4.049   3.641   9.005  0.6480  1.6012 -0.8730
  147SAPE  H18Y16296   4.012   3.770   9.122 -0.1410 -0.3935  1.9584
  147SAPE  H18Z16297   4.001   3.601   9.171 -0.4782 -0.7260 -1.4500
  148SAPE     N16298   6.476   3.658  10.842 -0.0264 -0.0355  0.5911
  148SAPE   HN116299   6.477   3.761  10.827 -0.9726 -0.0203  0.5822
  148SAPE   HN216300   6.393   3.641  10.903 -0.6704 -0.9441 -0.4983
  148SAPE   HN316301   6.565   3.633  10.890  1.4769  0.5487 -1.7315
  148SAPE   C1216302   6.440   3.594  10.709 -0.0711 -0.3859  0.0972
  148SAPE  H12A16303   6.431   3.484  10.721 -0.8057 -0.3736 -0.2700
  148SAPE  H12B16304   6.516   3.630  10.637 -1.1880 -0.1789 -1.0054
  148SAPE   C1116305   6.302   3.638  10.655  0.0857 -0.3882 -0.7779
  148SAPE  H11A16306   6.228   3.598  10.727 -0.5968  1.2318 -0.5364
  148SAPE  H11B16307   6.279   3.600  10.554 -0.7074  0.4985 -0.9447
  148SAPE     P16308   6.165   3.862  10.641  0.4708  0.2315  0.4113
  148SAPE   O1316309   6.063   3.798  10.728  0.2889 -0.1430 -0.0804
  148SAPE   O1416310   6.200   4.009  10.662 -0.2028  0.3631  0.3813
  148SAPE   O1216311   6.297   3.785  10.658  0.0247  0.1060  0.2918
  148SAPE   O1116312   6.126   3.850  10.483  0.5018  0.2717 -0.1557
  148SAPE    C116313   6.237   3.872  10.389  0.5999 -0.1612 -0.6269
  148SAPE    HA16314   6.330   3.899  10.442  0.8513  1.5266 -1.8335
  148SAPE    HB16315   6.276   3.779  10.341 -1.0277 -1.4132  0.3754
  148SAPE    C216316   6.204   3.985  10.285 -0.1065 -0.0884 -0.4336
  148SAPE    HS16317   6.161   4.067  10.345 -4.0189 -1.7855 -0.5988
  148SAPE   O2116318   6.117   3.930  10.185 -0.5405  0.1981  0.0456
  148SAPE   C2116319   5.987   3.931  10.207 -0.3395  0.4122  0.6193
  148SAPE   O2216320   5.929   3.998  10.294 -1.3106  0.1811  0.2882
  148SAPE   C2216321   5.906   3.847  10.101  0.5706  0.9782 -0.3042
  148SAPE   H2R16322   5.888   3.750  10.152  1.4756  1.1955  0.4433
  148SAPE   H2S16323   5.819   3.909  10.071 -0.5496 -1.6181 -3.0887
  148SAPE    C316324   6.331   4.035  10.206  0.5779 -0.5018  0.1697
  148SAPE    HX16325   6.398   3.948  10.187  1.0758 -0.2742  0.8512
  148SAPE    HY16326   6.396   4.107  10.260  0.1437  0.8796 -1.0949
  148SAPE   O3116327   6.299   4.096  10.072  0.3729  0.0545 -0.3145
  148SAPE   C3116328   6.224   4.201  10.079 -0.2055  0.8987  1.0806
  148SAPE   O3216329   6.193   4.253  10.181 -0.0089 -0.0849 -0.7234
  148SAPE   C3216330   6.203   4.251   9.938  0.3429  0.2816 -0.6374
  148SAPE   H2X16331   6.278   4.331   9.918  0.9490  0.5025  2.1074
  148SAPE   H2Y16332   6.097   4.284   9.941  0.3390  0.3456 -1.2796
  148SAPE   C2316333   5.971   3.804   9.970  0.5815 -0.8312 -0.3544
  148SAPE   H3R16334   6.077   3.773   9.978  1.3511  1.2079 -1.7670
  148SAPE   H3S16335   5.974   3.903   9.919  0.5306  0.0585  1.2832
  148SAPE   C2416336   5.881   3.695   9.892 -0.2338  0.3577  0.2154
  148SAPE   H4R16337   5.798   3.744   9.837  0.1909  2.0196  0.9953
  148SAPE   H4S16338   5.830   3.635   9.970 -4.5866  0.5501 -2.1147
  148SAPE   C2516339   5.964   3.606   9.802  0.5465  0.0338 -0.4459
  148SAPE   H5R16340   5.967   3.498   9.822  1.8317  0.0995 -0.1804
  148SAPE   C2616341   5.996   3.639   9.672 -0.8281  0.5156 -0.0265
  148SAPE   H6R16342   6.066   3.577   9.613  1.9296  0.9962  2.5336
  148SAPE   C2716343   5.964   3.775   9.607 -0.8916  0.1052 -0.0246
  148SAPE   H7R16344   6.063   3.808   9.569  0.5294 -2.6884  0.9300
  148SAPE   H7S16345   5.926   3.844   9.686  1.4417 -1.3947  2.6236
  148SAPE   C2816346   5.864   3.767   9.494  0.0545  0.2720  0.4312
  148SAPE   H8R16347   5.762   3.775   9.533  0.0289 -2.2845  1.0932
  148SAPE   C2916348   5.878   3.745   9.363 -0.6057  0.1452  0.0217
  148SAPE   H9R16349   5.783   3.741   9.308 -1.1964 -0.4987  1.0635
  148SAPE  C21016350   6.011   3.727   9.290 -0.1405 -0.6277 -0.0552
  148SAPE  H10R16351   6.088   3.763   9.361  1.7153 -2.3903 -1.0599
  148SAPE  H10S16352   6.013   3.787   9.197  0.3584 -1.0877 -0.3477
  148SAPE  C21116353   6.041   3.586   9.267  0.0114 -0.1934 -0.2915
  148SAPE  H11R16354   6.116   3.550   9.339  0.1939 -1.6779 -1.1800
  148SAPE  C21216355   5.981   3.490   9.208 -0.0024  0.5446  0.8352
  148SAPE  H12R16356   6.022   3.388   9.220 -1.1465 -0.0848 -0.3604
  148SAPE  C21316357   5.865   3.498   9.116 -0.0033  0.3574 -0.2224
  148SAPE  H13R16358   5.850   3.602   9.081 -1.2692  0.5590  0.8607
  148SAPE  H13S16359   5.767   3.465   9.156  0.5156 -0.0626  0.7255
  148SAPE  C21416360   5.894   3.400   9.002  0.6196  0.3492 -0.2741
  148SAPE  H14R16361   5.811   3.330   8.985  0.1141 -0.0052  3.0328
  148SAPE  C21516362   5.978   3.404   8.894 -0.4565  0.7436 -0.4999
  148SAPE  H15R16363   5.974   3.323   8.820  0.6490  0.1140  0.1084
  148SAPE  C21616364   6.075   3.519   8.863  0.1344  0.4193  0.1016
  148SAPE  H16R16365   6.173   3.470   8.840 -2.6563 -4.3233 -3.5832
  148SAPE  H16S16366   6.081   3.594   8.944  0.4699  0.0738  0.4012
  148SAPE  C21716367   6.019   3.587   8.732 -0.0434 -0.3445  0.3739
  148SAPE  H17R16368   5.911   3.606   8.748  0.5507  0.6122  4.0720
  148SAPE  H17S16369   6.029   3.515   8.648  1.1171 -1.0875  1.1278
  148SAPE  C21816370   6.097   3.712   8.710 -0.2887  0.3582 -1.0872
  148SAPE  H18R16371   6.197   3.672   8.685 -1.4205 -2.4332 -1.5001
  148SAPE  H18S16372   6.090   3.778   8.799 -1.1078 -0.7582 -0.2963
  148SAPE  C21916373   6.032   3.800   8.605 -0.5277  0.7774  0.7362
  148SAPE  H19R16374   5.931   3.831   8.640 -0.6439 -0.9194  2.0611
  148SAPE  H19S16375   6.012   3.738   8.515 -0.0579 -3.0742  3.0633
  148SAPE  C22016376   6.127   3.920   8.574 -0.5099  0.7666 -0.7763
  148SAPE  H20R16377   6.079   3.991   8.504  1.9715  2.0106 -1.3469
  148SAPE  H20S16378   6.216   3.882   8.519  0.2709  0.8270  0.4114
  148SAPE  H20T16379   6.154   3.977   8.665 -3.5592  1.1129  0.0191
  148SAPE   C3316380   6.219   4.153   9.825 -0.1171 -0.5083 -0.0191
  148SAPE   H3X16381   6.162   4.061   9.848 -0.3380 -0.3486  0.0763
  148SAPE   H3Y16382   6.322   4.111   9.821  0.5470  0.9871  0.4887
  148SAPE   C3416383   6.178   4.218   9.696  0.0491  0.0362  0.9011
  148SAPE   H4X16384   6.256   4.290   9.662  0.6748 -1.1810 -0.3545
  148SAPE   H4Y16385   6.081   4.272   9.701  1.0180  2.7007 -3.2636
  148SAPE   C3516386   6.180   4.120   9.578 -0.2638 -0.4687 -0.9819
  148SAPE   H5X16387   6.104   4.041   9.593 -0.7172  0.1859  0.4072
  148SAPE   H5Y16388   6.280   4.071   9.577 -0.7836 -1.9117  2.4992
  148SAPE   C3616389   6.146   4.175   9.443  0.2789 -0.3282 -0.1156
  148SAPE   H6X16390   6.216   4.258   9.419  0.7742 -0.6117  0.3235
  148SAPE   H6Y16391   6.042   4.212   9.449 -0.2167 -1.2783 -2.0310
  148SAPE   C3716392   6.157   4.065   9.332  0.2949 -0.1258  0.5103
  148SAPE   H7X16393   6.087   3.979   9.344  0.6786 -0.3276  1.3925
  148SAPE   H7Y16394   6.258   4.020   9.338 -1.1600 -3.8332 -0.1825
  148SAPE   C3816395   6.137   4.128   9.191  1.7693  0.3005 -0.3336
  148SAPE   H8X16396   6.197   4.221   9.177  1.9991  0.1070 -0.6673
  148SAPE   H8Y16397   6.035   4.171   9.198  1.5120 -0.6281  2.7870
  148SAPE   C3916398   6.168   4.031   9.075 -0.7645  0.2334 -0.2589
  148SAPE   H9X16399   6.144   4.087   8.983  3.3920 -0.9318 -2.2867
  148SAPE   H9Y16400   6.090   3.952   9.076  0.3269 -0.9006  1.3676
  148SAPE  C31016401   6.304   3.958   9.090 -0.1422  0.4719  0.2815
  148SAPE  H10X16402   6.300   3.883   9.173  0.4020 -0.4054 -0.4645
  148SAPE  H10Y16403   6.376   4.039   9.114  0.3975 -0.1899  0.9732
  148SAPE  C31116404   6.353   3.894   8.955  0.1966  0.5178  0.5613
  148SAPE  H11X16405   6.317   3.941   8.860  1.4085  0.1856 -0.0898
  148SAPE  H11Y16406   6.301   3.796   8.951  0.0670  0.5866  0.5376
  148SAPE  C31216407   6.507   3.868   8.941  0.0827  0.0024  0.0584
  148SAPE  H12X16408   6.527   3.780   9.006 -0.3333 -0.7044 -0.7443
  148SAPE  H12Y16409   6.555   3.961   8.977  0.3620 -0.3596  0.6365
  148SAPE  C31316410   6.550   3.846   8.794 -0.0727  0.3076 -0.4093
  148SAPE  H13X16411   6.460   3.801   8.745  0.6632 -0.6381 -0.9456
  148SAPE  H13Y16412   6.636   3.776   8.782 -0.0746  0.7803 -4.8166
  148SAPE  C31416413   6.588   3.971   8.709 -0.0018 -0.1658 -0.0823
  148SAPE  H14X16414   6.676   4.028   8.746 -0.7454  2.0379 -1.5102
  148SAPE  H14Y16415   6.499   4.036   8.720 -0.7673 -1.4671  2.1971
  148SAPE  C31516416   6.642   3.926   8.568  0.4470  0.2527  0.0990
  148SAPE  H15X16417   6.636   4.018   8.506  0.2365  0.1540 -0.0258
  148SAPE  H15Y16418   6.575   3.858   8.512  1.5661 -0.6594 -0.1757
  148SAPE  C31616419   6.787   3.886   8.569  0.1279 -0.1891  0.5747
  148SAPE  H16X16420   6.808   3.789   8.618 -0.1965 -1.0758 -0.9947
  148SAPE  H16Y16421   6.849   3.962   8.622  0.2549  0.1596 -0.0610
  148SAPE  C31716422   6.842   3.875   8.428 -0.2139  0.1857 -0.1419
  148SAPE  H17X16423   6.952   3.885   8.439 -0.3127 -0.4183  2.0416
  148SAPE  H17Y16424   6.810   3.970   8.382 -2.4205 -0.1874  0.5108
  148SAPE  C31816425   6.811   3.754   8.340 -0.0088 -0.1313  0.2956
  148SAPE  H18X16426   6.852   3.661   8.384  0.7632  0.1870  0.2701
  148SAPE  H18Y16427   6.849   3.764   8.236 -0.1354  1.1158  0.3559
  148SAPE  H18Z16428   6.702   3.735   8.338  0.3502 -2.4515  0.2163
  149SAPE     N16429   2.037   0.110  11.104 -1.1743 -0.3223  0.0160
  149SAPE   HN116430   1.984   0.111  11.194 -0.3574  0.9354  0.5291
  149SAPE   HN216431   2.088   0.020  11.105 -1.9268 -0.7595 -0.3990
  149SAPE   HN316432   2.100   0.189  11.077 -1.4948  0.0926  0.4570
  149SAPE   C1216433   1.940   0.081  10.999  0.1405 -0.7662  0.0569
  149SAPE  H12A16434   1.940   0.176  10.942 -0.4890 -0.2564  0.8742
  149SAPE  H12B16435   1.841   0.060  11.045  0.1742 -0.0431  0.4858
  149SAPE   C1116436   1.983  -0.024  10.894 -0.2813  0.1966  0.6295
  149SAPE  H11A16437   2.067   0.012  10.830 -1.0446 -2.2717 -1.9666
  149SAPE  H11B16438   1.894  -0.024  10.827  0.7420 -3.2531 -0.9410
  149SAPE     P16439   2.145  -0.200  10.990  0.1214  0.1370 -0.3418
  149SAPE   O1316440   2.199  -0.091  11.079 -1.0691  0.6752 -0.1200
  149SAPE   O1416441   2.132  -0.336  11.047 -0.2152  0.4272 -0.3709
  149SAPE   O1216442   2.003  -0.155  10.950 -0.0316 -0.1487 -0.8123
  149SAPE   O1116443   2.217  -0.186  10.857  0.4768  0.1266  0.5167
  149SAPE    C116444   2.172  -0.275  10.748  0.4079  0.5891  0.1788
  149SAPE    HA16445   2.211  -0.376  10.770  2.1926  1.3844  0.7955
  149SAPE    HB16446   2.063  -0.275  10.724  0.5045  1.4918 -0.3121
  149SAPE    C216447   2.235  -0.224  10.611  0.2413 -0.4334 -0.3099
  149SAPE    HS16448   2.345  -0.220  10.626  0.4346 -0.1673 -1.7351
  149SAPE   O2116449   2.172  -0.099  10.591 -0.0060  0.3350  0.5546
  149SAPE   C2116450   2.239  -0.001  10.531 -0.2369 -0.0239 -0.8161
  149SAPE   O2216451   2.352  -0.005  10.496 -0.1518  0.3019 -0.4941
  149SAPE   C2216452   2.160   0.130  10.528  0.2673  0.2871 -0.6537
  149SAPE   H2R16453   2.082   0.119  10.606 -1.1952  2.4400 -1.7188
  149SAPE   H2S16454   2.229   0.210  10.561  0.1407  0.1022  0.0786
  149SAPE    C316455   2.187  -0.320  10.507 -0.4710 -1.0643 -0.1873
  149SAPE    HX16456   2.077  -0.335  10.516 -0.1844 -2.9997  0.5100
  149SAPE    HY16457   2.228  -0.421  10.528 -2.8931 -2.0946 -0.1065
  149SAPE   O3116458   2.209  -0.267  10.375 -0.1135  0.1612 -0.5444
  149SAPE   C3116459   2.338  -0.279  10.338  0.3492 -0.0534 -0.4697
  149SAPE   O3216460   2.429  -0.334  10.398  0.0717  1.0212  0.3403
  149SAPE   C3216461   2.342  -0.242  10.191  0.2344 -0.0390 -0.3861
  149SAPE   H2X16462   2.261  -0.303  10.145  0.8892 -2.1919  1.1505
  149SAPE   H2Y16463   2.439  -0.277  10.148  0.5332 -1.5959  1.4019
  149SAPE   C2316464   2.099   0.168  10.393  0.1683  0.9485  0.2177
  149SAPE   H3R16465   2.173   0.141  10.314  0.5214  0.3241  0.7538
  149SAPE   H3S16466   2.073   0.276  10.385  0.4244  0.9224 -1.1687
  149SAPE   C2416467   1.964   0.096  10.373  0.1172  0.5260 -0.0065
  149SAPE   H4R16468   1.896   0.160  10.313 -1.1623 -1.2973 -0.5902
  149SAPE   H4S16469   1.924   0.096  10.476 -0.1243 -1.5476 -0.0646
  149SAPE   C2516470   1.980  -0.046  10.323  0.8322 -0.1139  0.2026
  149SAPE   H5R16471   2.016  -0.126  10.389  0.8656  1.2386  1.9076
  149SAPE   C2616472   1.950  -0.073  10.192  0.2411  0.2559  0.6845
  149SAPE   H6R16473   1.957  -0.174  10.148  0.2224  1.0489 -1.2446
  149SAPE   C2716474   1.915   0.035  10.089 -0.1903 -0.0192  0.1395
  149SAPE   H7R16475   1.979   0.031   9.998  0.5382 -2.1789  0.6847
  149SAPE   H7S16476   1.929   0.136  10.135  0.3875 -0.7177  1.5692
  149SAPE   C2816477   1.770   0.024  10.049 -0.6962 -0.0326 -0.1598
  149SAPE   H8R16478   1.706   0.041  10.138 -0.0661 -2.5519  0.8586
  149SAPE   C2916479   1.710   0.002   9.933 -0.5004 -0.3800 -0.8129
  149SAPE   H9R16480   1.600   0.002   9.939 -0.4521  0.9843  2.6412
  149SAPE  C21016481   1.773  -0.020   9.806  0.1440 -0.5751  0.3529
  149SAPE  H10R16482   1.846   0.060   9.783  0.2573  0.2112  3.0516
  149SAPE  H10S16483   1.697  -0.008   9.726  0.5665 -0.5063 -0.0406
  149SAPE  C21116484   1.826  -0.161   9.788 -0.4234  0.7915 -0.0859
  149SAPE  H11R16485   1.919  -0.186   9.840 -1.1295 -2.3895 -0.1252
  149SAPE  C21216486   1.799  -0.252   9.694 -0.5185  0.0310  0.2160
  149SAPE  H12R16487   1.866  -0.340   9.693  3.2407  2.6123  1.5092
  149SAPE  C21316488   1.702  -0.246   9.578 -0.3524  1.0563  0.5043
  149SAPE  H13R16489   1.757  -0.225   9.484 -0.7597  2.3147  0.5197
  149SAPE  H13S16490   1.632  -0.159   9.578 -0.8081  0.7133 -0.6863
  149SAPE  C21416491   1.626  -0.373   9.554 -0.8191  0.1668  0.1528
  149SAPE  H14R16492   1.599  -0.427   9.646  3.0474  1.8610  2.5367
  149SAPE  C21516493   1.599  -0.436   9.435 -0.2823 -0.2022 -1.1829
  149SAPE  H15R16494   1.542  -0.530   9.442 -0.3903 -0.0603  0.0678
  149SAPE  C21616495   1.642  -0.398   9.297 -0.3658 -0.0728  0.3173
  149SAPE  H16R16496   1.711  -0.470   9.249  2.0304  2.4320 -0.2727
  149SAPE  H16S16497   1.695  -0.300   9.288 -2.2255  0.8403 -1.7962
  149SAPE  C21716498   1.524  -0.361   9.205 -0.1921 -0.4022 -0.5076
  149SAPE  H17R16499   1.539  -0.330   9.099 -1.2986  1.5034 -0.1512
  149SAPE  H17S16500   1.467  -0.280   9.256  0.3447  0.2100 -0.8650
  149SAPE  C21816501   1.424  -0.475   9.177  0.4155  0.0141  0.0358
  149SAPE  H18R16502   1.345  -0.457   9.101 -0.3757  0.2983  0.9115
  149SAPE  H18S16503   1.374  -0.478   9.276 -0.0511  0.9420 -0.1508
  149SAPE  C21916504   1.488  -0.608   9.133 -0.3241  0.0301  0.1921
  149SAPE  H19R16505   1.551  -0.646   9.217  0.6278 -1.3239 -1.0730
  149SAPE  H19S16506   1.550  -0.588   9.043 -0.1357  1.1115  0.5560
  149SAPE  C22016507   1.385  -0.710   9.100  0.3766 -0.4623  0.6353
  149SAPE  H20R16508   1.438  -0.807   9.090  2.4311  0.7638 -1.3606
  149SAPE  H20S16509   1.326  -0.688   9.008  0.1840  0.9035  1.0729
  149SAPE  H20T16510   1.315  -0.717   9.186  2.9592  0.2544  2.9174
  149SAPE   C3316511   2.320  -0.094  10.172  0.3974  0.0992 -0.0999
  149SAPE   H3X16512   2.401  -0.027  10.210 -0.0900  0.3458  0.5183
  149SAPE   H3Y16513   2.232  -0.064  10.232  0.2826 -0.1941 -0.1209
  149SAPE   C3416514   2.275  -0.051  10.035  0.2977  0.4632 -0.5202
  149SAPE   H4X16515   2.278   0.059  10.050  0.1259  0.1898  2.1078
  149SAPE   H4Y16516   2.174  -0.081  10.002 -0.1607 -0.8639  1.8166
  149SAPE   C3516517   2.366  -0.102   9.930 -0.4058  0.1821 -0.0632
  149SAPE   H5X16518   2.389  -0.209   9.945  0.7295  0.5553  1.0802
  149SAPE   H5Y16519   2.467  -0.056   9.938 -0.0458 -0.7803  1.0387
  149SAPE   C3616520   2.313  -0.085   9.787  0.4806  0.1625 -0.0126
  149SAPE   H6X16521   2.309   0.024   9.763 -1.2710 -0.5128 -3.4679
  149SAPE   H6Y16522   2.210  -0.126   9.777  1.4587 -2.2117 -1.0118
  149SAPE   C3716523   2.406  -0.154   9.692  0.2026 -0.1015 -0.4175
  149SAPE   H7X16524   2.386  -0.263   9.685  0.9405 -0.1495 -2.3675
  149SAPE   H7Y16525   2.511  -0.151   9.730  0.7445 -1.0499 -1.7763
  149SAPE   C3816526   2.406  -0.087   9.552  0.2481 -0.0078  0.8493
  149SAPE   H8X16527   2.464   0.007   9.553 -0.0227  0.1909 -0.6360
  149SAPE   H8Y16528   2.301  -0.065   9.523  0.3089  1.4493  1.6573
  149SAPE   C3916529   2.479  -0.173   9.446  0.0167  0.3317 -0.7141
  149SAPE   H9X16530   2.435  -0.275   9.458  0.2154  0.0222 -2.4138
  149SAPE   H9Y16531   2.586  -0.189   9.472 -0.4734 -1.0734  0.6075
  149SAPE  C31016532   2.443  -0.133   9.304  0.7994  0.8805 -0.1386
  149SAPE  H10X16533   2.460  -0.024   9.291  2.2879  0.6211 -0.5930
  149SAPE  H10Y16534   2.335  -0.148   9.280  0.4812 -1.2785  2.2394
  149SAPE  C31116535   2.516  -0.223   9.208  0.1847 -0.1404  0.0289
  149SAPE  H11X16536   2.472  -0.325   9.215 -0.3100  0.0777  0.0856
  149SAPE  H11Y16537   2.623  -0.237   9.234  0.6907 -0.8450 -2.2059
  149SAPE  C31216538   2.522  -0.178   9.067  0.3605 -0.8363  0.5681
  149SAPE  H12X16539   2.603  -0.221   9.005  1.0314  3.8911 -2.2659
  149SAPE  H12Y16540   2.545  -0.069   9.073 -0.6039 -0.6352  0.8924
  149SAPE  C31316541   2.391  -0.198   8.993  0.1283 -0.4277  0.0349
  149SAPE  H13X16542   2.307  -0.144   9.042  1.9355  0.4899  2.3041
  149SAPE  H13Y16543   2.373  -0.308   8.988  2.0306 -0.8093  0.7539
  149SAPE  C31416544   2.391  -0.136   8.858 -0.3603 -0.1526  0.6337
  149SAPE  H14X16545   2.488  -0.144   8.803  0.2136  0.9075  1.4397
  149SAPE  H14Y16546   2.380  -0.026   8.864 -0.6145 -0.1364 -0.0524
  149SAPE  C31516547   2.279  -0.171   8.755 -0.0871 -1.0269 -0.1340
  149SAPE  H15X16548   2.185  -0.134   8.803 -0.3814 -1.3834 -0.4229
  149SAPE  H15Y16549   2.257  -0.276   8.727  1.2966 -0.9158 -1.8236
  149SAPE  C31616550   2.288  -0.101   8.622 -0.2601 -0.1674  0.4783
  149SAPE  H16X16551   2.340  -0.006   8.647 -1.0024  0.0469  1.2841
  149SAPE  H16Y16552   2.192  -0.083   8.569  0.3564 -0.2129 -0.6928
  149SAPE  C31716553   2.386  -0.167   8.518 -0.7251  0.8988 -0.4117
  149SAPE  H17X16554   2.350  -0.271   8.506  1.2820 -0.4751  3.6475
  149SAPE  H17Y16555   2.486  -0.178   8.565 -0.3272 -0.6348 -1.5415
  149SAPE  C31816556   2.406  -0.108   8.382 -0.5782  0.2208  1.0816
  149SAPE  H18X16557   2.321  -0.095   8.312 -0.3476 -0.2912  0.6955
  149SAPE  H18Y16558   2.464  -0.193   8.339 -0.6470 -0.3141  2.0307
  149SAPE  H18Z16559   2.467  -0.015   8.381 -1.0272  0.6096 -1.8712
  150SAPE     N16560   3.425   5.540  11.110 -0.6024 -0.4979  0.0008
  150SAPE   HN116561   3.501   5.470  11.107 -0.8509 -1.0197  3.2101
  150SAPE   HN216562   3.453   5.630  11.154 -0.0444 -1.4050  1.5771
  150SAPE   HN316563   3.354   5.513  11.181 -0.3774  0.7910  0.7427
  150SAPE   C1216564   3.371   5.565  10.966  0.5919  0.3193  0.2280
  150SAPE  H12A16565   3.365   5.465  10.919  0.4924 -0.8300  2.5900
  150SAPE  H12B16566   3.447   5.626  10.911  2.2354 -0.9100  1.0595
  150SAPE   C1116567   3.233   5.632  10.965 -0.0052 -0.5293  0.4147
  150SAPE  H11A16568   3.166   5.583  11.039 -0.0709 -1.6286 -0.3450
  150SAPE  H11B16569   3.176   5.617  10.871 -1.8272  1.0204  1.2141
  150SAPE     P16570   3.290   5.873  10.894  0.2849  0.1446  0.3746
  150SAPE   O1316571   3.399   5.948  10.955  0.1772 -0.0193  0.4022
  150SAPE   O1416572   3.330   5.815  10.764 -0.1179 -0.2547  0.6522
  150SAPE   O1216573   3.240   5.765  10.995 -0.7890 -0.3248 -0.5103
  150SAPE   O1116574   3.168   5.973  10.877  0.0767 -0.0480  0.0975
  150SAPE    C116575   3.047   5.918  10.823  0.8535  0.0286  0.1725
  150SAPE    HA16576   3.043   5.807  10.829  0.9292  0.0590  0.8524
  150SAPE    HB16577   2.957   5.967  10.865  0.5892 -1.7513  1.8347
  150SAPE    C216578   3.031   5.938  10.671  0.2775  0.4542 -0.3124
  150SAPE    HS16579   3.104   5.868  10.625  0.0857  0.1303 -0.1291
  150SAPE   O2116580   3.040   6.073  10.630 -0.1744  0.7144  0.3533
  150SAPE   C2116581   3.155   6.127  10.609  0.0078  0.6280  0.0181
  150SAPE   O2216582   3.263   6.067  10.591 -0.0543  0.6211  0.2212
  150SAPE   C2216583   3.131   6.273  10.604 -0.1579  0.1849 -0.3148
  150SAPE   H2R16584   3.045   6.311  10.664 -0.5283 -0.9965 -0.0525
  150SAPE   H2S16585   3.222   6.318  10.650  0.1695 -0.9198  0.1559
  150SAPE    C316586   2.888   5.889  10.622  0.3335 -0.1305  0.4312
  150SAPE    HX16587   2.814   5.961  10.664  1.9912  1.8284  0.1046
  150SAPE    HY16588   2.854   5.793  10.668 -2.9415  0.6698 -0.1038
  150SAPE   O3116589   2.870   5.897  10.480 -0.3363  0.3704 -0.5045
  150SAPE   C3116590   2.877   5.776  10.414  0.1584 -0.3857  0.2409
  150SAPE   O3216591   2.899   5.666  10.465 -0.1543  0.1263 -0.6307
  150SAPE   C3216592   2.852   5.815  10.267 -0.7865 -0.2740 -0.3496
  150SAPE   H2X16593   2.901   5.912  10.245  0.4180 -0.9747 -0.8591
  150SAPE   H2Y16594   2.744   5.839  10.256 -0.9896 -1.4017 -1.0668
  150SAPE   C2316595   3.137   6.338  10.463  0.7581 -0.8034  0.4654
  150SAPE   H3R16596   3.230   6.298  10.418  0.3167 -0.0593 -1.1919
  150SAPE   H3S16597   3.145   6.448  10.479 -0.0990 -0.3146 -1.9469
  150SAPE   C2416598   3.013   6.319  10.364 -0.1760 -0.0540 -0.1135
  150SAPE   H4R16599   3.015   6.406  10.296 -0.4824 -1.1594 -1.5724
  150SAPE   H4S16600   2.916   6.310  10.418 -0.9680  0.4250 -1.4088
  150SAPE   C2516601   3.026   6.191  10.281 -0.1408  1.4446  0.0402
  150SAPE   H5R16602   2.986   6.103  10.334 -1.5002  0.4188 -2.5155
  150SAPE   C2616603   3.066   6.181  10.150 -0.7799  0.6992 -1.3459
  150SAPE   H6R16604   3.067   6.081  10.105 -2.1444  0.7013 -1.4391
  150SAPE   C2716605   3.101   6.290  10.059  0.0357 -0.2203  0.2609
  150SAPE   H7R16606   3.019   6.365  10.059  0.7487  0.5948 -0.9630
  150SAPE   H7S16607   3.088   6.247   9.957  1.2976  0.0334 -0.0191
  150SAPE   C2816608   3.227   6.362  10.067 -0.7606 -0.2745  0.2173
  150SAPE   H8R16609   3.287   6.361  10.159  0.1315  1.3627 -0.3147
  150SAPE   C2916610   3.282   6.428   9.960 -0.3442  0.5169  1.1410
  150SAPE   H9R16611   3.383   6.470   9.969 -0.0702  0.4591 -1.0573
  150SAPE  C21016612   3.223   6.451   9.828 -0.1376 -0.5566 -0.3576
  150SAPE  H10R16613   3.264   6.552   9.807 -3.1564  1.4912  2.5631
  150SAPE  H10S16614   3.113   6.443   9.813 -0.3612  0.0841  0.8145
  150SAPE  C21116615   3.282   6.354   9.729 -0.0450  0.3097 -0.8850
  150SAPE  H11R16616   3.389   6.330   9.731 -0.2815 -0.8593 -1.4018
  150SAPE  C21216617   3.227   6.297   9.622  0.4156 -0.1333  0.7379
  150SAPE  H12R16618   3.282   6.214   9.576  0.4064 -0.1610  0.7768
  150SAPE  C21316619   3.088   6.314   9.564  0.1671 -0.6340 -0.1687
  150SAPE  H13R16620   3.013   6.350   9.638  1.2587 -1.5480  1.4733
  150SAPE  H13S16621   3.052   6.215   9.529 -0.1514 -0.3423 -0.6652
  150SAPE  C21416622   3.097   6.408   9.441  0.3016 -0.5424  0.3370
  150SAPE  H14R16623   3.162   6.495   9.460 -0.0380 -0.7051  2.4539
  150SAPE  C21516624   3.035   6.388   9.326  0.2887  0.8241  1.2120
  150SAPE  H15R16625   3.063   6.458   9.246  2.5877  0.0198  1.2194
  150SAPE  C21616626   2.941   6.280   9.285 -0.0774 -0.2176  0.2636
  150SAPE  H16R16627   2.859   6.341   9.242 -1.8386 -1.0805  2.2516
  150SAPE  H16S16628   2.897   6.225   9.371  1.3474 -1.9914 -0.0795
  150SAPE  C21716629   2.991   6.180   9.177 -0.3121 -0.0746 -0.3700
  150SAPE  H17R16630   3.030   6.241   9.092 -0.5063 -1.0082 -1.1470
  150SAPE  H17S16631   2.916   6.104   9.149  0.3031 -0.2047 -1.7704
  150SAPE  C21816632   3.121   6.104   9.223 -0.0035  0.0451  0.3155
  150SAPE  H18R16633   3.083   6.051   9.313  0.0130 -0.2837  0.1310
  150SAPE  H18S16634   3.205   6.169   9.257  0.8967 -1.1171  0.3973
  150SAPE  C21916635   3.167   6.003   9.117  0.0991 -0.0761  0.1746
  150SAPE  H19R16636   3.209   6.060   9.032 -1.8615 -0.1716 -0.9085
  150SAPE  H19S16637   3.078   5.950   9.077 -1.4740  1.4921  1.4264
  150SAPE  C22016638   3.279   5.916   9.161  0.4790 -0.1176 -0.0980
  150SAPE  H20R16639   3.309   5.844   9.082  0.9960  2.0995 -2.0580
  150SAPE  H20S16640   3.260   5.866   9.258  0.4971  1.8068  0.9581
  150SAPE  H20T16641   3.363   5.982   9.194 -0.7456  1.8137 -0.7092
  150SAPE   C3316642   2.903   5.703  10.169  0.4665  0.0126 -0.7487
  150SAPE   H3X16643   2.880   5.601  10.207 -0.1661  0.6834  0.7413
  150SAPE   H3Y16644   3.012   5.725  10.160  0.6309  0.2699  1.2887
  150SAPE   C3416645   2.828   5.710  10.031  0.7214  0.4757 -0.7906
  150SAPE   H4X16646   2.724   5.695  10.066  0.8667  1.8136  0.2726
  150SAPE   H4Y16647   2.856   5.634   9.955  0.6448 -0.0818 -0.2728
  150SAPE   C3516648   2.818   5.844   9.963 -0.4620 -0.2025  0.4297
  150SAPE   H5X16649   2.912   5.902   9.971 -0.2289 -0.4447 -0.4175
  150SAPE   H5Y16650   2.732   5.902  10.003 -0.8172 -0.7042  0.4018
  150SAPE   C3616651   2.783   5.822   9.820  0.1294  0.3645  0.3611
  150SAPE   H6X16652   2.708   5.898   9.787 -0.2865 -0.9525 -1.9532
  150SAPE   H6Y16653   2.723   5.728   9.818 -0.0561  0.4459  1.5584
  150SAPE   C3716654   2.914   5.815   9.730 -0.3284 -0.2360  0.4641
  150SAPE   H7X16655   2.978   5.735   9.775  0.2233 -0.4905 -0.7277
  150SAPE   H7Y16656   2.974   5.908   9.725 -0.2691 -0.3279 -0.9693
  150SAPE   C3816657   2.888   5.766   9.587  0.3389  0.2157  0.3473
  150SAPE   H8X16658   2.786   5.799   9.559  0.6736 -0.1744 -1.4640
  150SAPE   H8Y16659   2.862   5.659   9.603 -2.0765  0.6906  0.0996
  150SAPE   C3916660   3.002   5.785   9.490 -0.0508 -0.7868  0.3135
  150SAPE   H9X16661   3.095   5.740   9.531  0.2535  1.2157  1.9836
  150SAPE   H9Y16662   3.019   5.894   9.480 -1.7717 -0.4951  0.1544
  150SAPE  C31016663   2.972   5.726   9.353  0.1260 -0.4572  0.6786
  150SAPE  H10X16664   3.008   5.792   9.271  0.3040 -0.4478  0.7619
  150SAPE  H10Y16665   2.861   5.727   9.348  0.1815 -0.9160 -1.7986
  150SAPE  C31116666   3.020   5.580   9.332 -0.0971 -0.2177  0.1296
  150SAPE  H11X16667   2.970   5.530   9.247  0.5965  0.2042 -0.5411
  150SAPE  H11Y16668   2.994   5.532   9.429  4.3913  0.8999  2.1532
  150SAPE  C31216669   3.171   5.565   9.313  0.3894 -0.4587 -0.4738
  150SAPE  H12X16670   3.234   5.599   9.399 -0.3024  0.7615 -0.4210
  150SAPE  H12Y16671   3.200   5.638   9.234 -0.7412  1.3600  0.7058
  150SAPE  C31316672   3.214   5.421   9.275 -0.4656 -0.3398 -0.2332
  150SAPE  H13X16673   3.141   5.346   9.314 -0.6861 -0.5581 -1.0467
  150SAPE  H13Y16674   3.317   5.400   9.312 -1.6351 -2.8876  1.9842
  150SAPE  C31416675   3.228   5.390   9.125  0.1123  0.5548  0.2278
  150SAPE  H14X16676   3.303   5.462   9.087  0.2104  0.1774 -0.3120
  150SAPE  H14Y16677   3.129   5.414   9.082 -0.1399  0.8935  0.9876
  150SAPE  C31516678   3.266   5.244   9.101 -0.2645  0.2121 -0.1529
  150SAPE  H15X16679   3.190   5.174   9.142  0.4021 -1.3946 -1.5751
  150SAPE  H15Y16680   3.358   5.218   9.157 -0.1625 -1.1600 -0.9277
  150SAPE  C31616681   3.288   5.215   8.955 -0.2135 -0.4470  0.2117
  150SAPE  H16X16682   3.387   5.257   8.925 -0.6649 -0.1571 -0.9110
  150SAPE  H16Y16683   3.217   5.275   8.894 -0.3318 -0.7307  0.0727
  150SAPE  C31716684   3.268   5.069   8.913 -0.1055 -0.8858  0.2559
  150SAPE  H17X16685   3.178   5.037   8.970 -0.3477 -0.2144  0.2656
  150SAPE  H17Y16686   3.352   5.006   8.949  1.5191  0.4277 -1.0597
  150SAPE  C31816687   3.249   5.056   8.757 -0.3519  0.1094 -0.0089
  150SAPE  H18X16688   3.158   5.105   8.717 -0.7888 -0.6717  0.0108
  150SAPE  H18Y16689   3.239   4.947   8.740 -0.8003  0.4040 -1.8346
  150SAPE  H18Z16690   3.346   5.081   8.708  0.7277 -0.6721  1.6461
  151SAPE     N16691   1.877   2.055  10.471 -0.3943 -0.1258  0.3415
  151SAPE   HN116692   1.885   2.050  10.368  0.3572  1.0101  0.3256
  151SAPE   HN216693   1.905   2.153  10.495  0.4967 -0.1825 -0.4402
  151SAPE   HN316694   1.936   1.981  10.514 -0.2621 -0.5050 -0.4868
  151SAPE   C1216695   1.731   2.038  10.527 -0.4321 -0.1037  0.1172
  151SAPE  H12A16696   1.751   2.042  10.636  0.2337  1.1987 -0.0396
  151SAPE  H12B16697   1.700   1.936  10.496  1.0510 -0.7103  0.5003
  151SAPE   C1116698   1.630   2.153  10.497 -0.1760  0.3049 -0.3677
  151SAPE  H11A16699   1.526   2.125  10.523 -0.3677 -1.5340 -2.6981
  151SAPE  H11B16700   1.625   2.159  10.386  2.4508 -0.7552 -0.6241
  151SAPE     P16701   1.772   2.378  10.510 -0.2258 -0.1448 -0.0126
  151SAPE   O1316702   1.745   2.494  10.598  0.5244  0.1608  0.3943
  151SAPE   O1416703   1.905   2.313  10.501 -0.4400  0.1083 -0.0069
  151SAPE   O1216704   1.668   2.277  10.560  0.4764  0.0669 -0.3550
  151SAPE   O1116705   1.721   2.410  10.371  0.2420  0.1452 -0.4061
  151SAPE    C116706   1.595   2.471  10.356  0.0062  0.9710  0.3826
  151SAPE    HA16707   1.525   2.438  10.436 -0.3872  2.2345  0.5895
  151SAPE    HB16708   1.606   2.580  10.374  0.0428  1.2118 -1.0186
  151SAPE    C216709   1.535   2.444  10.215 -0.7694 -0.0381 -0.2782
  151SAPE    HS16710   1.478   2.526  10.167  0.6123  0.2222 -1.5463
  151SAPE   O2116711   1.466   2.318  10.217  0.0169 -0.3031 -0.8750
  151SAPE   C2116712   1.345   2.330  10.273 -0.1398  0.1678  0.1181
  151SAPE   O2216713   1.297   2.435  10.309  0.1274 -0.4297 -0.2338
  151SAPE   C2216714   1.288   2.189  10.281  0.4364  0.3335 -0.6980
  151SAPE   H2R16715   1.327   2.126  10.199 -0.4640  0.6823 -1.4103
  151SAPE   H2S16716   1.328   2.147  10.376  1.5473  1.4351 -0.6485
  151SAPE    C316717   1.661   2.432  10.119 -0.7884  0.1556  0.1988
  151SAPE    HX16718   1.742   2.360  10.146  0.1418  1.6901  1.7285
  151SAPE    HY16719   1.711   2.530  10.104 -1.8990  0.6891 -0.0467
  151SAPE   O3116720   1.609   2.401   9.984  0.1587 -0.2120  0.0820
  151SAPE   C3116721   1.634   2.288   9.932 -0.2406  0.1982 -0.6485
  151SAPE   O3216722   1.723   2.210   9.962  0.2343 -0.1777 -0.1856
  151SAPE   C3216723   1.554   2.289   9.803 -0.0788  0.5239  0.4270
  151SAPE   H2X16724   1.549   2.392   9.762 -1.4604  1.6365  3.1074
  151SAPE   H2Y16725   1.447   2.262   9.820 -0.7662  1.6181 -1.8564
  151SAPE   C2316726   1.133   2.182  10.295  0.1009  0.2172  0.1006
  151SAPE   H3R16727   1.097   2.262  10.363  1.3656  0.1994  0.8272
  151SAPE   H3S16728   1.103   2.086  10.341 -0.2256 -0.6080 -1.7299
  151SAPE   C2416729   1.046   2.183  10.164  0.2800 -0.2269  0.1777
  151SAPE   H4R16730   0.943   2.173  10.203  0.0421  1.4825  0.0554
  151SAPE   H4S16731   1.065   2.091  10.105 -2.7688 -1.8111  1.4474
  151SAPE   C2516732   1.035   2.314  10.097  0.1444  0.1089 -0.2536
  151SAPE   H5R16733   0.983   2.395  10.151  1.3076 -0.0866  1.2131
  151SAPE   C2616734   1.071   2.350   9.977  0.0462 -0.0613 -0.4219
  151SAPE   H6R16735   1.054   2.456   9.955 -0.9455  0.3140  1.8360
  151SAPE   C2716736   1.133   2.258   9.878 -0.2897  0.6715 -0.5165
  151SAPE   H7R16737   1.187   2.185   9.941 -3.2972 -1.0383  0.2806
  151SAPE   H7S16738   1.207   2.304   9.809 -0.9069 -0.3309 -1.8881
  151SAPE   C2816739   1.033   2.180   9.799  0.0648 -0.1745 -0.4544
  151SAPE   H8R16740   0.934   2.159   9.842  0.7119  1.4098  2.0632
  151SAPE   C2916741   1.045   2.134   9.671  0.4375 -0.6504 -0.4069
  151SAPE   H9R16742   0.961   2.080   9.625 -0.2776  1.4899 -1.7738
  151SAPE  C21016743   1.163   2.168   9.580  0.1510 -0.2612  0.0403
  151SAPE  H10R16744   1.160   2.104   9.490  0.9678 -0.4665  0.1476
  151SAPE  H10S16745   1.260   2.147   9.630 -0.3925 -2.1899  0.3863
  151SAPE  C21116746   1.181   2.310   9.538 -0.2694  0.3819  0.5305
  151SAPE  H11R16747   1.172   2.379   9.622  1.5041  3.1284 -1.3720
  151SAPE  C21216748   1.219   2.358   9.422  0.4079 -0.3077  0.5597
  151SAPE  H12R16749   1.220   2.467   9.407  1.2214 -0.4712 -0.7461
  151SAPE  C21316750   1.256   2.272   9.299 -0.1258  0.4509 -0.1384
  151SAPE  H13R16751   1.330   2.191   9.316 -0.1697  0.5678  0.6486
  151SAPE  H13S16752   1.280   2.348   9.221 -1.7125 -0.7128 -1.8293
  151SAPE  C21416753   1.134   2.212   9.243 -0.2962 -0.6585 -1.1897
  151SAPE  H14R16754   1.043   2.220   9.304  0.7830  0.4558  0.3261
  151SAPE  C21516755   1.122   2.154   9.122 -0.7883  0.0274  0.4916
  151SAPE  H15R16756   1.027   2.121   9.077  0.0225  0.1685 -1.4137
  151SAPE  C21616757   1.238   2.133   9.025  0.7211  0.2614  0.3945
  151SAPE  H16R16758   1.338   2.115   9.070  1.7774 -0.2733 -2.0422
  151SAPE  H16S16759   1.246   2.230   8.973 -0.4734  0.3451  0.3434
  151SAPE  C21716760   1.208   2.009   8.936 -0.0858 -1.1374  0.7277
  151SAPE  H17R16761   1.210   1.917   8.999  2.1089 -1.2359  0.5730
  151SAPE  H17S16762   1.301   1.990   8.878  0.7590 -2.5191  2.4218
  151SAPE  C21816763   1.082   2.012   8.838 -0.1705  1.5623 -0.4310
  151SAPE  H18R16764   1.083   2.112   8.789  1.6149  0.9736 -1.6914
  151SAPE  H18S16765   0.991   1.979   8.893  0.5871 -1.0012 -0.6050
  151SAPE  C21916766   1.107   1.912   8.729 -0.3222 -0.5651  0.8529
  151SAPE  H19R16767   1.012   1.872   8.686 -0.4783 -0.1386  0.7939
  151SAPE  H19S16768   1.163   1.825   8.769  1.7138 -1.2201 -2.9557
  151SAPE  C22016769   1.188   1.968   8.605  0.0665  0.5705  0.1204
  151SAPE  H20R16770   1.209   1.884   8.535 -0.0191 -0.4717  1.3129
  151SAPE  H20S16771   1.285   2.016   8.629 -0.5459  1.7211  0.3952
  151SAPE  H20T16772   1.142   2.061   8.564 -0.6108  0.2764  0.2103
  151SAPE   C3316773   1.613   2.197   9.703  0.0110 -0.1225  0.0786
  151SAPE   H3X16774   1.539   2.169   9.625  0.0884 -1.3772  0.4344
  151SAPE   H3Y16775   1.636   2.097   9.746  2.4575  0.6357  0.7054
  151SAPE   C3416776   1.737   2.259   9.644 -0.0824 -0.3850 -0.1302
  151SAPE   H4X16777   1.809   2.269   9.728  1.2157  0.1542 -1.2593
  151SAPE   H4Y16778   1.716   2.356   9.595 -0.1768 -0.4732 -0.2675
  151SAPE   C3516779   1.815   2.168   9.543 -0.2796 -0.2922 -0.0346
  151SAPE   H5X16780   1.805   2.059   9.562  1.4132  0.2208  6.0003
  151SAPE   H5Y16781   1.920   2.191   9.572 -0.3013 -0.5670  0.2632
  151SAPE   C3616782   1.783   2.210   9.397 -0.5843 -0.0159 -0.3054
  151SAPE   H6X16783   1.867   2.168   9.338  1.8263  1.4151  1.8727
  151SAPE   H6Y16784   1.787   2.320   9.381 -1.9688  0.1415  0.3103
  151SAPE   C3716785   1.655   2.156   9.339  0.4207  0.6957 -0.2104
  151SAPE   H7X16786   1.575   2.222   9.379  1.1541  1.9219 -0.7183
  151SAPE   H7Y16787   1.651   2.056   9.388 -0.1401  1.9394  2.4679
  151SAPE   C3816788   1.632   2.154   9.190  0.1682  0.2830  0.5744
  151SAPE   H8X16789   1.650   2.256   9.152 -0.7675  0.5536  0.8422
  151SAPE   H8Y16790   1.526   2.130   9.167  0.8231 -2.1307 -0.2429
  151SAPE   C3916791   1.716   2.045   9.124 -0.0401 -0.2692 -0.0410
  151SAPE   H9X16792   1.670   1.946   9.144 -1.1119 -0.2574 -2.2228
  151SAPE   H9Y16793   1.819   2.061   9.162 -0.7329  1.2118  1.3395
  151SAPE  C31016794   1.705   2.053   8.964 -0.0294 -0.0930 -0.3246
  151SAPE  H10X16795   1.753   2.147   8.929  2.2469 -0.1956  2.1541
  151SAPE  H10Y16796   1.597   2.052   8.939 -0.7347  1.2734  2.2770
  151SAPE  C31116797   1.779   1.943   8.894  0.2577  0.3619 -0.1794
  151SAPE  H11X16798   1.748   1.841   8.925  1.7826  0.0794  0.4979
  151SAPE  H11Y16799   1.884   1.943   8.929  0.4905  0.4876 -0.8636
  151SAPE  C31216800   1.798   1.951   8.744  0.1968  0.1053  0.6423
  151SAPE  H12X16801   1.878   1.883   8.706 -0.6650 -0.4625 -0.2120
  151SAPE  H12Y16802   1.818   2.054   8.708 -1.8613  0.9529  1.7882
  151SAPE  C31316803   1.676   1.898   8.674 -0.8477 -0.1466  0.6577
  151SAPE  H13X16804   1.581   1.949   8.703 -0.2095  0.7168  1.3102
  151SAPE  H13Y16805   1.662   1.790   8.695 -0.6704 -0.1535  0.7448
  151SAPE  C31416806   1.698   1.903   8.522  0.5685 -0.1489  0.4367
  151SAPE  H14X16807   1.783   1.836   8.496  0.6345  0.1492 -0.1269
  151SAPE  H14Y16808   1.725   2.004   8.485 -0.6653  0.8359  2.1146
  151SAPE  C31516809   1.575   1.860   8.444 -0.2681  0.0171 -0.6016
  151SAPE  H15X16810   1.579   1.879   8.334  1.3496  4.3180  0.0219
  151SAPE  H15Y16811   1.489   1.917   8.485  1.4112  1.9498  0.3875
  151SAPE  C31616812   1.538   1.707   8.468 -0.2680  0.1836  0.3155
  151SAPE  H16X16813   1.564   1.669   8.569 -1.8034 -2.7763 -0.2752
  151SAPE  H16Y16814   1.610   1.662   8.395  1.0006  0.8653  1.1156
  151SAPE  C31716815   1.401   1.674   8.405 -0.4096 -0.2325 -0.2719
  151SAPE  H17X16816   1.394   1.703   8.298  1.5120 -2.5804 -1.1172
  151SAPE  H17Y16817   1.332   1.732   8.470  0.7849  0.1409  0.6691
  151SAPE  C31816818   1.363   1.527   8.410 -0.4475  0.2434 -0.8552
  151SAPE  H18X16819   1.387   1.478   8.314  0.5575  0.1953 -0.5923
  151SAPE  H18Y16820   1.255   1.515   8.437 -0.0320 -0.8058  0.4815
  151SAPE  H18Z16821   1.410   1.471   8.494  0.3669 -0.4573 -1.7624
  152SAPE     N16822   3.300   1.559  11.074 -0.3137 -0.2412 -0.2853
  152SAPE   HN116823   3.213   1.597  11.115 -0.0359  1.5087 -1.1996
  152SAPE   HN216824   3.292   1.456  11.061  3.6804 -0.8397  0.4897
  152SAPE   HN316825   3.377   1.573  11.143 -0.1382 -0.1664 -0.4923
  152SAPE   C1216826   3.325   1.609  10.938 -0.3964  0.2136  0.3901
  152SAPE  H12A16827   3.420   1.567  10.900 -0.1277 -1.4634  2.6706
  152SAPE  H12B16828   3.321   1.720  10.935 -3.2238  0.1680 -0.1542
  152SAPE   C1116829   3.211   1.576  10.838  0.3819  0.0663  0.1926
  152SAPE  H11A16830   3.205   1.469  10.809  0.2802  0.0969  0.1008
  152SAPE  H11B16831   3.241   1.624  10.743  2.0895  0.5532  0.9496
  152SAPE     P16832   3.014   1.765  10.855  0.3598  0.0858  0.3979
  152SAPE   O1316833   2.870   1.748  10.876 -0.2698 -0.6318  0.1531
  152SAPE   O1416834   3.094   1.864  10.934  0.0018  0.2942  0.3867
  152SAPE   O1216835   3.079   1.617  10.875  0.3947  0.3210 -0.3316
  152SAPE   O1116836   3.028   1.807  10.704 -0.0237 -0.1969  0.0904
  152SAPE    C116837   3.018   1.719  10.592  0.0606 -0.3524 -0.1533
  152SAPE    HA16838   3.106   1.651  10.580  0.4716  0.4954 -2.5940
  152SAPE    HB16839   2.926   1.657  10.595 -0.3101  0.2000  0.0750
  152SAPE    C216840   3.026   1.802  10.465 -0.1761 -0.1433 -0.0050
  152SAPE    HS16841   3.031   1.741  10.372  0.0700  0.5106 -0.4214
  152SAPE   O2116842   3.135   1.900  10.475  0.6069 -0.3766  0.2624
  152SAPE   C2116843   3.244   1.860  10.415 -0.5087  0.1529 -0.2453
  152SAPE   O2216844   3.262   1.756  10.353  0.4826 -0.8409 -0.2333
  152SAPE   C2216845   3.355   1.962  10.435  0.7528  0.1018 -0.4134
  152SAPE   H2R16846   3.321   2.062  10.401  0.3679  0.7044  1.6028
  152SAPE   H2S16847   3.377   1.965  10.544  1.0161  3.6883 -0.4274
  152SAPE    C316848   2.894   1.872  10.449 -0.0303 -0.1175  0.2837
  152SAPE    HX16849   2.872   1.942  10.533 -1.2150  0.1203 -0.2120
  152SAPE    HY16850   2.822   1.788  10.461 -0.2419  0.1505  0.9843
  152SAPE   O3116851   2.872   1.922  10.318  0.4927 -0.2434 -0.2125
  152SAPE   C3116852   2.934   2.034  10.277  0.2402 -1.0341  0.7117
  152SAPE   O3216853   2.988   2.121  10.346 -0.3992  0.2990 -0.0485
  152SAPE   C3216854   2.914   2.050  10.124  0.3338 -0.0197  0.2449
  152SAPE   H2X16855   2.809   2.083  10.112  0.5450  1.1966  1.5209
  152SAPE   H2Y16856   2.935   1.954  10.072  0.6920  1.5124 -2.6694
  152SAPE   C2316857   3.492   1.930  10.365  0.1848  0.5654  0.0244
  152SAPE   H3R16858   3.464   1.907  10.260 -0.3568 -1.7350  0.6207
  152SAPE   H3S16859   3.530   1.834  10.404 -1.3985 -0.6215 -1.2059
  152SAPE   C2416860   3.596   2.042  10.362 -0.0616 -0.1021  0.1598
  152SAPE   H4R16861   3.537   2.117  10.306 -1.0817 -0.1686  1.0949
  152SAPE   H4S16862   3.680   2.006  10.299 -0.5932 -0.4630 -0.3494
  152SAPE   C2516863   3.639   2.081  10.503  0.6165  0.1909  0.3901
  152SAPE   H5R16864   3.706   2.008  10.550 -0.8720 -1.2720  0.3431
  152SAPE   C2616865   3.601   2.198  10.561 -0.2245 -0.2487 -0.5782
  152SAPE   H6R16866   3.617   2.200  10.670 -1.5079  1.1782 -0.3829
  152SAPE   C2716867   3.512   2.305  10.498 -0.1469 -0.0109  1.1380
  152SAPE   H7R16868   3.430   2.264  10.435  3.0191 -0.9324 -2.8068
  152SAPE   H7S16869   3.572   2.370  10.432  0.3066  0.2890  1.8381
  152SAPE   C2816870   3.443   2.386  10.603 -0.0344 -0.3626  0.4002
  152SAPE   H8R16871   3.423   2.338  10.700  1.0608  0.9460  1.3095
  152SAPE   C2916872   3.389   2.505  10.591 -0.0671 -0.4366 -0.0880
  152SAPE   H9R16873   3.352   2.560  10.679  0.7186  2.4320 -1.4209
  152SAPE  C21016874   3.386   2.587  10.467  0.0821 -0.0340 -0.4733
  152SAPE  H10R16875   3.287   2.636  10.474  0.5895  0.8938  0.6442
  152SAPE  H10S16876   3.367   2.523  10.378  1.7588  1.5412 -2.0478
  152SAPE  C21116877   3.495   2.685  10.443 -0.2697  0.1664 -0.8275
  152SAPE  H11R16878   3.501   2.764  10.519  0.5115  0.0268 -0.7435
  152SAPE  C21216879   3.582   2.689  10.345  0.2413 -0.5448  0.2251
  152SAPE  H12R16880   3.648   2.776  10.341 -0.8737  0.3225  0.2664
  152SAPE  C21316881   3.591   2.592  10.230 -0.6020  0.4508 -0.2159
  152SAPE  H13R16882   3.582   2.654  10.138 -2.3123 -0.2747 -0.5704
  152SAPE  H13S16883   3.510   2.517  10.241  2.8282 -3.3105  2.1917
  152SAPE  C21416884   3.720   2.518  10.230 -0.5161  0.4159 -0.8057
  152SAPE  H14R16885   3.775   2.525  10.325 -3.7222 -2.0033  1.4366
  152SAPE  C21516886   3.756   2.436  10.130  0.0809 -0.0466 -0.5186
  152SAPE  H15R16887   3.856   2.389  10.131 -0.0053 -0.2459  1.1431
  152SAPE  C21616888   3.666   2.411  10.016  0.4961 -1.0354 -0.0490
  152SAPE  H16R16889   3.583   2.485  10.019  0.6258 -0.9053  0.6448
  152SAPE  H16S16890   3.622   2.310  10.024 -0.2243 -0.8801 -1.7967
  152SAPE  C21716891   3.755   2.443   9.894 -0.0412 -0.0425 -1.0175
  152SAPE  H17R16892   3.852   2.389   9.894 -0.4220 -0.8038  1.0298
  152SAPE  H17S16893   3.788   2.549   9.895 -2.0619  0.6268  0.2333
  152SAPE  C21816894   3.704   2.429   9.747 -0.3595 -0.8004  0.2512
  152SAPE  H18R16895   3.599   2.462   9.736 -0.1272  0.2980  1.1273
  152SAPE  H18S16896   3.706   2.323   9.714  1.3012 -0.4600 -0.8844
  152SAPE  C21916897   3.794   2.508   9.640  0.5303  0.3695  0.2138
  152SAPE  H19R16898   3.900   2.478   9.648  0.5065  0.5072  1.1929
  152SAPE  H19S16899   3.787   2.615   9.667 -0.8945 -0.1053  1.9842
  152SAPE  C22016900   3.742   2.484   9.499  0.0794 -0.2627 -0.0303
  152SAPE  H20R16901   3.635   2.514   9.496  0.1970  0.1089 -1.5627
  152SAPE  H20S16902   3.752   2.378   9.468 -0.0087 -1.0029  2.3203
  152SAPE  H20T16903   3.776   2.550   9.415  1.8627 -2.1286 -0.8687
  152SAPE   C3316904   3.006   2.155  10.047 -0.2545  0.0006 -1.4464
  152SAPE   H3X16905   3.002   2.252  10.102  0.1088 -1.8348  2.1848
  152SAPE   H3Y16906   2.973   2.171   9.943  1.7798 -0.4370 -2.2069
  152SAPE   C3416907   3.151   2.121  10.055  0.5118 -0.0524 -0.4179
  152SAPE   H4X16908   3.166   2.012  10.039  5.1378  0.1947  0.8692
  152SAPE   H4Y16909   3.186   2.140  10.159 -1.2524  3.6565 -0.3585
  152SAPE   C3516910   3.229   2.195   9.945  0.2920  0.2237 -0.2552
  152SAPE   H5X16911   3.206   2.302   9.965 -0.4996 -0.3142  2.0349
  152SAPE   H5Y16912   3.180   2.172   9.848 -1.6394 -2.2168  1.1602
  152SAPE   C3616913   3.385   2.171   9.949  0.5867  0.2502 -0.1861
  152SAPE   H6X16914   3.417   2.217  10.045 -0.6773  1.5682 -0.3762
  152SAPE   H6Y16915   3.425   2.232   9.865  0.6413 -0.9652 -1.0765
  152SAPE   C3716916   3.434   2.028   9.947 -0.0935  0.5108  0.3555
  152SAPE   H7X16917   3.379   1.974  10.028 -0.8041 -0.9324 -1.0425
  152SAPE   H7Y16918   3.543   2.015   9.966 -0.4309 -2.6435  0.7480
  152SAPE   C3816919   3.393   1.965   9.807 -0.4597  0.0022 -0.0231
  152SAPE   H8X16920   3.284   1.986   9.796 -0.5198 -0.9265 -1.3214
  152SAPE   H8Y16921   3.393   1.854   9.805 -1.4797 -0.0300  0.7934
  152SAPE   C3916922   3.473   2.027   9.689 -0.0465  0.1183  0.3454
  152SAPE   H9X16923   3.578   2.026   9.723  0.2275  0.4465 -0.4615
  152SAPE   H9Y16924   3.453   2.136   9.684 -0.9071 -0.0050  0.9697
  152SAPE  C31016925   3.462   1.968   9.555 -0.3016  0.1099 -0.4323
  152SAPE  H10X16926   3.358   1.984   9.518 -1.0888 -3.4761 -0.0696
  152SAPE  H10Y16927   3.489   1.861   9.567  1.8731  0.8448  2.4816
  152SAPE  C31116928   3.553   2.027   9.452  0.2413  0.0156 -0.1118
  152SAPE  H11X16929   3.655   1.995   9.481  0.4493  2.0271  1.6035
  152SAPE  H11Y16930   3.549   2.137   9.462  0.5474  0.0025  0.1763
  152SAPE  C31216931   3.527   1.986   9.311  1.0201  0.2156 -0.8152
  152SAPE  H12X16932   3.423   2.025   9.299  1.3085  2.3815  2.4509
  152SAPE  H12Y16933   3.503   1.877   9.305 -0.7692  0.5129  0.1859
  152SAPE  C31316934   3.621   2.045   9.210  0.9175  0.2914 -0.1846
  152SAPE  H13X16935   3.724   2.030   9.249  0.4800  1.5974  1.6116
  152SAPE  H13Y16936   3.603   2.154   9.218  2.3999  0.4870  0.8623
  152SAPE  C31416937   3.593   1.998   9.071  0.1374  0.8958  0.2847
  152SAPE  H14X16938   3.601   1.888   9.077  2.0156  0.5997 -3.9946
  152SAPE  H14Y16939   3.670   2.029   8.998 -0.3112  0.9559 -0.1710
  152SAPE  C31516940   3.458   2.037   9.011 -0.5577  0.1671  0.1146
  152SAPE  H15X16941   3.453   2.148   9.018  1.0878  0.1912  1.9455
  152SAPE  H15Y16942   3.372   1.988   9.061 -1.5091 -0.3323 -1.9347
  152SAPE  C31616943   3.445   1.989   8.862  0.3200 -0.0107  0.0179
  152SAPE  H16X16944   3.485   1.886   8.853 -0.9108 -0.6430  1.3285
  152SAPE  H16Y16945   3.521   2.047   8.805 -2.0408  0.2705 -3.1115
  152SAPE  C31716946   3.304   2.012   8.802  0.2976 -0.7898 -0.7217
  152SAPE  H17X16947   3.266   2.110   8.838  2.3312 -0.9862  2.2894
  152SAPE  H17Y16948   3.239   1.942   8.857 -1.2960  1.0079 -0.1932
  152SAPE  C31816949   3.288   1.997   8.655 -0.3565  0.7692 -0.0428
  152SAPE  H18X16950   3.353   2.070   8.602 -1.6677  1.1433 -1.1992
  152SAPE  H18Y16951   3.182   2.008   8.621 -0.3035 -0.8666 -0.8213
  152SAPE  H18Z16952   3.319   1.898   8.615  0.3060  0.3280  1.4754
  153SAPE     N16953   0.490   3.386  10.980  0.1126 -0.3800  0.4337
  153SAPE   HN116954   0.449   3.329  10.902 -0.9174 -0.9321  1.3499
  153SAPE   HN216955   0.436   3.354  11.063 -1.6088  0.1891 -0.4065
  153SAPE   HN316956   0.451   3.481  10.967 -0.7443 -0.8370 -0.5335
  153SAPE   C1216957   0.644   3.369  10.983  1.1398  0.5212 -0.8324
  153SAPE  H12A16958   0.683   3.416  11.076  0.6710 -1.9970  0.7294
  153SAPE  H12B16959   0.697   3.401  10.891  2.5845 -1.9516 -0.9602
  153SAPE   C1116960   0.681   3.220  10.989  0.2827  0.6253  0.0673
  153SAPE  H11A16961   0.632   3.168  11.074 -2.1891 -0.1155 -1.6880
  153SAPE  H11B16962   0.788   3.198  11.007  0.3470 -0.5832 -1.5664
  153SAPE     P16963   0.741   3.139  10.747 -0.4723 -0.0356 -0.2325
  153SAPE   O1316964   0.859   3.230  10.748 -0.8057 -0.1793 -0.2476
  153SAPE   O1416965   0.771   2.997  10.725  0.2528  0.0433 -0.1028
  153SAPE   O1216966   0.643   3.164  10.863 -0.3749  0.0869  0.0730
  153SAPE   O1116967   0.648   3.182  10.633 -0.1061 -0.3000  0.2612
  153SAPE    C116968   0.570   3.088  10.555  0.2667 -0.7549 -0.5852
  153SAPE    HA16969   0.548   3.000  10.620  1.1777  0.6430  1.7197
  153SAPE    HB16970   0.472   3.139  10.547  0.9183  0.2532 -2.7860
  153SAPE    C216971   0.632   3.038  10.424  0.4477  1.0881  0.4527
  153SAPE    HS16972   0.695   2.951  10.453 -0.9692 -0.0766  0.1237
  153SAPE   O2116973   0.694   3.148  10.353 -0.2674  0.6741  0.4358
  153SAPE   C2116974   0.777   3.107  10.263  0.1698 -0.5204  0.3207
  153SAPE   O2216975   0.824   2.996  10.253 -0.0810  0.4105  0.0041
  153SAPE   C2216976   0.811   3.223  10.169  0.5810  0.1064  0.0185
  153SAPE   H2R16977   0.724   3.263  10.113 -0.4096 -1.0215  0.7039
  153SAPE   H2S16978   0.861   3.298  10.234  0.4927 -0.3825  0.6618
  153SAPE    C316979   0.515   2.965  10.343  0.0607  0.3290 -0.1980
  153SAPE    HX16980   0.454   3.052  10.309 -0.2486  0.9892  1.8734
  153SAPE    HY16981   0.442   2.919  10.412 -1.6515  1.5416 -1.1242
  153SAPE   O3116982   0.559   2.876  10.239  0.3664  0.2535 -0.6706
  153SAPE   C3116983   0.607   2.759  10.278  0.2976  0.0644 -0.5244
  153SAPE   O3216984   0.591   2.719  10.393 -0.0334  0.2968  0.2147
  153SAPE   C3216985   0.658   2.673  10.166  0.0620  0.6092  0.0603
  153SAPE   H2X16986   0.572   2.611  10.133 -1.2309  2.3724 -0.0872
  153SAPE   H2Y16987   0.722   2.601  10.220 -2.9516 -1.4043  1.2232
  153SAPE   C2316988   0.909   3.181  10.056  0.0328 -0.0138  0.8015
  153SAPE   H3R16989   1.004   3.150  10.104 -0.3514 -1.9641  0.3889
  153SAPE   H3S16990   0.932   3.276  10.004 -0.7054  0.7119  1.7511
  153SAPE   C2416991   0.854   3.080   9.950 -0.4348 -0.3102 -0.4731
  153SAPE   H4R16992   0.764   3.129   9.907 -1.9759 -0.7503  2.0828
  153SAPE   H4S16993   0.823   2.989  10.004 -2.3245  0.2413 -0.5588
  153SAPE   C2516994   0.956   3.047   9.841 -0.3115  0.0472  0.4217
  153SAPE   H5R16995   1.043   2.985   9.866 -1.5734 -1.9052  0.2025
  153SAPE   C2616996   0.940   3.061   9.709  0.4643  0.5523 -0.0183
  153SAPE   H6R16997   1.030   3.036   9.652 -1.6189 -0.6161 -3.0264
  153SAPE   C2716998   0.826   3.130   9.632  0.1923  0.0719 -0.3455
  153SAPE   H7R16999   0.861   3.203   9.555  1.6955 -0.7350 -0.4703
  153SAPE   H7S17000   0.757   3.193   9.693 -0.3066  0.0392 -0.8760
  153SAPE   C2817001   0.737   3.021   9.565 -0.0933  0.4140 -0.5053
  153SAPE   H8R17002   0.688   2.955   9.638 -1.7182  2.5168  0.4213
  153SAPE   C2917003   0.707   2.998   9.434 -0.1789 -0.4360  0.2709
  153SAPE   H9R17004   0.633   2.920   9.410  1.4549 -2.0069  0.1242
  153SAPE  C21017005   0.774   3.080   9.312  0.2140  0.1961 -0.1964
  153SAPE  H10R17006   0.741   3.187   9.317  0.3225  0.1974  0.6827
  153SAPE  H10S17007   0.713   3.033   9.232 -2.5409 -1.5145  2.6609
  153SAPE  C21117008   0.921   3.074   9.288  0.4877 -0.4835  0.5228
  153SAPE  H11R17009   0.976   3.113   9.375 -2.1464  2.1770  1.1750
  153SAPE  C21217010   0.985   3.036   9.177 -0.0163  0.5026  0.1866
  153SAPE  H12R17011   1.094   3.054   9.170  0.2323 -0.9049 -0.0464
  153SAPE  C21317012   0.911   2.977   9.056 -0.4882  0.1214 -0.0103
  153SAPE  H13R17013   0.829   2.907   9.084  0.9374 -0.5423  2.8806
  153SAPE  H13S17014   0.976   2.906   9.002 -0.2137  0.0058  0.4663
  153SAPE  C21417015   0.839   3.068   8.962  0.3438  0.0768 -0.2646
  153SAPE  H14R17016   0.816   3.167   9.003  1.4826  0.5338 -0.6659
  153SAPE  C21517017   0.776   3.034   8.843  0.6852 -0.5576 -0.4224
  153SAPE  H15R17018   0.712   3.112   8.799 -1.0886 -0.3765  2.2637
  153SAPE  C21617019   0.775   2.904   8.769  0.4996 -0.0799  0.7112
  153SAPE  H16R17020   0.674   2.865   8.742  1.5393 -0.7325 -2.5798
  153SAPE  H16S17021   0.813   2.826   8.838  1.3648 -1.4783 -1.2759
  153SAPE  C21717022   0.853   2.901   8.630  0.8558 -0.1303 -0.0347
  153SAPE  H17R17023   0.867   2.805   8.577 -0.7930  0.7143 -2.1245
  153SAPE  H17S17024   0.956   2.937   8.649  1.9876 -2.4989 -1.2915
  153SAPE  C21817025   0.789   2.991   8.525 -0.0265 -0.4050  0.2857
  153SAPE  H18R17026   0.773   3.097   8.551 -0.9519 -0.7837  1.3339
  153SAPE  H18S17027   0.693   2.940   8.499  0.7198 -0.5216 -2.5626
  153SAPE  C21917028   0.877   2.992   8.390  0.8309 -0.6767 -0.3834
  153SAPE  H19R17029   0.967   3.049   8.419 -0.1442  0.6514  0.1570
  153SAPE  H19S17030   0.824   3.051   8.313 -0.0313 -1.5867 -0.5081
  153SAPE  C22017031   0.897   2.853   8.331 -0.6735 -0.0061 -0.6947
  153SAPE  H20R17032   0.981   2.804   8.385 -2.3302 -2.0803  0.1367
  153SAPE  H20S17033   0.922   2.859   8.222 -2.5185 -0.9870 -1.2172
  153SAPE  H20T17034   0.805   2.799   8.362  1.1061 -0.9616  3.5925
  153SAPE   C3317035   0.727   2.741  10.052 -0.3578  0.1569  0.3324
  153SAPE   H3X17036   0.816   2.802  10.080 -0.5148  1.5384 -1.9352
  153SAPE   H3Y17037   0.659   2.814  10.002  0.0684  1.4393  1.5478
  153SAPE   C3417038   0.772   2.641   9.950  0.2902 -0.6431  0.3225
  153SAPE   H4X17039   0.680   2.591   9.915  0.3892  0.0873 -1.0455
  153SAPE   H4Y17040   0.826   2.557  10.000  1.6309  0.2187  0.3885
  153SAPE   C3517041   0.829   2.691   9.811  0.2173  0.3553 -0.7713
  153SAPE   H5X17042   0.928   2.733   9.838 -0.5553  1.3283  0.6955
  153SAPE   H5Y17043   0.762   2.777   9.792  1.3138  1.0249 -1.6765
  153SAPE   C3617044   0.831   2.592   9.705 -0.1240 -0.3183  0.2731
  153SAPE   H6X17045   0.736   2.535   9.696 -1.0643  1.2826 -0.4877
  153SAPE   H6Y17046   0.912   2.517   9.716 -0.5632 -0.8751 -0.2658
  153SAPE   C3717047   0.872   2.672   9.576  0.1605 -0.0204  0.2349
  153SAPE   H7X17048   0.966   2.730   9.594 -1.4697  2.5995  0.8115
  153SAPE   H7Y17049   0.797   2.751   9.558  1.0179  1.2447  1.9360
  153SAPE   C3817050   0.881   2.571   9.458 -0.1452 -1.0815  0.0398
  153SAPE   H8X17051   0.791   2.507   9.449 -1.3994 -0.3009  4.5849
  153SAPE   H8Y17052   0.956   2.491   9.476 -1.9091 -2.9284 -0.4421
  153SAPE   C3917053   0.926   2.638   9.329 -0.0415 -0.3921 -0.6022
  153SAPE   H9X17054   1.027   2.681   9.348  0.7210 -2.6643  1.0091
  153SAPE   H9Y17055   0.852   2.715   9.299 -0.3195  1.0643  3.3249
  153SAPE  C31017056   0.959   2.535   9.221 -0.1152  0.1986 -0.5618
  153SAPE  H10X17057   0.896   2.443   9.227 -1.6110  1.2050 -0.3476
  153SAPE  H10Y17058   1.059   2.491   9.238 -0.4334 -0.0575  0.7345
  153SAPE  C31117059   0.964   2.594   9.080  0.4164  0.6466  0.8082
  153SAPE  H11X17060   1.038   2.676   9.082  1.5857 -0.3760  0.5622
  153SAPE  H11Y17061   0.864   2.642   9.078  0.3846  0.5850  0.8976
  153SAPE  C31217062   0.988   2.496   8.963  0.6596  0.7224 -0.2887
  153SAPE  H12X17063   0.903   2.425   8.956 -0.4124  2.0700 -1.2906
  153SAPE  H12Y17064   1.079   2.441   8.996 -0.3868 -0.1654  1.2408
  153SAPE  C31317065   1.014   2.567   8.830  0.3223 -0.4253 -0.1924
  153SAPE  H13X17066   1.093   2.645   8.823 -1.6597  1.5443 -2.4609
  153SAPE  H13Y17067   0.921   2.624   8.812  0.0192 -0.9268 -0.2221
  153SAPE  C31417068   1.029   2.467   8.712 -0.3617 -1.0141 -0.3633
  153SAPE  H14X17069   0.943   2.401   8.686 -0.0035 -2.1678  1.2455
  153SAPE  H14Y17070   1.112   2.396   8.736 -1.1724 -1.4494  1.2725
  153SAPE  C31517071   1.049   2.553   8.589 -0.2624  0.1729  0.1095
  153SAPE  H15X17072   1.146   2.602   8.611  0.2020 -0.2408 -0.9314
  153SAPE  H15Y17073   0.979   2.639   8.583  2.8315  2.7411 -3.6318
  153SAPE  C31617074   1.060   2.477   8.460 -0.1713 -0.9097  0.4499
  153SAPE  H16X17075   1.094   2.372   8.476  1.6587 -0.1536  1.8249
  153SAPE  H16Y17076   1.131   2.521   8.388 -0.4334 -0.4439  0.4754
  153SAPE  C31717077   0.921   2.456   8.406  0.5526 -0.2853  0.6040
  153SAPE  H17X17078   0.873   2.551   8.373 -2.1836 -1.8501 -0.2248
  153SAPE  H17Y17079   0.857   2.403   8.480  0.9257  0.0082  1.1408
  153SAPE  C31817080   0.917   2.367   8.279 -0.7934  0.5276 -0.4317
  153SAPE  H18X17081   0.991   2.401   8.203 -3.5017  2.0570 -2.5674
  153SAPE  H18Y17082   0.816   2.374   8.233 -0.5716 -1.8368 -1.4386
  153SAPE  H18Z17083   0.929   2.260   8.307 -2.3064  0.1374 -1.1398
  154SAPE     N17084   2.225   3.792  11.054  0.0174  0.2660  0.1365
  154SAPE   HN117085   2.215   3.690  11.066  0.9595 -0.2875 -2.8478
  154SAPE   HN217086   2.137   3.824  11.010 -0.3420 -1.0115 -0.1073
  154SAPE   HN317087   2.298   3.810  10.981  0.4708  0.0755  0.5343
  154SAPE   C1217088   2.250   3.879  11.176 -0.3742 -0.8315  0.1582
  154SAPE  H12A17089   2.330   3.831  11.236  1.2434  1.3411 -0.1008
  154SAPE  H12B17090   2.154   3.880  11.232  0.3700 -1.1203  1.5000
  154SAPE   C1117091   2.288   4.027  11.137  0.0024  0.1884 -0.4351
  154SAPE  H11A17092   2.378   4.024  11.073  0.3431  0.0734  0.0426
  154SAPE  H11B17093   2.307   4.072  11.237 -0.9397 -1.5306  0.5590
  154SAPE     P17094   2.201   4.228  11.019  0.3440  0.2209  0.0593
  154SAPE   O1317095   2.076   4.293  10.984 -0.0751  0.2696  0.4216
  154SAPE   O1417096   2.303   4.301  11.096  0.3704 -0.0191 -0.7275
  154SAPE   O1217097   2.172   4.089  11.078  0.0160 -0.4006  0.2208
  154SAPE   O1117098   2.267   4.193  10.875  0.0316 -0.3627 -0.1202
  154SAPE    C117099   2.223   4.075  10.803 -0.3218 -0.6567  0.0499
  154SAPE    HA17100   2.255   3.981  10.852 -0.4141  0.4021  2.2540
  154SAPE    HB17101   2.115   4.076  10.778 -0.2361 -1.1754 -0.3480
  154SAPE    C217102   2.289   4.055  10.664 -0.0833 -0.4522  0.2693
  154SAPE    HS17103   2.398   4.058  10.682 -0.0374 -1.4173  0.2187
  154SAPE   O2117104   2.242   4.157  10.573  0.4484 -0.0286 -0.4057
  154SAPE   C2117105   2.322   4.201  10.482 -0.5106  0.4800  0.5484
  154SAPE   O2217106   2.436   4.171  10.467 -0.4730 -0.6321  0.0186
  154SAPE   C2217107   2.241   4.288  10.392 -0.0075 -0.9231  0.6905
  154SAPE   H2R17108   2.133   4.273  10.412 -0.3729  0.3479 -0.2151
  154SAPE   H2S17109   2.267   4.393  10.418  0.5738 -0.4492 -1.5923
  154SAPE    C317110   2.264   3.910  10.598 -0.6766  0.3101  0.2448
  154SAPE    HX17111   2.154   3.912  10.580 -0.8542  0.9318  1.2984
  154SAPE    HY17112   2.283   3.833  10.675 -3.0020 -0.9935 -0.3904
  154SAPE   O3117113   2.339   3.889  10.477 -0.4340  0.2465 -0.5411
  154SAPE   C3117114   2.393   3.771  10.457  0.3886 -0.6757 -0.3796
  154SAPE   O3217115   2.384   3.674  10.531  0.0621 -0.0291 -0.5535
  154SAPE   C3217116   2.442   3.772  10.314 -0.7054  0.7102  0.1784
  154SAPE   H2X17117   2.553   3.783  10.313 -0.7787  1.5711  0.4749
  154SAPE   H2Y17118   2.388   3.848  10.254 -4.0666 -1.3580  0.3209
  154SAPE   C2317119   2.285   4.277  10.236  0.9068 -0.4824  0.0068
  154SAPE   H3R17120   2.390   4.311  10.228  1.5940 -1.2699  3.5939
  154SAPE   H3S17121   2.218   4.340  10.174  0.3761 -1.7414 -0.7372
  154SAPE   C2417122   2.269   4.134  10.176 -0.0976  0.1153 -0.2707
  154SAPE   H4R17123   2.334   4.073  10.243  1.4408 -0.4491 -2.2110
  154SAPE   H4S17124   2.317   4.150  10.078 -2.2056 -2.0427 -1.7616
  154SAPE   C2517125   2.143   4.063  10.156 -0.6769 -0.2192 -0.2644
  154SAPE   H5R17126   2.088   4.053  10.251  0.3838 -0.1480  0.3770
  154SAPE   C2617127   2.083   4.025  10.042 -0.3328 -0.3725  0.5862
  154SAPE   H6R17128   1.980   3.990  10.060  0.9198 -3.6835  1.9925
  154SAPE   C2717129   2.134   4.040   9.900  0.5592 -0.2177  0.3991
  154SAPE   H7R17130   2.084   3.965   9.835  1.6803 -0.4226 -0.2679
  154SAPE   H7S17131   2.243   4.020   9.890  0.1994 -1.1730 -2.3708
  154SAPE   C2817132   2.108   4.179   9.841  0.2382 -0.8141  0.3062
  154SAPE   H8R17133   2.084   4.253   9.919  0.3623  0.8022 -1.1286
  154SAPE   C2917134   2.114   4.214   9.708  0.6583  0.2687  0.8197
  154SAPE   H9R17135   2.109   4.319   9.679  3.3292 -0.0525 -1.1937
  154SAPE  C21017136   2.148   4.123   9.587  0.7689 -0.0597 -1.0254
  154SAPE  H10R17137   2.178   4.022   9.624  2.2056  0.8668  0.4484
  154SAPE  H10S17138   2.236   4.158   9.530  2.0130 -0.3718  0.6295
  154SAPE  C21117139   2.026   4.109   9.492  0.2672  0.2113  0.0631
  154SAPE  H11R17140   1.927   4.089   9.535 -0.1185  1.8501 -0.0169
  154SAPE  C21217141   2.025   4.093   9.357  0.1770 -0.5181  0.8285
  154SAPE  H12R17142   1.926   4.096   9.309  0.9502 -0.6346 -0.8461
  154SAPE  C21317143   2.148   4.085   9.265  0.1065 -0.8247  0.0973
  154SAPE  H13R17144   2.224   4.018   9.311  1.5463 -0.9296 -2.2439
  154SAPE  H13S17145   2.196   4.185   9.259 -0.3438 -0.5772  0.5301
  154SAPE  C21417146   2.123   4.023   9.129  0.0765 -1.3406  0.2573
  154SAPE  H14R17147   2.035   3.957   9.126 -0.9276 -0.0191 -0.7959
  154SAPE  C21517148   2.178   4.062   9.013  0.8551  0.6368  0.3527
  154SAPE  H15R17149   2.129   4.023   8.922  1.5040  2.4744 -0.8351
  154SAPE  C21617150   2.291   4.158   8.994  0.4057 -0.6300 -0.3718
  154SAPE  H16R17151   2.388   4.119   8.957  2.0715  2.6318  0.1820
  154SAPE  H16S17152   2.323   4.201   9.091 -1.8419 -0.4273  0.3299
  154SAPE  C21717153   2.253   4.294   8.920 -0.2927  0.2794 -0.4677
  154SAPE  H17R17154   2.209   4.250   8.827  0.7003 -1.5452 -0.1380
  154SAPE  H17S17155   2.349   4.344   8.892 -0.9304  1.3202 -0.8381
  154SAPE  C21817156   2.167   4.393   9.001 -0.0373 -0.1784  0.1674
  154SAPE  H18R17157   2.220   4.415   9.097  3.1850 -0.7823 -1.3361
  154SAPE  H18S17158   2.074   4.338   9.024  1.0119 -1.1274  2.4982
  154SAPE  C21917159   2.144   4.524   8.922 -0.3271 -0.5151 -0.1537
  154SAPE  H19R17160   2.062   4.578   8.974 -0.8693 -1.3680 -0.0927
  154SAPE  H19S17161   2.104   4.497   8.822  0.5934 -0.2228 -0.6128
  154SAPE  C22017162   2.267   4.618   8.911 -0.5224  0.0438 -0.1002
  154SAPE  H20R17163   2.301   4.650   9.012 -0.0607  0.0450 -0.2549
  154SAPE  H20S17164   2.236   4.705   8.849  1.2554 -0.2644 -1.5165
  154SAPE  H20T17165   2.346   4.560   8.859  0.3958  1.4257 -0.3045
  154SAPE   C3317166   2.419   3.628  10.254 -0.1084  0.1688 -0.2661
  154SAPE   H3X17167   2.312   3.601  10.268  0.0325  0.0010  0.5284
  154SAPE   H3Y17168   2.486   3.552  10.299  2.1361  0.3830 -3.0049
  154SAPE   C3417169   2.447   3.628  10.103  0.3233  0.4285  0.1047
  154SAPE   H4X17170   2.425   3.525  10.070  1.0754 -1.4122  4.6050
  154SAPE   H4Y17171   2.553   3.653  10.080  0.4065 -1.6322 -2.2329
  154SAPE   C3517172   2.365   3.738  10.033  0.2732  0.7313  0.4489
  154SAPE   H5X17173   2.404   3.841  10.049  1.4953  0.4644 -0.6835
  154SAPE   H5Y17174   2.260   3.740  10.071 -0.0504  3.2762 -0.3922
  154SAPE   C3617175   2.354   3.725   9.875 -0.2910 -0.8658 -0.0873
  154SAPE   H6X17176   2.447   3.741   9.816 -1.2188  1.4309 -1.0566
  154SAPE   H6Y17177   2.300   3.817   9.846  1.2564 -0.3617 -1.5612
  154SAPE   C3717178   2.272   3.604   9.824 -0.2400 -0.0946  0.0938
  154SAPE   H7X17179   2.192   3.593   9.900 -0.5563  1.9874  0.1282
  154SAPE   H7Y17180   2.325   3.507   9.834 -0.1930  0.0459  1.3999
  154SAPE   C3817181   2.211   3.627   9.693  0.4563 -0.2839  0.0020
  154SAPE   H8X17182   2.286   3.665   9.620 -1.2699  2.1966 -0.6359
  154SAPE   H8Y17183   2.139   3.711   9.703  2.3286  1.6674 -1.7655
  154SAPE   C3917184   2.135   3.504   9.638 -0.3769  0.6920  0.4111
  154SAPE   H9X17185   2.072   3.454   9.714 -1.2774 -0.8797 -1.2620
  154SAPE   H9Y17186   2.205   3.420   9.615 -0.7630  0.0751  1.4339
  154SAPE  C31017187   2.046   3.541   9.524  0.5363  0.5923  0.4216
  154SAPE  H10X17188   1.994   3.637   9.546 -0.7563  0.3706 -1.4961
  154SAPE  H10Y17189   1.970   3.460   9.522  0.6741  0.4369  1.0588
  154SAPE  C31117190   2.116   3.552   9.383  0.3693  0.6249  0.1056
  154SAPE  H11X17191   2.225   3.535   9.395  0.5416  1.9056  0.5368
  154SAPE  H11Y17192   2.115   3.657   9.346  1.9774  1.1186  1.3281
  154SAPE  C31217193   2.055   3.448   9.280  0.3149  0.3660  0.0905
  154SAPE  H12X17194   1.946   3.468   9.269  0.4036  0.9465  0.2444
  154SAPE  H12Y17195   2.068   3.343   9.316 -3.4066 -1.4527 -3.0822
  154SAPE  C31317196   2.118   3.455   9.140 -0.1044 -0.5157  0.2995
  154SAPE  H13X17197   2.111   3.562   9.112 -1.4029 -0.6532  0.0300
  154SAPE  H13Y17198   2.058   3.402   9.064  1.0085  1.4974 -2.1559
  154SAPE  C31417199   2.266   3.428   9.132  0.1020 -0.0089 -0.1124
  154SAPE  H14X17200   2.293   3.336   9.187  1.6515  1.3833  1.6172
  154SAPE  H14Y17201   2.311   3.515   9.185  0.4383 -0.3900  0.2301
  154SAPE  C31517202   2.323   3.429   8.994  0.8811  0.6084 -0.2453
  154SAPE  H15X17203   2.300   3.326   8.959 -0.3052  1.0868 -0.9170
  154SAPE  H15Y17204   2.434   3.424   9.005  0.7285 -0.9957  0.8282
  154SAPE  C31617205   2.283   3.529   8.881 -0.2870 -0.5723  0.3846
  154SAPE  H16X17206   2.179   3.510   8.847 -0.2322 -0.4619  0.1529
  154SAPE  H16Y17207   2.346   3.504   8.794  2.7475 -0.9489  2.5373
  154SAPE  C31717208   2.298   3.671   8.927 -0.1555 -0.1985  0.2105
  154SAPE  H17X17209   2.373   3.680   9.009  0.0388 -0.4557  0.0623
  154SAPE  H17Y17210   2.199   3.702   8.967 -0.2214  0.1802 -0.2430
  154SAPE  C31817211   2.326   3.755   8.811 -0.6122 -0.2481 -0.2816
  154SAPE  H18X17212   2.419   3.716   8.765  0.4047  2.0672 -0.3278
  154SAPE  H18Y17213   2.340   3.858   8.850  1.7329  0.7597 -3.3717
  154SAPE  H18Z17214   2.237   3.746   8.744  0.1096 -0.9894 -1.1597
  155SAPE     N17215   3.708   5.086  10.819  0.4323 -0.2818 -0.3693
  155SAPE   HN117216   3.798   5.100  10.870  0.0673 -2.6978  1.0713
  155SAPE   HN217217   3.664   5.175  10.787 -0.0748 -0.5652 -0.4660
  155SAPE   HN317218   3.647   5.038  10.888 -0.8114 -0.1813 -1.3585
  155SAPE   C1217219   3.740   5.008  10.691 -0.1850  0.2657 -0.3646
  155SAPE  H12A17220   3.808   5.064  10.624  0.2568 -0.7466 -0.7879
  155SAPE  H12B17221   3.640   4.986  10.647 -0.5162  0.0373  0.4803
  155SAPE   C1117222   3.817   4.885  10.731 -0.6458  0.4956  0.3393
  155SAPE  H11A17223   3.916   4.916  10.770  0.1285 -2.5170  0.9871
  155SAPE  H11B17224   3.828   4.818  10.643 -0.9051 -2.1231  2.1711
  155SAPE     P17225   3.800   4.694  10.928 -0.3485  0.3586 -0.2792
  155SAPE   O1317226   3.884   4.753  11.037  0.4506 -0.1596  0.1652
  155SAPE   O1417227   3.679   4.619  10.960 -0.2329  0.0566 -0.1018
  155SAPE   O1217228   3.753   4.816  10.834 -0.3830  0.2526  0.6695
  155SAPE   O1117229   3.900   4.620  10.836  0.1834 -0.6078 -0.0060
  155SAPE    C117230   3.859   4.509  10.756 -0.0519 -0.5474  0.1322
  155SAPE    HA17231   3.784   4.446  10.809 -1.5723 -0.0950 -1.3637
  155SAPE    HB17232   3.812   4.546  10.662  1.3767 -0.6990 -0.6649
  155SAPE    C217233   3.975   4.425  10.697  0.3240 -0.4428 -0.0814
  155SAPE    HS17234   4.048   4.394  10.775  0.7976 -1.5604 -0.9431
  155SAPE   O2117235   4.039   4.503  10.596  0.1785 -0.1649  0.2958
  155SAPE   C2117236   4.124   4.601  10.625  0.0922  0.3642 -0.5676
  155SAPE   O2217237   4.178   4.621  10.739 -0.1540 -0.2827  0.4542
  155SAPE   C2217238   4.144   4.681  10.499 -0.2146  0.0433  0.4815
  155SAPE   H2R17239   4.194   4.622  10.419  1.3477  2.5788 -0.5380
  155SAPE   H2S17240   4.047   4.727  10.469 -0.4676 -0.1702  0.9673
  155SAPE    C317241   3.921   4.296  10.625  0.6238 -0.2410  0.3900
  155SAPE    HX17242   3.863   4.228  10.691 -1.6188  0.2002 -0.9909
  155SAPE    HY17243   4.002   4.242  10.573 -0.5920 -0.3010 -1.5488
  155SAPE   O3117244   3.827   4.324  10.521 -0.6876 -0.4366  0.9103
  155SAPE   C3117245   3.778   4.207  10.473  0.1287 -0.0604  0.5827
  155SAPE   O3217246   3.813   4.100  10.511 -0.4929 -0.1263 -0.1147
  155SAPE   C3217247   3.660   4.233  10.383 -0.9870 -0.0609 -0.6515
  155SAPE   H2X17248   3.698   4.307  10.309 -2.4386 -0.5884 -1.9574
  155SAPE   H2Y17249   3.581   4.284  10.443  2.8258  5.1441  0.7042
  155SAPE   C2317250   4.256   4.793  10.516  0.1205 -0.0404  0.1174
  155SAPE   H3R17251   4.337   4.766  10.587 -0.9941 -2.0164  0.6969
  155SAPE   H3S17252   4.215   4.889  10.555  0.5919  0.3362 -0.3003
  155SAPE   C2417253   4.308   4.834  10.378 -0.4669  0.2230 -0.2377
  155SAPE   H4R17254   4.343   4.938  10.393 -2.0180  0.6230  0.8370
  155SAPE   H4S17255   4.226   4.849  10.304 -0.0623  0.2074 -0.6953
  155SAPE   C2517256   4.430   4.757  10.328  0.3788  0.0165  0.3362
  155SAPE   H5R17257   4.513   4.751  10.400  2.5505 -0.8420 -2.0855
  155SAPE   C2617258   4.444   4.696  10.207  0.1582 -0.5941 -0.2751
  155SAPE   H6R17259   4.540   4.649  10.182  0.1289 -0.4770 -0.6108
  155SAPE   C2717260   4.346   4.703  10.094  0.7660  1.0791  0.4128
  155SAPE   H7R17261   4.405   4.708  10.000  1.6064 -0.4399  0.8342
  155SAPE   H7S17262   4.286   4.797  10.097 -0.1610  0.5591 -1.0193
  155SAPE   C2817263   4.249   4.589  10.073  0.1631  0.6589  0.8044
  155SAPE   H8R17264   4.227   4.529  10.163  1.5140 -0.6025  0.3411
  155SAPE   C2917265   4.189   4.546   9.958 -0.1974  0.6638 -0.8734
  155SAPE   H9R17266   4.123   4.458   9.963  1.8616 -0.9620 -1.4157
  155SAPE  C21017267   4.197   4.610   9.826 -0.6588  0.3481 -0.4597
  155SAPE  H10R17268   4.240   4.532   9.759  1.6084  0.0511  1.2396
  155SAPE  H10S17269   4.261   4.701   9.832  0.9671 -0.7314 -0.6886
  155SAPE  C21117270   4.059   4.646   9.789 -0.2605  0.0509 -0.9286
  155SAPE  H11R17271   4.007   4.697   9.872 -2.1131  2.0412 -3.1557
  155SAPE  C21217272   4.003   4.647   9.670  0.7096  0.2327 -0.0218
  155SAPE  H12R17273   3.898   4.679   9.660  0.5038  0.7803  2.8416
  155SAPE  C21317274   4.064   4.600   9.542  1.5598 -0.3064  0.1583
  155SAPE  H13R17275   4.003   4.516   9.502  0.1716 -0.0466  1.6474
  155SAPE  H13S17276   4.160   4.549   9.565  0.8557 -0.3581  3.4789
  155SAPE  C21417277   4.088   4.711   9.442 -0.2049  0.2748 -0.4743
  155SAPE  H14R17278   4.096   4.811   9.487 -0.0747 -0.4214  1.1075
  155SAPE  C21517279   4.080   4.695   9.306 -0.8059  0.4714 -0.0728
  155SAPE  H15R17280   4.097   4.781   9.240 -3.2902  0.6640 -0.5442
  155SAPE  C21617281   4.063   4.562   9.234  0.3882 -0.2491 -0.7685
  155SAPE  H16R17282   3.986   4.577   9.156 -1.1455 -0.4375  0.6594
  155SAPE  H16S17283   4.010   4.491   9.301 -0.6007  0.5434 -0.6851
  155SAPE  C21717284   4.186   4.489   9.178 -0.1167 -0.5119  0.0524
  155SAPE  H17R17285   4.255   4.472   9.263  1.1166  1.1197 -0.5905
  155SAPE  H17S17286   4.239   4.557   9.109 -1.1338  0.4659  0.2130
  155SAPE  C21817287   4.155   4.354   9.108  0.4002 -0.3955 -0.3013
  155SAPE  H18R17288   4.108   4.374   9.009  1.0843 -0.4051 -0.6372
  155SAPE  H18S17289   4.084   4.295   9.170 -0.6888 -1.5726 -2.5238
  155SAPE  C21917290   4.275   4.268   9.088 -1.1015  0.0083 -0.1728
  155SAPE  H19R17291   4.317   4.244   9.189  0.5749 -1.0147 -1.0671
  155SAPE  H19S17292   4.335   4.332   9.021  0.7842 -0.9955  0.4648
  155SAPE  C22017293   4.247   4.132   9.026 -0.6500 -0.2302 -0.3572
  155SAPE  H20R17294   4.182   4.078   9.099 -1.0320  0.3258 -0.2772
  155SAPE  H20S17295   4.336   4.072   8.998  0.0854  0.8540 -0.3734
  155SAPE  H20T17296   4.188   4.145   8.932 -2.2020 -0.6909  0.5053
  155SAPE   C3317297   3.629   4.103  10.298 -0.0512  0.0925  0.2568
  155SAPE   H3X17298   3.576   4.031  10.364 -0.3956 -0.8072 -0.9542
  155SAPE   H3Y17299   3.725   4.053  10.275 -0.2351  0.6943 -2.1729
  155SAPE   C3417300   3.557   4.134  10.158  0.5691  0.0914  0.1395
  155SAPE   H4X17301   3.617   4.209  10.103 -0.1880  1.0013  0.5251
  155SAPE   H4Y17302   3.458   4.182  10.170  0.8981  1.5429 -2.3443
  155SAPE   C3517303   3.550   4.017  10.063 -0.4326  0.4738  0.3416
  155SAPE   H5X17304   3.482   3.935  10.095 -0.0945 -1.0364 -2.5023
  155SAPE   H5Y17305   3.644   3.960  10.044 -0.1175  1.5678 -1.5754
  155SAPE   C3617306   3.495   4.068   9.933 -0.0945  0.3466  0.8240
  155SAPE   H6X17307   3.563   4.145   9.891 -0.8690  1.1353  0.9723
  155SAPE   H6Y17308   3.403   4.126   9.957  0.2988  0.5267  1.9843
  155SAPE   C3717309   3.473   3.965   9.828  0.1327  0.6631 -0.2637
  155SAPE   H7X17310   3.440   3.869   9.874  0.5725  0.5637 -0.1465
  155SAPE   H7Y17311   3.576   3.941   9.793  0.3102  2.9137 -1.4997
  155SAPE   C3817312   3.382   3.994   9.712  0.6690  0.5430  0.0015
  155SAPE   H8X17313   3.433   4.068   9.646  1.4357 -0.8221 -1.0038
  155SAPE   H8Y17314   3.296   4.038   9.766 -1.3085 -1.1742 -1.5651
  155SAPE   C3917315   3.334   3.876   9.630 -0.6469 -0.4895 -0.7521
  155SAPE   H9X17316   3.284   3.799   9.693 -2.4484  0.6453 -0.7000
  155SAPE   H9Y17317   3.418   3.831   9.573  1.5442  1.0198  1.1295
  155SAPE  C31017318   3.221   3.914   9.523 -0.7088 -0.7733  0.4709
  155SAPE  H10X17319   3.280   3.977   9.453 -2.0259  0.6385  0.5936
  155SAPE  H10Y17320   3.153   3.981   9.580  0.8258  0.5039  0.8727
  155SAPE  C31117321   3.146   3.799   9.456  0.6016 -0.3038  0.5889
  155SAPE  H11X17322   3.138   3.724   9.537 -0.2787  0.9171  1.6682
  155SAPE  H11Y17323   3.209   3.775   9.368 -1.4793  1.2087 -1.4490
  155SAPE  C31217324   3.015   3.848   9.395  0.1501  0.0912 -0.0917
  155SAPE  H12X17325   3.022   3.954   9.361 -1.4190 -0.7609 -3.4720
  155SAPE  H12Y17326   2.943   3.845   9.480  1.5769  0.9972  1.1891
  155SAPE  C31317327   2.969   3.768   9.269  0.3708 -0.1078 -0.0995
  155SAPE  H13X17328   3.044   3.782   9.188  0.9824 -2.2162  0.0518
  155SAPE  H13Y17329   2.869   3.806   9.238  0.7877 -0.3499 -1.8608
  155SAPE  C31417330   2.964   3.618   9.295  0.4578  0.5140  0.3231
  155SAPE  H14X17331   2.893   3.603   9.380 -0.2091 -1.4274 -0.5161
  155SAPE  H14Y17332   3.065   3.577   9.318  0.9504  1.4749 -0.0729
  155SAPE  C31517333   2.916   3.556   9.162 -0.0461  0.0490  0.2284
  155SAPE  H15X17334   2.994   3.576   9.085  1.4423 -1.2166  1.3291
  155SAPE  H15Y17335   2.824   3.606   9.125 -0.2968 -1.6607 -1.6393
  155SAPE  C31617336   2.886   3.405   9.179  0.1774 -0.1541 -0.1271
  155SAPE  H16X17337   2.838   3.412   9.278  2.2059 -0.3674  0.9208
  155SAPE  H16Y17338   2.976   3.339   9.182  0.8945  0.7042 -1.5268
  155SAPE  C31717339   2.793   3.352   9.071 -0.7125  0.2851 -0.4738
  155SAPE  H17X17340   2.743   3.435   9.015 -0.3181 -1.2797 -3.3556
  155SAPE  H17Y17341   2.715   3.295   9.125  0.1779  0.5670  1.1611
  155SAPE  C31817342   2.848   3.258   8.962 -0.0121  0.1512 -0.3159
  155SAPE  H18X17343   2.761   3.220   8.905  0.3844 -1.5397  0.1503
  155SAPE  H18Y17344   2.900   3.173   9.010  1.9555  0.4802 -1.7134
  155SAPE  H18Z17345   2.910   3.314   8.888 -0.6002  0.8842 -0.2737
  156SAPE     N17346   2.136   2.416  10.730 -0.6900 -0.0196 -0.2277
  156SAPE   HN117347   2.130   2.363  10.641  2.5007 -1.0825  0.0448
  156SAPE   HN217348   2.074   2.499  10.723 -2.2399 -1.0167  1.0539
  156SAPE   HN317349   2.233   2.456  10.732  0.2869 -2.2190  1.9922
  156SAPE   C1217350   2.113   2.338  10.854 -0.4049 -0.2180  0.0075
  156SAPE  H12A17351   2.049   2.394  10.925  1.7368  1.0631  1.0458
  156SAPE  H12B17352   2.210   2.307  10.899 -1.4003 -0.9864  1.7402
  156SAPE   C1117353   2.039   2.202  10.826  0.0117  0.3804 -0.3558
  156SAPE  H11A17354   1.937   2.215  10.783 -0.8519  2.1907  2.0311
  156SAPE  H11B17355   2.023   2.158  10.927  0.5075 -1.4302 -1.0147
  156SAPE     P17356   2.090   1.946  10.766 -0.3850 -0.3061 -0.2297
  156SAPE   O1317357   2.075   1.915  10.910  0.1100  0.4517  0.0081
  156SAPE   O1417358   1.988   1.896  10.670 -0.7449 -0.5770 -0.8664
  156SAPE   O1217359   2.117   2.104  10.751 -0.5074  0.3612 -0.8927
  156SAPE   O1117360   2.236   1.890  10.725 -0.4474 -0.0773  0.2457
  156SAPE    C117361   2.250   1.797  10.624 -0.6856  0.2309 -0.4028
  156SAPE    HA17362   2.326   1.719  10.647 -1.7606 -1.3636 -1.9841
  156SAPE    HB17363   2.154   1.748  10.596  0.1086 -1.1341 -0.8229
  156SAPE    C217364   2.289   1.862  10.487  0.2755  0.1474 -0.4924
  156SAPE    HS17365   2.243   1.963  10.484  2.0719  1.0846  1.0647
  156SAPE   O2117366   2.252   1.776  10.381 -0.2914  0.6131 -0.2022
  156SAPE   C2117367   2.127   1.790  10.327  0.6009 -1.2540  0.9328
  156SAPE   O2217368   2.041   1.871  10.359  0.2427 -0.4458  0.1345
  156SAPE   C2217369   2.108   1.682  10.214 -1.0052  0.6343 -0.7075
  156SAPE   H2R17370   2.202   1.679  10.156  0.8359 -2.4174  2.0970
  156SAPE   H2S17371   2.078   1.594  10.274 -2.1303  1.1242 -0.5248
  156SAPE    C317372   2.439   1.900  10.475 -0.2920 -0.0180 -0.3726
  156SAPE    HX17373   2.484   1.800  10.486  1.0102  0.7377  1.6450
  156SAPE    HY17374   2.456   1.971  10.558 -1.0022 -1.2589  0.8793
  156SAPE   O3117375   2.466   1.959  10.345 -0.6457 -0.3682 -0.2419
  156SAPE   C3117376   2.512   1.872  10.258  0.4761 -0.5094  0.2614
  156SAPE   O3217377   2.531   1.755  10.273 -0.0013  0.1692 -0.0694
  156SAPE   C3217378   2.518   1.949  10.125  0.0864 -0.0869 -0.1329
  156SAPE   H2X17379   2.612   2.006  10.114  1.4630 -2.4208 -1.1419
  156SAPE   H2Y17380   2.440   2.027  10.136 -0.4481 -0.7754  1.2573
  156SAPE   C2317381   1.999   1.717  10.115 -0.1745 -0.0068 -0.0673
  156SAPE   H3R17382   1.904   1.727  10.172  1.1045  0.5634  2.0853
  156SAPE   H3S17383   1.978   1.636  10.041  1.1819  0.9853 -1.6102
  156SAPE   C2417384   2.040   1.847  10.041 -0.2312 -0.0988  0.4104
  156SAPE   H4R17385   2.137   1.840   9.987 -1.4633  1.3793 -2.2019
  156SAPE   H4S17386   2.046   1.933  10.112 -1.6072  0.3300  0.0343
  156SAPE   C2517387   1.932   1.904   9.948  0.3770  0.0573 -0.0090
  156SAPE   H5R17388   1.833   1.921   9.993  0.1054  0.1593 -0.6337
  156SAPE   C2617389   1.950   1.923   9.815 -0.1222 -0.0497  0.1020
  156SAPE   H6R17390   1.858   1.957   9.765  0.0022  0.1931  0.0373
  156SAPE   C2717391   2.073   1.901   9.735 -0.0599 -0.1976  0.6071
  156SAPE   H7R17392   2.162   1.873   9.795 -0.0907 -1.5364  0.0507
  156SAPE   H7S17393   2.090   1.996   9.680  2.0287 -0.9724 -0.1910
  156SAPE   C2817394   2.065   1.783   9.640  0.0693  0.1836  0.1755
  156SAPE   H8R17395   2.081   1.685   9.688 -2.6998 -0.0467  0.8162
  156SAPE   C2917396   2.037   1.777   9.508  0.3234 -0.1686  0.5339
  156SAPE   H9R17397   2.049   1.685   9.450 -1.1320  0.6432 -1.1424
  156SAPE  C21017398   1.998   1.895   9.422 -0.0285 -0.0797 -0.2778
  156SAPE  H10R17399   1.994   1.988   9.483  0.6014 -0.9151  1.0950
  156SAPE  H10S17400   1.889   1.882   9.405 -0.1027  0.4999 -0.2715
  156SAPE  C21117401   2.085   1.927   9.305 -0.0587  0.0673 -0.0096
  156SAPE  H11R17402   2.155   2.009   9.326 -1.3651  1.1281  0.2745
  156SAPE  C21217403   2.068   1.862   9.186 -0.2185  0.1382 -1.0582
  156SAPE  H12R17404   2.132   1.893   9.102 -0.6585  0.1161 -1.4116
  156SAPE  C21317405   1.967   1.751   9.156 -0.1353  0.1208 -0.3375
  156SAPE  H13R17406   1.911   1.760   9.061 -0.5919 -1.0909 -0.1993
  156SAPE  H13S17407   1.884   1.753   9.230 -0.6834 -2.0026 -0.8268
  156SAPE  C21417408   2.044   1.616   9.150  0.0879  0.0751  0.0318
  156SAPE  H14R17409   2.059   1.547   9.234  0.7998 -0.6781 -0.6934
  156SAPE  C21517410   2.083   1.559   9.033 -0.1734 -0.0654 -0.0804
  156SAPE  H15R17411   2.145   1.469   9.025  2.2374  1.2130  2.6457
  156SAPE  C21617412   2.057   1.622   8.896 -0.0818  0.0260 -0.2343
  156SAPE  H16R17413   2.135   1.578   8.830  0.1101 -0.4025  0.2686
  156SAPE  H16S17414   2.081   1.730   8.899  2.3491 -0.4552  0.0106
  156SAPE  C21717415   1.919   1.604   8.825 -0.1941 -0.6758  0.2582
  156SAPE  H17R17416   1.927   1.652   8.725  0.6882 -0.2874  0.5040
  156SAPE  H17S17417   1.844   1.653   8.890 -0.9680  1.4277 -2.0788
  156SAPE  C21817418   1.880   1.451   8.797 -0.0602 -0.0411 -0.2497
  156SAPE  H18R17419   1.852   1.400   8.892 -0.4809  2.9662  1.3694
  156SAPE  H18S17420   1.966   1.398   8.749  0.3545 -1.0178  1.4842
  156SAPE  C21917421   1.764   1.440   8.695 -1.0392 -0.8390 -0.0259
  156SAPE  H19R17422   1.816   1.444   8.596 -2.1724 -3.4640 -0.8176
  156SAPE  H19S17423   1.697   1.528   8.689  0.6834  0.5543  0.2665
  156SAPE  C22017424   1.689   1.309   8.707 -0.0194  0.1313  0.2378
  156SAPE  H20R17425   1.622   1.272   8.626  0.5718 -2.8454  1.0008
  156SAPE  H20S17426   1.631   1.326   8.800 -0.4311 -0.8153  0.1661
  156SAPE  H20T17427   1.765   1.229   8.720 -0.8290 -0.3279  2.4665
  156SAPE   C3317428   2.479   1.861  10.007  0.3820  0.1547 -0.1093
  156SAPE   H3X17429   2.378   1.814  10.015 -0.3249  1.6244 -0.1353
  156SAPE   H3Y17430   2.557   1.783   9.995  1.6634  1.4030 -0.1122
  156SAPE   C3417431   2.483   1.937   9.874  0.0815  0.7305 -0.4365
  156SAPE   H4X17432   2.584   1.983   9.866  0.3175  0.0581 -1.6368
  156SAPE   H4Y17433   2.409   2.019   9.874 -0.2459  0.4951  2.1530
  156SAPE   C3517434   2.464   1.845   9.751 -0.9351  0.6937 -0.5152
  156SAPE   H5X17435   2.370   1.787   9.763  0.0188 -0.7706  0.1733
  156SAPE   H5Y17436   2.536   1.762   9.738  0.9803  1.9498  1.4109
  156SAPE   C3617437   2.452   1.910   9.614  0.1282 -0.2127 -0.2884
  156SAPE   H6X17438   2.406   2.008   9.637 -1.6612 -1.3467  1.2228
  156SAPE   H6Y17439   2.372   1.856   9.560 -0.8374 -0.4520  1.3253
  156SAPE   C3717440   2.589   1.907   9.545  0.0271  0.4781  0.0495
  156SAPE   H7X17441   2.628   1.803   9.543 -1.3571 -0.0480 -1.7145
  156SAPE   H7Y17442   2.663   1.963   9.607  0.6658  0.0635 -0.3161
  156SAPE   C3817443   2.592   1.960   9.403  0.5035 -0.4366 -0.8469
  156SAPE   H8X17444   2.692   1.996   9.369 -0.7702  2.7771 -1.5531
  156SAPE   H8Y17445   2.530   2.052   9.392 -1.0566 -1.5590 -1.8389
  156SAPE   C3917446   2.527   1.865   9.302 -0.1385  0.2316 -0.0407
  156SAPE   H9X17447   2.426   1.838   9.340 -0.3815  0.9823 -0.1330
  156SAPE   H9Y17448   2.589   1.776   9.282  0.2329  0.4646  0.0682
  156SAPE  C31017449   2.523   1.934   9.165  0.2683  0.3933 -0.1932
  156SAPE  H10X17450   2.622   1.976   9.135  0.5856  0.0286  0.3197
  156SAPE  H10Y17451   2.452   2.018   9.171  0.0143  0.1563  0.1715
  156SAPE  C31117452   2.479   1.838   9.050 -0.4549 -0.7405  0.4452
  156SAPE  H11X17453   2.373   1.812   9.071  0.0759 -1.3191  2.7426
  156SAPE  H11Y17454   2.527   1.738   9.058 -0.4975 -0.7345  0.8296
  156SAPE  C31217455   2.500   1.886   8.903 -1.0784 -0.4967 -0.5178
  156SAPE  H12X17456   2.528   1.803   8.835  1.1767  0.9707 -1.4931
  156SAPE  H12Y17457   2.586   1.956   8.909 -1.9898  0.5260  1.7627
  156SAPE  C31317458   2.377   1.960   8.845  0.3134  0.2474  0.8493
  156SAPE  H13X17459   2.305   1.877   8.828  0.8717 -0.5652  2.3098
  156SAPE  H13Y17460   2.416   1.983   8.743 -0.9040 -0.5412  0.1884
  156SAPE  C31417461   2.300   2.078   8.909  0.3713  1.2048 -0.9592
  156SAPE  H14X17462   2.378   2.154   8.932  2.2496 -0.3322 -1.9251
  156SAPE  H14Y17463   2.244   2.042   8.998  3.2193 -2.0227 -0.2966
  156SAPE  C31517464   2.187   2.122   8.809 -0.8302  0.1959 -0.5088
  156SAPE  H15X17465   2.114   2.039   8.797  0.5953 -1.2696  0.5091
  156SAPE  H15Y17466   2.243   2.152   8.719  3.6052 -0.3468  1.8026
  156SAPE  C31617467   2.104   2.241   8.855  0.2937 -0.1239  0.4077
  156SAPE  H16X17468   2.183   2.316   8.877  0.1549  0.5468 -1.2361
  156SAPE  H16Y17469   2.038   2.208   8.938 -2.2082  1.0524 -0.9906
  156SAPE  C31717470   2.009   2.296   8.743  0.5396 -0.5309 -0.1053
  156SAPE  H17X17471   1.938   2.366   8.793  0.6481 -0.9315  0.6171
  156SAPE  H17Y17472   1.947   2.210   8.709  0.1303 -0.0938 -0.4685
  156SAPE  C31817473   2.089   2.357   8.626  0.4081 -0.0752  0.7946
  156SAPE  H18X17474   2.131   2.454   8.662  3.1914 -1.5174  1.7180
  156SAPE  H18Y17475   2.030   2.387   8.537 -1.9184 -2.8127  1.2747
  156SAPE  H18Z17476   2.166   2.285   8.593 -0.9464 -0.7398 -1.0419
  157SAPE     N17477   1.069   3.739  10.782 -0.5342 -0.0875  0.0752
  157SAPE   HN117478   1.157   3.758  10.834 -0.7628  0.5529  0.2300
  157SAPE   HN217479   1.000   3.704  10.852 -0.0373 -0.1102  0.5596
  157SAPE   HN317480   1.102   3.670  10.712  1.3294  0.1245  0.6940
  157SAPE   C1217481   1.025   3.863  10.700  0.2382  0.3646 -0.1920
  157SAPE  H12A17482   1.113   3.891  10.638 -1.5417  0.9659 -2.6073
  157SAPE  H12B17483   0.992   3.942  10.771  1.4141  0.2001  0.5708
  157SAPE   C1117484   0.914   3.826  10.597  0.3513 -0.0825  0.3681
  157SAPE  H11A17485   0.932   3.723  10.559 -1.0781  0.1197 -0.9675
  157SAPE  H11B17486   0.914   3.896  10.510 -0.3132  0.2486  0.6310
  157SAPE     P17487   0.704   3.703  10.705  0.3639 -0.2798  0.0839
  157SAPE   O1317488   0.764   3.619  10.804 -0.1433  0.2088 -0.1397
  157SAPE   O1417489   0.563   3.742  10.728 -0.6771 -0.5212 -0.0003
  157SAPE   O1217490   0.791   3.825  10.659 -0.0609 -0.3416 -0.2877
  157SAPE   O1117491   0.703   3.610  10.576  0.0620 -0.0488 -0.7904
  157SAPE    C117492   0.610   3.634  10.472  0.0054  0.3198 -0.4138
  157SAPE    HA17493   0.521   3.568  10.482 -0.6812  1.2731 -0.0966
  157SAPE    HB17494   0.567   3.736  10.475  0.1542  0.3650  2.1644
  157SAPE    C217495   0.663   3.637  10.326  0.5871 -0.1191 -0.4099
  157SAPE    HS17496   0.707   3.535  10.314  2.8138  0.8713 -1.2868
  157SAPE   O2117497   0.768   3.733  10.307  0.9396 -0.6290 -0.8355
  157SAPE   C2117498   0.863   3.705  10.223  0.4955  0.1712  0.3614
  157SAPE   O2217499   0.881   3.602  10.161 -0.0792  0.5871 -0.2475
  157SAPE   C2217500   0.960   3.818  10.191  0.2036 -0.3514  0.6109
  157SAPE   H2R17501   0.953   3.891  10.275  0.1559  0.5017 -0.1120
  157SAPE   H2S17502   1.062   3.775  10.198  0.4680  0.3110  0.9139
  157SAPE    C317503   0.548   3.669  10.240 -0.0695  0.5630 -0.3445
  157SAPE    HX17504   0.509   3.771  10.258  1.1512  1.1398 -0.8617
  157SAPE    HY17505   0.475   3.590  10.269 -0.2209  0.2909 -1.3921
  157SAPE   O3117506   0.590   3.651  10.105  0.3207 -0.3098  0.1371
  157SAPE   C3117507   0.561   3.541  10.036  0.1010  0.0824 -0.2466
  157SAPE   O3217508   0.503   3.446  10.086  0.7669  0.2298  0.4204
  157SAPE   C3217509   0.599   3.561   9.883 -0.5262  0.3335 -0.0420
  157SAPE   H2X17510   0.684   3.632   9.877 -0.2246 -0.1058 -1.3612
  157SAPE   H2Y17511   0.509   3.610   9.840 -1.2677 -1.6584 -0.9392
  157SAPE   C2317512   0.941   3.880  10.049  0.5045  0.8712  0.4787
  157SAPE   H3R17513   0.987   3.982  10.045 -0.9048  1.5612  1.1517
  157SAPE   H3S17514   0.832   3.897  10.036  0.2524 -0.4981  0.6431
  157SAPE   C2417515   1.001   3.793   9.939  0.0702  0.3767  0.0096
  157SAPE   H4R17516   0.970   3.686   9.941  2.4949 -0.3841  0.3738
  157SAPE   H4S17517   1.112   3.786   9.947  0.0339  1.6143  2.1567
  157SAPE   C2517518   0.958   3.866   9.812  0.0755 -0.5241 -0.0163
  157SAPE   H5R17519   0.850   3.870   9.792  0.6460 -1.2524 -3.9074
  157SAPE   C2617520   1.042   3.921   9.718  0.5809  0.5156 -0.1060
  157SAPE   H6R17521   0.994   3.974   9.634  1.1743 -0.0763 -0.8391
  157SAPE   C2717522   1.185   3.925   9.723 -0.2686  0.2995  0.4681
  157SAPE   H7R17523   1.221   3.930   9.828 -1.2449 -1.4683  0.9411
  157SAPE   H7S17524   1.211   4.021   9.675 -3.4559 -0.0904 -2.3405
  157SAPE   C2817525   1.244   3.803   9.645 -0.1598 -0.0786 -0.2954
  157SAPE   H8R17526   1.243   3.714   9.709 -0.6106 -0.4573 -0.8164
  157SAPE   C2917527   1.299   3.803   9.520 -0.8477  0.1348 -0.5813
  157SAPE   H9R17528   1.333   3.702   9.494 -1.5588 -0.8496  1.9825
  157SAPE  C21017529   1.295   3.914   9.417 -0.4098  0.0261  0.2109
  157SAPE  H10R17530   1.361   3.998   9.448  1.7780  0.1401 -4.1013
  157SAPE  H10S17531   1.193   3.955   9.432  0.3644  2.0120  0.3959
  157SAPE  C21117532   1.317   3.889   9.269 -0.1396  0.0128 -0.6563
  157SAPE  H11R17533   1.373   3.800   9.236 -0.9241 -1.6172  2.1348
  157SAPE  C21217534   1.274   3.969   9.169 -0.2431 -0.2575 -0.1130
  157SAPE  H12R17535   1.281   3.929   9.067  0.2280 -1.8176  0.5010
  157SAPE  C21317536   1.195   4.096   9.186  0.8620  0.5403 -0.0061
  157SAPE  H13R17537   1.266   4.181   9.192 -2.1941  3.2500  0.9883
  157SAPE  H13S17538   1.139   4.108   9.282  1.3668  2.8133  0.0709
  157SAPE  C21417539   1.107   4.104   9.069  0.0391 -0.2223  1.0744
  157SAPE  H14R17540   1.005   4.064   9.083 -0.7836  1.2440 -0.4211
  157SAPE  C21517541   1.138   4.167   8.951 -0.1590 -0.9196 -0.3935
  157SAPE  H15R17542   1.079   4.162   8.858  3.3392  1.8276 -3.0632
  157SAPE  C21617543   1.265   4.234   8.916 -0.0378  0.7625  0.8615
  157SAPE  H16R17544   1.345   4.185   8.976  1.9576 -0.6879 -2.6972
  157SAPE  H16S17545   1.256   4.345   8.921 -0.9746  0.8199 -1.1097
  157SAPE  C21717546   1.309   4.214   8.768  0.4315 -0.1632 -0.0823
  157SAPE  H17R17547   1.369   4.305   8.747  0.3843  0.0961  0.8666
  157SAPE  H17S17548   1.221   4.207   8.700  1.2523  1.9225 -1.4711
  157SAPE  C21817549   1.391   4.090   8.741 -0.3059  0.6951  0.8240
  157SAPE  H18R17550   1.326   4.000   8.751 -2.6403  2.4971  3.2741
  157SAPE  H18S17551   1.476   4.087   8.813  0.8024  1.3423 -0.4132
  157SAPE  C21917552   1.452   4.104   8.596  0.8098  0.3125 -0.4381
  157SAPE  H19R17553   1.516   4.017   8.570  1.8779  1.8795 -3.6208
  157SAPE  H19S17554   1.528   4.185   8.602  0.6140  0.3910  2.1866
  157SAPE  C22017555   1.355   4.137   8.478 -0.7171  0.6843  0.4200
  157SAPE  H20R17556   1.324   4.243   8.467 -0.0924  1.0439  1.8818
  157SAPE  H20S17557   1.268   4.073   8.504  0.6852 -2.0842 -1.2534
  157SAPE  H20T17558   1.404   4.101   8.385  2.8499 -2.2458  3.1213
  157SAPE   C3317559   0.629   3.430   9.803  0.1833 -0.1947 -0.3801
  157SAPE   H3X17560   0.535   3.371   9.796  0.9903 -1.6987  0.8399
  157SAPE   H3Y17561   0.699   3.368   9.863 -0.8874  0.4161  1.5950
  157SAPE   C3417562   0.677   3.473   9.663  0.1523 -0.0090 -0.0640
  157SAPE   H4X17563   0.600   3.531   9.608 -1.0177  1.3150  2.7677
  157SAPE   H4Y17564   0.692   3.381   9.602 -3.8497 -1.2628  0.5689
  157SAPE   C3517565   0.828   3.530   9.674  0.6514 -0.3271  0.0076
  157SAPE   H5X17566   0.904   3.452   9.698 -0.2973 -1.3881 -0.3681
  157SAPE   H5Y17567   0.823   3.611   9.750  0.1472 -0.8586  0.5441
  157SAPE   C3617568   0.885   3.594   9.547  0.5793 -0.8913 -0.1204
  157SAPE   H6X17569   0.886   3.524   9.461 -0.4654 -1.3549  0.2217
  157SAPE   H6Y17570   0.986   3.622   9.583 -0.7789  1.1822  2.4526
  157SAPE   C3717571   0.816   3.719   9.494  0.2562  0.7511  0.0477
  157SAPE   H7X17572   0.809   3.793   9.576 -2.8997 -0.8692  1.4165
  157SAPE   H7Y17573   0.711   3.699   9.462  0.6566 -0.2329 -0.6968
  157SAPE   C3817574   0.888   3.776   9.370  0.3728 -0.3794  0.1640
  157SAPE   H8X17575   0.987   3.820   9.395  0.2860 -0.2624  0.3080
  157SAPE   H8Y17576   0.818   3.858   9.341 -0.4346 -1.0412  0.2178
  157SAPE   C3917577   0.909   3.686   9.256 -0.5528 -0.1480 -0.7676
  157SAPE   H9X17578   0.959   3.593   9.290 -1.1946 -1.2039 -2.5718
  157SAPE   H9Y17579   0.979   3.739   9.188  0.3006  1.4386  1.2664
  157SAPE  C31017580   0.776   3.642   9.192  0.1021  0.0790  0.0961
  157SAPE  H10X17581   0.711   3.728   9.163 -0.0948 -1.1396 -3.4931
  157SAPE  H10Y17582   0.717   3.580   9.263  0.3954  0.9223  1.1034
  157SAPE  C31117583   0.801   3.559   9.059 -0.8457 -0.4289  0.2491
  157SAPE  H11X17584   0.704   3.514   9.031 -0.9289  1.1512 -2.2559
  157SAPE  H11Y17585   0.875   3.478   9.076 -1.3264 -0.9215  0.0194
  157SAPE  C31217586   0.851   3.646   8.942  0.1845 -0.1307  0.6840
  157SAPE  H12X17587   0.858   3.579   8.854  0.8541 -0.0585  0.6794
  157SAPE  H12Y17588   0.951   3.692   8.957 -0.8206  2.6995 -0.5601
  157SAPE  C31317589   0.750   3.747   8.897 -0.1154 -0.1620 -0.3021
  157SAPE  H13X17590   0.741   3.816   8.984  4.0635 -1.7876  1.6852
  157SAPE  H13Y17591   0.652   3.701   8.873  0.6278 -1.2298 -1.4159
  157SAPE  C31417592   0.788   3.835   8.767  0.0924 -0.5391 -0.3186
  157SAPE  H14X17593   0.724   3.926   8.769  1.2491  0.4595 -3.5687
  157SAPE  H14Y17594   0.758   3.772   8.680 -0.0197  1.9214 -2.1494
  157SAPE  C31517595   0.940   3.887   8.753 -0.2225  0.1835  0.1384
  157SAPE  H15X17596   1.015   3.809   8.779 -0.9259 -0.6710 -0.3781
  157SAPE  H15Y17597   0.970   3.957   8.833 -1.1994  0.5336  0.2124
  157SAPE  C31617598   0.962   3.951   8.612 -0.9090  0.1006  0.0150
  157SAPE  H16X17599   0.945   3.879   8.529  1.5863 -0.7070  0.1372
  157SAPE  H16Y17600   1.071   3.972   8.603 -0.5075 -2.1386 -0.9655
  157SAPE  C31717601   0.881   4.082   8.587 -0.4118 -0.1147 -0.6641
  157SAPE  H17X17602   0.884   4.141   8.681 -0.4370 -0.7848 -0.2360
  157SAPE  H17Y17603   0.772   4.059   8.583 -0.6337  0.6740  0.4208
  157SAPE  C31817604   0.931   4.172   8.474 -0.4387  0.6007  0.0603
  157SAPE  H18X17605   1.033   4.204   8.502  0.3448 -0.8440 -1.0215
  157SAPE  H18Y17606   0.861   4.257   8.462  1.3589  2.5375  2.3511
  157SAPE  H18Z17607   0.943   4.117   8.378 -1.1376 -1.1115  0.9058
  158SAPE     N17608   1.445   3.644  10.896 -0.2606 -0.3852  0.1718
  158SAPE   HN117609   1.529   3.661  10.956 -2.2003  0.8471  2.7491
  158SAPE   HN217610   1.386   3.730  10.902 -0.0253 -0.2441  0.5332
  158SAPE   HN317611   1.391   3.562  10.932  0.3642 -1.3400 -1.0157
  158SAPE   C1217612   1.481   3.604  10.754 -0.1211  0.3711 -0.4825
  158SAPE  H12A17613   1.507   3.694  10.694 -0.9060  1.2838  0.4937
  158SAPE  H12B17614   1.388   3.556  10.715 -2.1968  2.4891  1.5332
  158SAPE   C1117615   1.595   3.505  10.762  0.0571  0.1734 -0.2828
  158SAPE  H11A17616   1.688   3.557  10.793 -0.5548  0.5203  1.0463
  158SAPE  H11B17617   1.622   3.471  10.660  0.3010  0.9667 -0.4897
  158SAPE     P17618   1.550   3.254  10.821  0.2099  0.3976  0.2854
  158SAPE   O1317619   1.675   3.182  10.831 -0.7971 -0.4192 -0.1494
  158SAPE   O1417620   1.443   3.190  10.900 -0.5356  0.0937 -0.8135
  158SAPE   O1217621   1.561   3.405  10.858 -0.3309  0.2747  0.0101
  158SAPE   O1117622   1.512   3.261  10.666  0.7812 -0.1326  0.3297
  158SAPE    C117623   1.370   3.287  10.623 -0.3006  0.0193 -0.0971
  158SAPE    HA17624   1.316   3.357  10.691 -0.2303 -1.0755  1.1285
  158SAPE    HB17625   1.377   3.346  10.530 -0.6258 -0.4463 -0.4216
  158SAPE    C217626   1.289   3.160  10.578 -0.9289  0.8617  0.0159
  158SAPE    HS17627   1.286   3.085  10.660  0.9742  0.9566  0.2093
  158SAPE   O2117628   1.364   3.112  10.464 -0.4723  1.1354  0.2230
  158SAPE   C2117629   1.325   2.987  10.423  0.5527  0.4628  0.3215
  158SAPE   O2217630   1.250   2.913  10.479 -0.1059  0.4110 -1.0539
  158SAPE   C2217631   1.399   2.961  10.299  0.1357  0.7879  0.4735
  158SAPE   H2R17632   1.373   3.048  10.234 -0.1180  0.9322  0.7660
  158SAPE   H2S17633   1.507   2.974  10.319  0.9947  0.6287 -3.3719
  158SAPE    C317634   1.135   3.200  10.541 -1.0412  0.0108 -0.0895
  158SAPE    HX17635   1.092   3.212  10.643 -0.3396  1.5093  0.0696
  158SAPE    HY17636   1.073   3.122  10.493 -1.2885  0.3980 -0.4062
  158SAPE   O3117637   1.124   3.323  10.470 -0.3412  0.3749  0.7017
  158SAPE   C3117638   1.161   3.321  10.341 -0.0895  0.2984  0.2103
  158SAPE   O3217639   1.189   3.221  10.276 -0.3737 -0.2155 -0.8865
  158SAPE   C3217640   1.156   3.465  10.285  0.3974  0.4432 -0.0741
  158SAPE   H2X17641   1.177   3.537  10.367 -1.4548 -1.1832  1.9655
  158SAPE   H2Y17642   1.047   3.473  10.270  0.1036 -1.2312  0.8756
  158SAPE   C2317643   1.366   2.830  10.221  0.5641 -0.5182  0.4019
  158SAPE   H3R17644   1.369   2.744  10.291  1.9625 -0.9426 -0.1366
  158SAPE   H3S17645   1.449   2.806  10.151  0.2682  1.6070 -0.7434
  158SAPE   C2417646   1.235   2.834  10.137  0.3658 -0.4299  0.4093
  158SAPE   H4R17647   1.148   2.844  10.205  1.5307  1.7140  1.7238
  158SAPE   H4S17648   1.212   2.737  10.089 -2.1088  0.2264  0.1453
  158SAPE   C2517649   1.239   2.942  10.029  0.5188  0.2808 -0.0306
  158SAPE   H5R17650   1.202   3.036  10.070  1.0535  0.9080 -0.9467
  158SAPE   C2617651   1.297   2.933   9.911  0.6631  1.0565  0.2426
  158SAPE   H6R17652   1.278   3.008   9.833 -0.0537  2.1753  1.4513
  158SAPE   C2717653   1.367   2.821   9.845 -0.1380  0.0662 -0.9669
  158SAPE   H7R17654   1.434   2.781   9.925  0.6474 -1.1968 -2.2013
  158SAPE   H7S17655   1.438   2.858   9.767  1.0668  1.0944  0.5595
  158SAPE   C2817656   1.282   2.713   9.781 -0.1451  0.2992 -0.2649
  158SAPE   H8R17657   1.206   2.670   9.848  1.7773 -2.0126  0.5652
  158SAPE   C2917658   1.295   2.662   9.655  0.8760 -1.1214  0.6160
  158SAPE   H9R17659   1.224   2.587   9.617  1.1429 -2.0549  1.9087
  158SAPE  C21017660   1.399   2.703   9.556 -0.0839 -0.2621  0.2759
  158SAPE  H10R17661   1.413   2.617   9.487  0.6794 -0.3203  0.4965
  158SAPE  H10S17662   1.495   2.719   9.609 -0.6944 -0.3755  1.4437
  158SAPE  C21117663   1.342   2.827   9.487 -0.3587 -0.5431  0.1843
  158SAPE  H11R17664   1.308   2.909   9.552  1.0274  1.8281 -1.9151
  158SAPE  C21217665   1.317   2.846   9.357 -0.5013 -0.5426 -0.2535
  158SAPE  H12R17666   1.264   2.939   9.333 -1.4953 -0.2621  2.6230
  158SAPE  C21317667   1.366   2.762   9.243 -0.5630 -0.7546  0.2263
  158SAPE  H13R17668   1.273   2.714   9.206 -0.8318  0.5867 -0.8888
  158SAPE  H13S17669   1.436   2.679   9.272 -0.7955 -0.7230  0.9045
  158SAPE  C21417670   1.428   2.851   9.141  0.0927  0.0134  0.6606
  158SAPE  H14R17671   1.465   2.947   9.179 -1.6506  1.5111 -1.1527
  158SAPE  C21517672   1.442   2.818   9.011 -0.0501  0.0038 -0.0905
  158SAPE  H15R17673   1.488   2.893   8.946  1.5933 -0.5009  0.4582
  158SAPE  C21617674   1.387   2.689   8.943  0.4850  0.9275  0.5038
  158SAPE  H16R17675   1.308   2.717   8.869  0.4474 -1.1518 -0.3118
  158SAPE  H16S17676   1.332   2.621   9.012 -0.6394 -0.2073 -1.4104
  158SAPE  C21717677   1.499   2.602   8.884  0.3287 -0.1532  0.1675
  158SAPE  H17R17678   1.561   2.558   8.964  1.9299 -2.5297 -2.2222
  158SAPE  H17S17679   1.547   2.667   8.807  0.6616 -0.5611  0.0281
  158SAPE  C21817680   1.448   2.476   8.814  0.2867  0.1628  0.3522
  158SAPE  H18R17681   1.381   2.493   8.727  0.8566  0.3350 -0.0590
  158SAPE  H18S17682   1.403   2.423   8.900  1.8396 -2.3255 -0.2490
  158SAPE  C21917683   1.559   2.389   8.759  0.6351  0.2781 -0.5671
  158SAPE  H19R17684   1.613   2.328   8.834  0.1770 -1.3706 -1.5273
  158SAPE  H19S17685   1.624   2.451   8.694 -0.2618  1.1883 -0.6188
  158SAPE  C22017686   1.505   2.280   8.660  0.6150  0.7903  0.3098
  158SAPE  H20R17687   1.442   2.205   8.713 -0.1784  0.8782 -0.4897
  158SAPE  H20S17688   1.589   2.221   8.618 -1.0962 -3.1675  1.8977
  158SAPE  H20T17689   1.449   2.328   8.577  1.9869 -1.2379 -1.9365
  158SAPE   C3317690   1.236   3.495  10.151  0.7072  0.4008  0.4791
  158SAPE   H3X17691   1.322   3.425  10.151 -0.8250 -1.5811  0.4910
  158SAPE   H3Y17692   1.269   3.601  10.148 -1.7429  1.2077 -0.5349
  158SAPE   C3417693   1.159   3.448  10.023  0.6112 -0.2646  0.2329
  158SAPE   H4X17694   1.065   3.504  10.005  0.3742 -0.5718  0.5035
  158SAPE   H4Y17695   1.120   3.345  10.033 -0.0537  0.0959  1.6008
  158SAPE   C3517696   1.258   3.459   9.907  0.4635  0.3659 -0.1607
  158SAPE   H5X17697   1.346   3.392   9.918  0.5258  0.5202  0.2992
  158SAPE   H5Y17698   1.289   3.566   9.901  1.1771  0.0809 -2.6397
  158SAPE   C3617699   1.195   3.424   9.778  0.7236 -0.1866  0.2640
  158SAPE   H6X17700   1.118   3.499   9.750  2.0757  1.4276  0.6949
  158SAPE   H6Y17701   1.143   3.326   9.783 -0.2309  0.3724  2.4747
  158SAPE   C3717702   1.290   3.432   9.662 -0.0548  0.0340  0.0627
  158SAPE   H7X17703   1.361   3.347   9.677 -0.9125 -0.2881  3.0281
  158SAPE   H7Y17704   1.352   3.524   9.661 -0.1660  0.1178  0.5201
  158SAPE   C3817705   1.214   3.427   9.529 -0.1779 -0.2874  0.0389
  158SAPE   H8X17706   1.169   3.527   9.507 -2.4521 -1.6960 -2.3796
  158SAPE   H8Y17707   1.138   3.347   9.539 -3.2263  2.1197 -1.6136
  158SAPE   C3917708   1.315   3.395   9.417 -1.1501  0.1900  0.0582
  158SAPE   H9X17709   1.398   3.328   9.449 -0.5352  1.3128  0.8525
  158SAPE   H9Y17710   1.363   3.493   9.401  0.8793 -0.8993 -0.9534
  158SAPE  C31017711   1.246   3.344   9.288 -0.4052 -0.1398 -0.4788
  158SAPE  H10X17712   1.165   3.414   9.258 -0.7940 -0.9952 -1.4902
  158SAPE  H10Y17713   1.207   3.243   9.311  1.6266 -0.9716 -0.5146
  158SAPE  C31117714   1.333   3.341   9.170 -0.4803  0.6063 -0.0591
  158SAPE  H11X17715   1.409   3.259   9.176 -0.4376  0.6796  0.4894
  158SAPE  H11Y17716   1.373   3.443   9.154  1.2101 -0.1197 -0.7055
  158SAPE  C31217717   1.247   3.312   9.045 -0.1042 -0.0833 -0.2679
  158SAPE  H12X17718   1.199   3.407   9.016 -2.7164 -0.9415  0.9446
  158SAPE  H12Y17719   1.163   3.243   9.067 -0.0774 -0.5694 -1.6208
  158SAPE  C31317720   1.339   3.254   8.931  0.0834 -0.1672  0.2963
  158SAPE  H13X17721   1.398   3.169   8.971  0.7602 -0.2661 -0.8383
  158SAPE  H13Y17722   1.415   3.332   8.908  1.0721 -0.7725  1.4466
  158SAPE  C31417723   1.257   3.214   8.809 -0.1278 -0.3633 -0.2618
  158SAPE  H14X17724   1.168   3.165   8.854  0.5786 -1.2439  0.2194
  158SAPE  H14Y17725   1.307   3.142   8.739 -0.5354 -0.1588 -0.7680
  158SAPE  C31517726   1.215   3.340   8.736  0.7755 -0.8160 -0.1074
  158SAPE  H15X17727   1.296   3.395   8.682  0.3177 -0.9208 -0.9270
  158SAPE  H15Y17728   1.164   3.415   8.800 -0.8065 -1.3741 -0.6747
  158SAPE  C31617729   1.112   3.295   8.630 -0.0809  0.0997  0.3878
  158SAPE  H16X17730   1.015   3.285   8.683 -0.4770  0.0862 -0.3333
  158SAPE  H16Y17731   1.138   3.191   8.599  1.0942  0.8631 -1.2843
  158SAPE  C31717732   1.086   3.383   8.504  0.2212  0.2889  0.3951
  158SAPE  H17X17733   1.002   3.335   8.450  1.1957 -0.7078 -0.2909
  158SAPE  H17Y17734   1.177   3.393   8.441  1.3262  1.4000  2.0603
  158SAPE  C31817735   1.058   3.533   8.526 -0.9687  0.3075  0.3923
  158SAPE  H18X17736   1.148   3.576   8.575 -0.0783 -0.2347 -0.7446
  158SAPE  H18Y17737   0.972   3.553   8.595  0.1218  0.5213  1.7324
  158SAPE  H18Z17738   1.036   3.579   8.428 -3.5026 -1.7952 -0.1397
  159SAPE     N17739   5.752   6.609   6.685 -0.6658 -0.4632  0.3254
  159SAPE   HN117740   5.751   6.653   6.591 -1.3382 -0.8859  0.1282
  159SAPE   HN217741   5.831   6.541   6.684 -0.0685  0.2043  0.8837
  159SAPE   HN317742   5.662   6.559   6.699 -0.0799 -1.4489  0.6059
  159SAPE   C1217743   5.777   6.719   6.781 -0.1683  0.4261  0.2021
  159SAPE  H12A17744   5.885   6.742   6.783  0.5228 -2.0234 -2.1930
  159SAPE  H12B17745   5.745   6.681   6.880 -0.8036 -3.4695 -1.2682
  159SAPE   C1117746   5.707   6.849   6.741 -0.5445  0.5690 -0.3609
  159SAPE  H11A17747   5.746   6.928   6.808 -0.5917 -0.1029  0.4688
  159SAPE  H11B17748   5.597   6.846   6.751 -0.5609 -0.1308 -0.6646
  159SAPE     P17749   5.886   6.946   6.565 -0.2723  0.2145 -0.0507
  159SAPE   O1317750   6.000   6.853   6.587 -0.0248 -0.5101 -0.0373
  159SAPE   O1417751   5.892   7.015   6.439 -0.1267 -0.1853 -0.1958
  159SAPE   O1217752   5.742   6.880   6.602  0.1197  0.0015  0.0118
  159SAPE   O1117753   5.904   7.064   6.666 -0.1335  0.1600  0.6052
  159SAPE    C117754   6.030   7.098   6.724 -0.2206  0.0461  0.4845
  159SAPE    HA17755   6.114   7.101   6.652  0.2046 -1.7489  0.8531
  159SAPE    HB17756   6.021   7.202   6.761 -0.2397  0.2900 -0.1989
  159SAPE    C217757   6.078   7.009   6.841  0.9050  0.7650 -0.0734
  159SAPE    HS17758   6.076   6.902   6.810  1.3121  0.7969 -0.2229
  159SAPE   O2117759   5.986   7.028   6.957 -0.5113 -0.5015 -0.1309
  159SAPE   C2117760   5.958   6.923   7.026 -0.2029  0.3135 -0.1706
  159SAPE   O2217761   5.989   6.807   7.003 -0.0019  0.6224 -0.7533
  159SAPE   C2217762   5.869   6.980   7.145 -0.1695  0.3965  0.4476
  159SAPE   H2R17763   5.822   7.074   7.110 -0.3518 -0.0042 -0.3985
  159SAPE   H2S17764   5.787   6.907   7.163 -1.5993  1.7877 -0.1412
  159SAPE    C317765   6.228   7.038   6.889 -0.5341  0.7441  0.1341
  159SAPE    HX17766   6.239   7.144   6.919  2.3975  0.0205  2.0717
  159SAPE    HY17767   6.304   7.021   6.810 -0.7697  0.4370 -0.0297
  159SAPE   O3117768   6.257   6.962   7.008 -0.3770 -0.2970  0.4885
  159SAPE   C3117769   6.335   6.854   6.987 -0.1334  0.3440 -0.2333
  159SAPE   O3217770   6.369   6.818   6.872 -0.3922  0.0107 -0.0468
  159SAPE   C3217771   6.370   6.787   7.116  0.0039  0.4148 -0.2490
  159SAPE   H2X17772   6.453   6.715   7.104  1.2950  2.0648 -1.8655
  159SAPE   H2Y17773   6.273   6.744   7.150  0.6230  1.3974  3.1024
  159SAPE   C2317774   5.944   6.997   7.282  0.5772  0.4370 -0.5376
  159SAPE   H3R17775   5.882   7.058   7.352  2.2187  0.1253  1.2628
  159SAPE   H3S17776   6.031   7.062   7.259 -0.1002  1.7416  0.4014
  159SAPE   C2417777   5.989   6.867   7.340  0.4305 -0.2066 -0.3436
  159SAPE   H4R17778   6.061   6.904   7.415  0.5642  4.1352 -2.2857
  159SAPE   H4S17779   6.040   6.811   7.258 -1.5420 -0.9781 -1.1166
  159SAPE   C2517780   5.898   6.776   7.416  0.0842 -0.0385  0.1796
  159SAPE   H5R17781   5.878   6.683   7.362 -0.9064 -0.3426  1.0235
  159SAPE   C2617782   5.855   6.784   7.549  0.4211 -0.9714  0.9099
  159SAPE   H6R17783   5.793   6.703   7.590 -0.3407 -0.1456  1.3919
  159SAPE   C2717784   5.877   6.903   7.640  0.1437  0.5931 -0.1523
  159SAPE   H7R17785   5.791   6.899   7.711  1.3517 -1.6549  1.2592
  159SAPE   H7S17786   5.875   6.990   7.570  2.9346  0.1848 -0.8551
  159SAPE   C2817787   6.011   6.893   7.710 -0.0794  0.1503 -0.6168
  159SAPE   H8R17788   6.104   6.883   7.651 -1.0519 -1.0902 -2.0187
  159SAPE   C2917789   6.029   6.905   7.845 -0.7426  0.0960 -0.6233
  159SAPE   H9R17790   6.129   6.887   7.886 -1.4062  2.4131  2.3552
  159SAPE  C21017791   5.926   6.924   7.952 -0.6759 -0.0287 -0.0691
  159SAPE  H10R17792   5.835   6.979   7.918 -0.9832 -0.0680  0.6873
  159SAPE  H10S17793   5.968   6.967   8.045 -1.4061 -1.6308  1.0256
  159SAPE  C21117794   5.874   6.790   8.001 -0.0611 -0.4272  0.8241
  159SAPE  H11R17795   5.914   6.702   7.947  0.5824  0.5061 -0.2608
  159SAPE  C21217796   5.795   6.775   8.110  0.3795  0.2868  0.3244
  159SAPE  H12R17797   5.777   6.672   8.145  0.3341 -0.9263 -2.9194
  159SAPE  C21317798   5.747   6.877   8.205  0.2783  0.1111 -0.4631
  159SAPE  H13R17799   5.642   6.909   8.184  0.2104  2.1043  2.3318
  159SAPE  H13S17800   5.806   6.970   8.188 -1.2181  2.2646  4.4393
  159SAPE  C21417801   5.761   6.845   8.348 -0.6005  0.1763 -0.5074
  159SAPE  H14R17802   5.844   6.776   8.366 -1.3582 -1.0620 -1.6058
  159SAPE  C21517803   5.682   6.885   8.449 -0.1119 -0.0127  0.2938
  159SAPE  H15R17804   5.707   6.852   8.551 -1.7007  1.9882  1.4292
  159SAPE  C21617805   5.566   6.982   8.431 -0.6662  0.4869  0.5719
  159SAPE  H16R17806   5.475   6.924   8.405  0.4610 -1.4137  0.5846
  159SAPE  H16S17807   5.562   7.050   8.343 -2.3844  0.7263  0.8135
  159SAPE  C21717808   5.542   7.069   8.557  0.0020 -0.3360  0.0388
  159SAPE  H17R17809   5.473   7.151   8.530 -0.4714  0.9355  4.3553
  159SAPE  H17S17810   5.637   7.118   8.587  0.0413 -0.8720  0.8163
  159SAPE  C21817811   5.488   6.976   8.676 -0.1687  0.5942  0.0570
  159SAPE  H18R17812   5.565   6.898   8.696  0.1987  0.7349 -0.7686
  159SAPE  H18S17813   5.387   6.936   8.652 -0.1044  0.5042 -0.0679
  159SAPE  C21917814   5.470   7.054   8.803  0.3643  0.0146  0.2316
  159SAPE  H19R17815   5.569   7.102   8.819  1.5933 -2.2816  0.0410
  159SAPE  H19S17816   5.450   6.983   8.886  2.1901 -1.0998 -0.2104
  159SAPE  C22017817   5.377   7.178   8.810 -0.3132  0.3815  0.1332
  159SAPE  H20R17818   5.271   7.150   8.790 -0.6203  0.7390  1.1931
  159SAPE  H20S17819   5.425   7.246   8.737  3.1801  1.5306  3.1929
  159SAPE  H20T17820   5.391   7.228   8.908  1.8003 -0.4428  0.2933
  159SAPE   C3317821   6.407   6.891   7.227  0.4407 -0.0283  0.3243
  159SAPE   H3X17822   6.344   6.982   7.220  1.4338  0.8317  1.9379
  159SAPE   H3Y17823   6.507   6.932   7.201 -0.7632  1.6355 -2.0440
  159SAPE   C3417824   6.392   6.837   7.373 -1.1203 -0.2768 -0.3841
  159SAPE   H4X17825   6.456   6.747   7.366 -2.0365 -0.8067 -3.2070
  159SAPE   H4Y17826   6.289   6.803   7.397 -1.0806 -0.3414 -0.3043
  159SAPE   C3517827   6.447   6.938   7.477  0.5178 -0.0672 -0.7228
  159SAPE   H5X17828   6.534   6.990   7.432 -0.7150  1.3061 -1.6216
  159SAPE   H5Y17829   6.473   6.880   7.568 -1.2339  1.3154  0.7483
  159SAPE   C3617830   6.345   7.046   7.523  0.4684 -0.0557 -0.1020
  159SAPE   H6X17831   6.245   7.005   7.550 -0.5007  1.2832 -1.4706
  159SAPE   H6Y17832   6.328   7.108   7.432 -0.3242  1.5348  1.0790
  159SAPE   C3717833   6.401   7.149   7.626 -0.6917  0.5595 -0.2904
  159SAPE   H7X17834   6.339   7.240   7.643  1.7572  2.2503  0.0220
  159SAPE   H7Y17835   6.498   7.194   7.597  0.9568 -0.6016  2.9735
  159SAPE   C3817836   6.398   7.088   7.768 -0.7700  0.9522  0.4218
  159SAPE   H8X17837   6.474   7.008   7.778 -0.7585  0.9585  0.3817
  159SAPE   H8Y17838   6.303   7.030   7.770 -1.3777  1.8894 -0.4836
  159SAPE   C3917839   6.415   7.197   7.873  0.2275  0.6285 -0.5218
  159SAPE   H9X17840   6.374   7.298   7.848  0.0434  0.4545 -0.9330
  159SAPE   H9Y17841   6.524   7.216   7.880  0.4181 -0.2566 -0.8892
  159SAPE  C31017842   6.368   7.146   8.013 -0.1975  0.1518  0.0046
  159SAPE  H10X17843   6.408   7.044   8.031 -1.1947 -0.9371 -3.2325
  159SAPE  H10Y17844   6.258   7.132   8.019 -0.1173  0.2778  2.5130
  159SAPE  C31117845   6.398   7.251   8.127  1.3313  0.4665 -0.4216
  159SAPE  H11X17846   6.327   7.336   8.119  1.6162  0.8004  0.5666
  159SAPE  H11Y17847   6.502   7.285   8.112  1.1491  1.3554  0.3017
  159SAPE  C31217848   6.394   7.191   8.267 -0.1202 -0.1822  0.2385
  159SAPE  H12X17849   6.431   7.268   8.337 -0.6369  1.2252 -0.9676
  159SAPE  H12Y17850   6.469   7.110   8.253 -1.1678 -0.9703 -1.1757
  159SAPE  C31317851   6.256   7.130   8.297  0.7851  0.5326 -0.2805
  159SAPE  H13X17852   6.244   7.040   8.232 -2.3336  1.2147 -0.7794
  159SAPE  H13Y17853   6.172   7.201   8.284  0.3360  0.3631  1.5289
  159SAPE  C31417854   6.253   7.077   8.444 -0.0817 -0.7881 -0.6088
  159SAPE  H14X17855   6.248   7.167   8.510 -0.3084 -0.2035 -1.4060
  159SAPE  H14Y17856   6.354   7.039   8.471 -0.5842 -1.2036  0.7989
  159SAPE  C31517857   6.142   6.980   8.485  0.3836 -0.1774  0.6736
  159SAPE  H15X17858   6.145   6.885   8.428 -1.6069  0.2408 -0.1989
  159SAPE  H15Y17859   6.055   7.032   8.441  2.0518  1.1341 -1.2661
  159SAPE  C31617860   6.113   6.959   8.634  0.4862 -0.7391 -0.3011
  159SAPE  H16X17861   6.154   7.051   8.681  1.1561  0.9418 -3.8325
  159SAPE  H16Y17862   6.156   6.863   8.670 -0.1945 -1.9160 -2.4733
  159SAPE  C31717863   5.962   6.966   8.670  0.1242  0.1392  0.0996
  159SAPE  H17X17864   5.927   6.861   8.660 -1.6848  0.9487 -3.9852
  159SAPE  H17Y17865   5.908   7.034   8.601 -0.5238  0.3713  0.8208
  159SAPE  C31817866   5.946   7.022   8.814 -0.1559  0.0213  0.6809
  159SAPE  H18X17867   5.840   7.039   8.840 -0.6554  0.0569 -1.2066
  159SAPE  H18Y17868   6.011   7.108   8.839  0.0172  0.2831 -0.5663
  159SAPE  H18Z17869   5.982   6.948   8.889 -0.1173 -0.3080  0.3418
  160SAPE     N17870   5.286   1.659   6.648 -0.1881  0.2153  0.4560
  160SAPE   HN117871   5.204   1.619   6.597  0.2952 -0.1336 -0.0603
  160SAPE   HN217872   5.369   1.627   6.593 -0.8631  1.9470 -1.7383
  160SAPE   HN317873   5.296   1.623   6.745 -1.4952 -2.3751 -0.2664
  160SAPE   C1217874   5.285   1.810   6.649  0.4328  0.2298  0.4300
  160SAPE  H12A17875   5.389   1.846   6.660 -0.2624  2.1233  1.1716
  160SAPE  H12B17876   5.226   1.829   6.742 -1.5660 -1.3149 -0.4372
  160SAPE   C1117877   5.213   1.862   6.528 -1.2146 -0.0336 -0.5294
  160SAPE  H11A17878   5.266   1.836   6.434  1.7745  1.7551  0.5137
  160SAPE  H11B17879   5.224   1.973   6.537  1.9912 -0.1819 -1.6281
  160SAPE     P17880   4.968   1.938   6.487  0.3645  0.2049  0.0692
  160SAPE   O1317881   5.030   2.067   6.490  0.8128  0.0695  0.2412
  160SAPE   O1417882   4.881   1.893   6.375 -0.1721  0.3923 -0.0380
  160SAPE   O1217883   5.074   1.824   6.531 -0.1440  0.0189 -0.4880
  160SAPE   O1117884   4.862   1.949   6.611  0.0136  0.3029 -0.7066
  160SAPE    C117885   4.890   1.892   6.739 -0.5578  0.5137  0.1547
  160SAPE    HA17886   4.820   1.807   6.756 -2.1058  1.6787 -0.0934
  160SAPE    HB17887   4.991   1.846   6.739 -0.1596  1.2882 -1.4252
  160SAPE    C217888   4.856   2.003   6.852  0.0520  0.4214  1.2412
  160SAPE    HS17889   4.913   2.097   6.837  0.3098  0.0190 -0.6651
  160SAPE   O2117890   4.866   1.940   6.983 -0.5535  0.2821 -0.1615
  160SAPE   C2117891   4.987   1.895   7.019 -0.5879  0.4227 -0.3600
  160SAPE   O2217892   5.087   1.904   6.953 -0.1699 -0.4840  0.4225
  160SAPE   C2217893   4.982   1.830   7.152 -0.3703 -0.6102 -0.2210
  160SAPE   H2R17894   5.046   1.879   7.228  0.1127 -1.0011 -0.3686
  160SAPE   H2S17895   4.875   1.820   7.180 -0.8487  0.8359 -1.3942
  160SAPE    C317896   4.707   2.048   6.842 -0.9037  0.0057 -0.5810
  160SAPE    HX17897   4.644   1.957   6.832  1.8952 -2.0993 -0.3862
  160SAPE    HY17898   4.702   2.085   6.737 -0.0106 -1.1466 -1.0524
  160SAPE   O3117899   4.668   2.153   6.934 -0.1865 -0.2048  0.1604
  160SAPE   C3117900   4.549   2.139   7.002  0.1383  0.0240 -0.6778
  160SAPE   O3217901   4.483   2.040   7.016  0.1497 -0.4329  0.0969
  160SAPE   C3217902   4.521   2.270   7.065  1.0533 -0.2499  0.1076
  160SAPE   H2X17903   4.454   2.317   6.990  1.3110 -2.1438 -1.3643
  160SAPE   H2Y17904   4.610   2.337   7.071 -0.5820  1.9634  1.5105
  160SAPE   C2317905   5.018   1.673   7.152  0.5275  0.3654 -0.5072
  160SAPE   H3R17906   5.127   1.667   7.133  0.7503 -2.1300  1.0012
  160SAPE   H3S17907   4.961   1.619   7.073 -0.0626  0.6712 -0.2934
  160SAPE   C2417908   4.997   1.611   7.293 -0.4137  0.6204  0.7803
  160SAPE   H4R17909   4.891   1.602   7.324 -0.4729 -0.0176  0.4053
  160SAPE   H4S17910   5.038   1.691   7.358 -1.3075  0.9572  0.9433
  160SAPE   C2517911   5.058   1.476   7.303 -0.7428 -0.0402  0.4861
  160SAPE   H5R17912   5.037   1.406   7.221  0.0819 -0.2696  0.4555
  160SAPE   C2617913   5.146   1.426   7.395  1.2211 -0.4336  0.6911
  160SAPE   H6R17914   5.164   1.317   7.392 -3.1336 -1.3436  1.0754
  160SAPE   C2717915   5.192   1.492   7.523 -0.0160 -0.3112  0.2783
  160SAPE   H7R17916   5.266   1.571   7.495 -0.5997 -0.0206 -0.4632
  160SAPE   H7S17917   5.252   1.416   7.577  0.8865 -0.2496 -0.6192
  160SAPE   C2817918   5.077   1.544   7.605  0.5359  0.0836 -0.7669
  160SAPE   H8R17919   5.015   1.621   7.557 -0.9254 -0.2958  0.4326
  160SAPE   C2917920   5.038   1.514   7.735 -0.1158 -0.2927 -0.1451
  160SAPE   H9R17921   4.959   1.570   7.786 -1.3190 -0.8710 -1.3027
  160SAPE  C21017922   5.123   1.418   7.811 -0.0654 -0.2462  0.4901
  160SAPE  H10R17923   5.139   1.450   7.917  0.8260  0.8092  0.0606
  160SAPE  H10S17924   5.225   1.409   7.770 -0.5368 -2.7316 -0.3168
  160SAPE  C21117925   5.069   1.279   7.791  0.7639  0.5604 -0.2829
  160SAPE  H11R17926   5.029   1.254   7.692  0.9111  0.3478 -0.2886
  160SAPE  C21217927   5.063   1.181   7.881 -0.3800  0.0016  0.0298
  160SAPE  H12R17928   5.024   1.086   7.842 -2.5370  0.2271  1.4446
  160SAPE  C21317929   5.109   1.189   8.029 -0.3006 -0.0618  1.4421
  160SAPE  H13R17930   5.202   1.248   8.035  0.5675 -0.7351 -2.4021
  160SAPE  H13S17931   5.124   1.088   8.073  1.1532 -0.3427  0.3679
  160SAPE  C21417932   5.005   1.265   8.110 -0.5523  0.1181  0.6386
  160SAPE  H14R17933   4.902   1.232   8.089 -0.7012  1.0474 -0.1688
  160SAPE  C21517934   5.019   1.365   8.202 -0.7635 -0.7717 -1.3706
  160SAPE  H15R17935   4.922   1.400   8.240 -0.3278 -0.4304 -0.5509
  160SAPE  C21617936   5.146   1.430   8.260 -0.2416 -0.3462 -0.3121
  160SAPE  H16R17937   5.219   1.347   8.255  0.2557  0.1394 -1.8091
  160SAPE  H16S17938   5.120   1.468   8.361 -1.8198 -0.6161 -0.5757
  160SAPE  C21717939   5.205   1.539   8.163  0.9401 -1.0819  0.6672
  160SAPE  H17R17940   5.128   1.613   8.132  2.1581 -0.7403 -1.7842
  160SAPE  H17S17941   5.238   1.495   8.067 -0.4958  1.4547 -1.0952
  160SAPE  C21817942   5.307   1.629   8.234  0.6256  0.3788  0.5617
  160SAPE  H18R17943   5.267   1.668   8.331 -0.8843 -2.9835  1.4518
  160SAPE  H18S17944   5.339   1.704   8.159  1.6886 -1.7346 -1.2171
  160SAPE  C21917945   5.424   1.546   8.268  0.3175 -0.3035 -0.2416
  160SAPE  H19R17946   5.459   1.502   8.172  0.0329 -2.6899  0.7038
  160SAPE  H19S17947   5.401   1.457   8.329  1.7409 -1.2337 -0.9849
  160SAPE  C22017948   5.536   1.624   8.340 -0.0040 -1.0283  0.5737
  160SAPE  H20R17949   5.508   1.669   8.437  0.7284  1.9326 -0.4933
  160SAPE  H20S17950   5.573   1.710   8.279  0.5671 -2.4306 -1.1532
  160SAPE  H20T17951   5.618   1.550   8.352  0.4202 -0.8363 -0.9073
  160SAPE   C3317952   4.453   2.252   7.202 -0.2041 -0.2647 -1.0569
  160SAPE   H3X17953   4.384   2.165   7.200 -1.3619  0.6012 -3.3827
  160SAPE   H3Y17954   4.394   2.342   7.230  1.7517 -0.1630  3.4660
  160SAPE   C3417955   4.545   2.234   7.329  0.4138 -0.0201 -0.3968
  160SAPE   H4X17956   4.601   2.330   7.328 -0.2821  0.5058  2.3812
  160SAPE   H4Y17957   4.615   2.149   7.330 -0.0378 -0.4120 -1.1672
  160SAPE   C3517958   4.463   2.242   7.462 -0.3469 -0.0961 -0.0295
  160SAPE   H5X17959   4.382   2.168   7.476 -0.9000  0.2830 -1.0821
  160SAPE   H5Y17960   4.419   2.343   7.477  0.8230  0.5714 -0.8959
  160SAPE   C3617961   4.564   2.227   7.577  0.5358 -0.1801  0.6371
  160SAPE   H6X17962   4.648   2.293   7.548  0.8710 -0.3896  1.1120
  160SAPE   H6Y17963   4.603   2.122   7.580 -0.5608 -0.5966  0.7042
  160SAPE   C3717964   4.521   2.279   7.716  0.2872 -0.1911  0.3065
  160SAPE   H7X17965   4.436   2.220   7.757  1.3440 -1.2600  1.0387
  160SAPE   H7Y17966   4.476   2.378   7.696  0.9736 -0.1038 -0.8732
  160SAPE   C3817967   4.642   2.268   7.812  0.0116  0.3104  0.2642
  160SAPE   H8X17968   4.710   2.352   7.790  1.9893 -1.3135 -0.1141
  160SAPE   H8Y17969   4.698   2.177   7.781  1.9583  1.8246 -0.8294
  160SAPE   C3917970   4.592   2.272   7.955 -0.5252 -0.4131 -0.0662
  160SAPE   H9X17971   4.531   2.180   7.973 -0.2723 -0.2317  1.8851
  160SAPE   H9Y17972   4.537   2.367   7.967  2.0672  0.9828  1.6603
  160SAPE  C31017973   4.708   2.248   8.058 -0.0748 -0.2143  0.6028
  160SAPE  H10X17974   4.797   2.303   8.020 -1.3052  1.3442 -0.1347
  160SAPE  H10Y17975   4.741   2.142   8.053  2.8767  0.6568 -1.3203
  160SAPE  C31117976   4.681   2.288   8.199  0.5707  0.2236  0.0643
  160SAPE  H11X17977   4.595   2.221   8.225 -0.2124 -0.6623 -4.1277
  160SAPE  H11Y17978   4.650   2.394   8.191  2.0338  0.7015  0.5650
  160SAPE  C31217979   4.799   2.268   8.292 -0.8958  0.0856  0.5899
  160SAPE  H12X17980   4.849   2.176   8.254 -1.8678  0.4457 -1.7119
  160SAPE  H12Y17981   4.769   2.279   8.398  0.3673  2.0461  0.8013
  160SAPE  C31317982   4.893   2.390   8.280 -0.1674 -0.3602  0.2607
  160SAPE  H13X17983   4.845   2.472   8.338 -0.9456  0.3392 -1.2844
  160SAPE  H13Y17984   4.902   2.445   8.184  1.3973  1.7903  1.5530
  160SAPE  C31417985   5.037   2.358   8.339  0.3283  0.5368  0.0162
  160SAPE  H14X17986   5.078   2.264   8.295  2.0686  1.3139 -0.1194
  160SAPE  H14Y17987   5.015   2.334   8.445  1.1403  0.5507  0.1946
  160SAPE  C31517988   5.143   2.467   8.344 -0.1435 -0.1461 -0.2094
  160SAPE  H15X17989   5.133   2.550   8.417  2.7068 -0.6141  0.8557
  160SAPE  H15Y17990   5.155   2.518   8.246 -2.9714  1.8548  0.3601
  160SAPE  C31617991   5.275   2.415   8.399  0.1988 -0.3132 -0.1592
  160SAPE  H16X17992   5.355   2.490   8.384  1.6255 -2.1158 -2.2617
  160SAPE  H16Y17993   5.314   2.324   8.349 -0.6154 -1.0244  0.4491
  160SAPE  C31717994   5.267   2.376   8.549 -0.3688 -0.0666  0.1205
  160SAPE  H17X17995   5.370   2.341   8.569 -0.0089 -0.0645 -1.5660
  160SAPE  H17Y17996   5.217   2.278   8.563  1.2787 -0.7243  1.7894
  160SAPE  C31817997   5.210   2.466   8.658 -0.3421 -0.0103  0.1634
  160SAPE  H18X17998   5.122   2.421   8.709 -0.5948 -0.8165 -0.9264
  160SAPE  H18Y17999   5.165   2.559   8.616  1.1533  1.1554  1.0448
  160SAPE  H18Z18000   5.280   2.503   8.735  0.3439  0.5619 -0.7080
  161SAPE     N18001   6.097   6.020   6.383 -0.2148 -0.5300  0.4070
  161SAPE   HN118002   6.065   6.098   6.443 -2.1984 -1.0762  0.1296
  161SAPE   HN218003   6.175   6.038   6.316 -0.7516 -2.0999 -0.6876
  161SAPE   HN318004   6.020   5.988   6.321  1.2284 -1.2824 -1.0739
  161SAPE   C1218005   6.129   5.910   6.469  0.6426  0.0365  0.1641
  161SAPE  H12A18006   6.100   5.818   6.416  0.7787 -1.3209  2.3309
  161SAPE  H12B18007   6.067   5.916   6.561  0.5676 -0.2332  0.1311
  161SAPE   C1118008   6.269   5.908   6.522  0.2402 -0.1889  0.2092
  161SAPE  H11A18009   6.287   5.822   6.590  1.2273 -0.2682 -0.1353
  161SAPE  H11B18010   6.290   6.003   6.575  1.4535  0.7220 -1.7908
  161SAPE     P18011   6.505   5.929   6.412 -0.3471 -0.0046  0.1594
  161SAPE   O1318012   6.589   5.811   6.395  0.0799 -0.2296 -0.1597
  161SAPE   O1418013   6.520   6.028   6.304  0.5076 -0.0041  0.2799
  161SAPE   O1218014   6.356   5.887   6.410  0.4933  0.4182  0.3011
  161SAPE   O1118015   6.531   5.994   6.556  0.4729 -0.5808  0.1896
  161SAPE    C118016   6.654   6.051   6.597  0.6676 -0.2554  0.0717
  161SAPE    HA18017   6.741   5.982   6.606  0.1459 -0.6448  3.7375
  161SAPE    HB18018   6.675   6.138   6.532 -0.6079  0.9186  1.1597
  161SAPE    C218019   6.633   6.112   6.742  0.2190  0.0780 -0.0598
  161SAPE    HS18020   6.728   6.152   6.783 -1.9290  1.0982  4.5875
  161SAPE   O2118021   6.585   6.013   6.837 -0.1309 -0.0553  0.1731
  161SAPE   C2118022   6.671   5.921   6.868  0.1935  0.3513  0.7394
  161SAPE   O2218023   6.791   5.916   6.843  0.1729 -0.7945 -0.6604
  161SAPE   C2218024   6.598   5.803   6.939  0.2693 -0.2706 -0.2927
  161SAPE   H2R18025   6.679   5.728   6.956  0.7850  0.3865  0.2176
  161SAPE   H2S18026   6.568   5.850   7.035  0.0213 -1.7912  0.4147
  161SAPE    C318027   6.524   6.224   6.727  0.1401 -0.5403  0.3359
  161SAPE    HX18028   6.424   6.179   6.741 -0.2117 -0.3047 -1.3003
  161SAPE    HY18029   6.540   6.274   6.629  1.0994 -2.0020 -0.2740
  161SAPE   O3118030   6.537   6.317   6.840 -0.0504 -0.0271 -0.1874
  161SAPE   C3118031   6.594   6.436   6.815 -0.6285 -0.5807 -0.1246
  161SAPE   O3218032   6.613   6.486   6.709  0.0848 -0.5615 -0.1147
  161SAPE   C3218033   6.648   6.494   6.948  0.0767  0.3944 -0.8396
  161SAPE   H2X18034   6.695   6.411   7.004 -0.0933 -0.0265 -1.3195
  161SAPE   H2Y18035   6.556   6.524   7.002 -0.0522 -1.7962  0.2695
  161SAPE   C2318036   6.489   5.727   6.861 -0.5321 -0.3417 -0.6100
  161SAPE   H3R18037   6.539   5.675   6.776  0.7464 -1.6249  0.8507
  161SAPE   H3S18038   6.412   5.793   6.816 -0.7153  0.8925  1.4005
  161SAPE   C2418039   6.401   5.640   6.953 -0.1892 -0.0328  0.1184
  161SAPE   H4R18040   6.306   5.615   6.901  0.3372 -0.9229 -0.4465
  161SAPE   H4S18041   6.366   5.710   7.032 -2.1004 -0.6868 -0.0929
  161SAPE   C2518042   6.469   5.518   7.007  0.0276  0.2404 -0.4784
  161SAPE   H5R18043   6.491   5.438   6.934  1.9315 -0.4999  0.8355
  161SAPE   C2618044   6.496   5.487   7.133 -0.0677 -0.2114  0.3538
  161SAPE   H6R18045   6.553   5.396   7.156 -0.5022 -0.5346  0.1681
  161SAPE   C2718046   6.462   5.568   7.255  0.4433 -0.3526  0.0297
  161SAPE   H7R18047   6.400   5.494   7.309 -1.0207 -0.5564 -1.8333
  161SAPE   H7S18048   6.405   5.660   7.226  1.1507 -0.5036 -1.9917
  161SAPE   C2818049   6.600   5.610   7.310  0.5865 -0.5548 -0.7843
  161SAPE   H8R18050   6.655   5.674   7.240 -0.7486 -2.2030 -3.5343
  161SAPE   C2918051   6.651   5.584   7.430 -0.5725 -0.4449  0.7622
  161SAPE   H9R18052   6.751   5.627   7.446 -0.6477 -0.2268  0.6496
  161SAPE  C21018053   6.592   5.499   7.544 -0.3217 -0.1503  0.3853
  161SAPE  H10R18054   6.484   5.523   7.549 -0.1810  0.7321 -0.3795
  161SAPE  H10S18055   6.623   5.530   7.646 -1.5676  0.6687  0.5420
  161SAPE  C21118056   6.608   5.351   7.514 -0.1553  0.1932 -0.1311
  161SAPE  H11R18057   6.576   5.326   7.412 -1.2011  0.3697  0.1449
  161SAPE  C21218058   6.667   5.262   7.601 -0.3861 -0.2167  0.0663
  161SAPE  H12R18059   6.688   5.160   7.568 -0.8837 -0.9512  1.8628
  161SAPE  C21318060   6.727   5.295   7.730 -0.5083  0.0364 -0.3891
  161SAPE  H13R18061   6.730   5.203   7.792  1.0931  1.8297  2.4433
  161SAPE  H13S18062   6.667   5.359   7.798  1.1332 -1.3494  2.5783
  161SAPE  C21418063   6.868   5.344   7.725 -0.4847 -1.4207 -0.4112
  161SAPE  H14R18064   6.900   5.412   7.645  0.6047 -0.2282  0.9946
  161SAPE  C21518065   6.953   5.358   7.827 -0.5346 -0.2655  0.0532
  161SAPE  H15R18066   7.046   5.414   7.812 -0.1849 -1.4161 -2.5404
  161SAPE  C21618067   6.933   5.319   7.977  0.5925  0.1403 -0.3491
  161SAPE  H16R18068   6.829   5.286   7.998  0.4238  1.4279  1.0015
  161SAPE  H16S18069   6.952   5.409   8.039  1.2221  1.6546 -2.6185
  161SAPE  C21718070   7.032   5.206   8.016 -0.1879  0.0356 -0.1315
  161SAPE  H17R18071   7.128   5.261   8.015 -0.5544  0.6858 -0.8361
  161SAPE  H17S18072   7.045   5.124   7.942 -1.1078  0.1436 -0.4367
  161SAPE  C21818073   6.996   5.160   8.163 -0.4124 -0.0953  0.4743
  161SAPE  H18R18074   6.916   5.083   8.155  0.2461 -0.8326  0.9308
  161SAPE  H18S18075   6.949   5.233   8.232  0.1346  1.3594 -0.6376
  161SAPE  C21918076   7.118   5.101   8.237 -1.1131  0.9365 -0.6448
  161SAPE  H19R18077   7.196   5.180   8.247  0.1394 -0.0730 -1.9709
  161SAPE  H19S18078   7.160   5.023   8.169 -1.2859  0.1094  0.1805
  161SAPE  C22018079   7.076   5.049   8.371 -0.4692  0.0205  0.3775
  161SAPE  H20R18080   7.053   5.142   8.428  1.0347  0.7449 -0.1557
  161SAPE  H20S18081   7.165   5.003   8.419  0.9579 -1.4346 -3.3014
  161SAPE  H20T18082   6.995   4.973   8.372 -0.3478 -0.1533  2.9005
  161SAPE   C3318083   6.751   6.599   6.926 -0.0763 -0.8808  0.4164
  161SAPE   H3X18084   6.700   6.686   6.877 -2.3872 -2.2223  0.2977
  161SAPE   H3Y18085   6.822   6.563   6.849  1.8183 -0.3202  1.8369
  161SAPE   C3418086   6.830   6.638   7.050 -0.3564 -0.1129  1.1645
  161SAPE   H4X18087   6.909   6.711   7.023 -0.8330 -0.4878 -1.4947
  161SAPE   H4Y18088   6.891   6.549   7.078 -0.9217 -0.8418  0.1470
  161SAPE   C3518089   6.743   6.671   7.169  0.1178  0.0060  0.4613
  161SAPE   H5X18090   6.674   6.589   7.199  0.2441  0.6010  2.5234
  161SAPE   H5Y18091   6.674   6.755   7.146 -2.3914 -1.3952  2.3530
  161SAPE   C3618092   6.829   6.709   7.295  0.2028  0.7054  0.0766
  161SAPE   H6X18093   6.897   6.794   7.276 -0.2182  1.5839  2.1898
  161SAPE   H6Y18094   6.894   6.623   7.322  1.1407  0.7348 -1.9125
  161SAPE   C3718095   6.757   6.755   7.420  0.6260  0.0647  0.5975
  161SAPE   H7X18096   6.685   6.677   7.453  1.1663 -1.1714 -1.0096
  161SAPE   H7Y18097   6.689   6.836   7.388 -0.0682 -0.2712  1.1756
  161SAPE   C3818098   6.851   6.793   7.531  0.5913 -0.4289  0.2834
  161SAPE   H8X18099   6.905   6.885   7.497  1.1326 -1.0151 -0.4860
  161SAPE   H8Y18100   6.922   6.711   7.556  0.1395 -1.9572 -2.9329
  161SAPE   C3918101   6.771   6.825   7.657  0.2897 -0.9272 -0.0958
  161SAPE   H9X18102   6.715   6.736   7.691 -0.6446 -1.0865 -1.9766
  161SAPE   H9Y18103   6.696   6.905   7.637  0.5515 -0.2353  1.4781
  161SAPE  C31018104   6.875   6.873   7.772  0.3061 -0.4061 -0.1593
  161SAPE  H10X18105   6.906   6.971   7.730  0.3082 -1.5697 -3.1946
  161SAPE  H10Y18106   6.957   6.798   7.769 -0.8257 -1.6795 -1.0524
  161SAPE  C31118107   6.803   6.879   7.903 -0.2915  0.4946  0.4454
  161SAPE  H11X18108   6.797   6.785   7.962 -1.2470  0.9604  1.1210
  161SAPE  H11Y18109   6.705   6.927   7.885  0.1014  0.7530 -1.1763
  161SAPE  C31218110   6.883   6.975   7.989  0.0094 -0.5180 -0.3457
  161SAPE  H12X18111   6.880   7.073   7.938 -0.4253 -0.2261  0.2222
  161SAPE  H12Y18112   6.990   6.946   7.991  0.5531  1.4110  0.1885
  161SAPE  C31318113   6.826   6.987   8.134 -0.4155 -0.2427 -0.2647
  161SAPE  H13X18114   6.717   7.000   8.117 -0.4659 -1.2920 -0.8123
  161SAPE  H13Y18115   6.875   7.078   8.175 -0.3664 -1.4317  2.5609
  161SAPE  C31418116   6.852   6.862   8.213 -0.0494 -0.6563  0.2657
  161SAPE  H14X18117   6.953   6.823   8.190  0.7916  0.2701  2.1312
  161SAPE  H14Y18118   6.778   6.783   8.186 -0.2353  0.1340 -1.6793
  161SAPE  C31518119   6.843   6.882   8.364 -0.0122  0.6935  0.0071
  161SAPE  H15X18120   6.750   6.935   8.394 -0.3127 -0.6511  1.5689
  161SAPE  H15Y18121   6.916   6.960   8.396  2.1719 -0.7964 -1.0903
  161SAPE  C31618122   6.862   6.756   8.452  0.3263 -0.3194  0.0239
  161SAPE  H16X18123   6.872   6.788   8.558 -0.9942  0.5950 -0.1000
  161SAPE  H16Y18124   6.954   6.700   8.426  2.4043  1.4093  2.9926
  161SAPE  C31718125   6.745   6.665   8.455 -0.0998  0.2554  0.4360
  161SAPE  H17X18126   6.762   6.562   8.493 -1.4885 -0.2648 -0.2926
  161SAPE  H17Y18127   6.716   6.647   8.350 -0.9172 -0.1882  0.7329
  161SAPE  C31818128   6.631   6.735   8.527  0.6604  0.0688  0.0752
  161SAPE  H18X18129   6.600   6.829   8.476 -0.6574  0.0175  0.7292
  161SAPE  H18Y18130   6.648   6.748   8.636 -0.0668  1.0290  0.0868
  161SAPE  H18Z18131   6.536   6.678   8.519  0.3754  0.3551  1.2214
  162SAPE     N18132   5.304   2.776   5.641 -0.9564 -0.2505 -0.6225
  162SAPE   HN118133   5.314   2.872   5.679 -0.9498 -0.5274  0.1089
  162SAPE   HN218134   5.398   2.740   5.618  1.2954  1.8893  3.9847
  162SAPE   HN318135   5.239   2.789   5.561 -2.6314 -1.0308  0.5284
  162SAPE   C1218136   5.234   2.676   5.733 -0.4728 -0.1525 -0.2064
  162SAPE  H12A18137   5.184   2.600   5.669 -2.3973 -0.9954  2.1277
  162SAPE  H12B18138   5.160   2.730   5.795 -1.2125  0.9086 -1.9561
  162SAPE   C1118139   5.342   2.620   5.827  0.9237 -0.1248  0.0854
  162SAPE  H11A18140   5.414   2.556   5.771  0.7264 -0.0584 -0.2505
  162SAPE  H11B18141   5.282   2.544   5.881  1.7668  0.9722  2.7569
  162SAPE     P18142   5.490   2.688   6.031 -0.0814  0.3946  0.1929
  162SAPE   O1318143   5.497   2.541   6.072 -0.1147 -0.1472 -0.4894
  162SAPE   O1418144   5.617   2.748   5.984  0.1482  0.2152 -0.3024
  162SAPE   O1218145   5.394   2.716   5.912  0.4021 -0.0523 -1.0726
  162SAPE   O1118146   5.424   2.777   6.149 -0.5327 -0.1386 -0.1990
  162SAPE    C118147   5.283   2.821   6.132 -0.2707  0.0147  0.3794
  162SAPE    HA18148   5.264   2.903   6.059  0.4247  2.0251  2.3387
  162SAPE    HB18149   5.214   2.738   6.107  0.0370 -1.1291  3.0043
  162SAPE    C218150   5.219   2.869   6.270 -0.0273 -0.1904 -0.1274
  162SAPE    HS18151   5.109   2.856   6.269 -0.0489 -0.0022 -0.2423
  162SAPE   O2118152   5.242   3.010   6.290  0.1240  0.1866 -0.3882
  162SAPE   C2118153   5.156   3.074   6.362  0.4034 -0.0028  0.4794
  162SAPE   O2218154   5.046   3.037   6.400  0.3031  0.1013  0.3660
  162SAPE   C2218155   5.204   3.218   6.395 -0.1126 -0.4108 -0.1494
  162SAPE   H2R18156   5.207   3.273   6.298 -0.1940  0.8989  0.5783
  162SAPE   H2S18157   5.117   3.258   6.452 -0.6898 -1.7486 -0.0493
  162SAPE    C318158   5.274   2.779   6.387  0.3416  0.4548  0.1625
  162SAPE    HX18159   5.382   2.802   6.400  0.1420  0.3192  2.3019
  162SAPE    HY18160   5.260   2.676   6.349  2.7122  0.4307 -0.8712
  162SAPE   O3118161   5.210   2.799   6.512  0.2825 -0.6836 -0.9023
  162SAPE   C3118162   5.255   2.710   6.600  0.2104  0.2616  0.2539
  162SAPE   O3218163   5.356   2.642   6.582  0.2270 -0.2459  0.4190
  162SAPE   C3218164   5.175   2.712   6.726  0.0497  0.4182 -0.8702
  162SAPE   H2X18165   5.133   2.616   6.761  0.6612  1.0172  1.7214
  162SAPE   H2Y18166   5.099   2.793   6.734 -0.5592 -0.2321  0.0889
  162SAPE   C2318167   5.331   3.233   6.478 -0.3675  0.3640 -0.0658
  162SAPE   H3R18168   5.361   3.339   6.471 -0.2286  0.4639  1.7360
  162SAPE   H3S18169   5.413   3.185   6.420 -1.3222 -0.7976 -0.5135
  162SAPE   C2418170   5.319   3.195   6.624  0.3081  0.6667  0.7072
  162SAPE   H4R18171   5.297   3.087   6.639 -0.0880  0.5738 -0.4879
  162SAPE   H4S18172   5.223   3.246   6.645 -1.6089 -0.7293 -3.5642
  162SAPE   C2518173   5.436   3.246   6.700 -0.0299  0.0923 -0.1727
  162SAPE   H5R18174   5.513   3.301   6.645  0.9959 -0.2572  0.8729
  162SAPE   C2618175   5.468   3.216   6.828 -1.1357 -0.0940 -0.0032
  162SAPE   H6R18176   5.554   3.269   6.872 -1.7276  1.0424 -0.1747
  162SAPE   C2718177   5.387   3.138   6.928  0.6592 -0.1457 -0.3138
  162SAPE   H7R18178   5.299   3.083   6.887  1.3560 -0.4335 -1.4610
  162SAPE   H7S18179   5.338   3.211   6.996  0.5942  1.0350 -1.5858
  162SAPE   C2818180   5.453   3.022   6.999  0.0192  0.4085  0.2216
  162SAPE   H8R18181   5.486   2.932   6.945  2.5942  0.4298  1.6096
  162SAPE   C2918182   5.486   3.023   7.130 -0.4493 -0.6335  0.6005
  162SAPE   H9R18183   5.515   2.929   7.180 -0.2142 -0.0350  1.6063
  162SAPE  C21018184   5.470   3.141   7.219  0.0597  0.3523 -0.9648
  162SAPE  H10R18185   5.379   3.126   7.280  1.6246 -2.8681  0.8895
  162SAPE  H10S18186   5.462   3.242   7.175  1.8271 -0.4342 -3.2700
  162SAPE  C21118187   5.590   3.146   7.319  0.8763  0.4537 -0.4005
  162SAPE  H11R18188   5.687   3.172   7.273 -0.9088  4.6728 -2.3820
  162SAPE  C21218189   5.583   3.142   7.449  0.7746 -0.1996  0.4835
  162SAPE  H12R18190   5.676   3.141   7.508  0.6105 -2.1894  0.7894
  162SAPE  C21318191   5.456   3.126   7.533  0.5577 -0.0261  0.1207
  162SAPE  H13R18192   5.477   3.071   7.628 -0.2931  0.6202  0.7011
  162SAPE  H13S18193   5.385   3.066   7.472 -0.1493  0.7802  0.1296
  162SAPE  C21418194   5.389   3.253   7.576  0.0547  0.4909 -0.8264
  162SAPE  H14R18195   5.319   3.305   7.509  1.0046  1.6149 -0.9776
  162SAPE  C21518196   5.419   3.326   7.683  0.1542 -0.8981  0.0816
  162SAPE  H15R18197   5.370   3.422   7.703  0.3324 -0.6428 -0.6625
  162SAPE  C21618198   5.519   3.300   7.784 -0.3275  0.1535  0.4450
  162SAPE  H16R18199   5.552   3.391   7.838 -0.3291 -0.4770  1.5609
  162SAPE  H16S18200   5.609   3.249   7.743  0.0717  1.3896 -0.2577
  162SAPE  C21718201   5.456   3.211   7.890 -0.1960 -0.8134 -0.3047
  162SAPE  H17R18202   5.408   3.121   7.848  1.9440 -2.7553  1.1360
  162SAPE  H17S18203   5.379   3.277   7.936 -1.3696 -1.3399 -1.4585
  162SAPE  C21818204   5.553   3.179   8.002  0.7524 -0.1835  0.3890
  162SAPE  H18R18205   5.596   3.271   8.047  1.2538 -0.1399 -0.1561
  162SAPE  H18S18206   5.645   3.121   7.976  1.8803  1.1194  1.3040
  162SAPE  C21918207   5.474   3.096   8.107  0.3847  0.6143  0.1909
  162SAPE  H19R18208   5.400   3.029   8.060 -1.1206  1.2802  1.5224
  162SAPE  H19S18209   5.418   3.169   8.170  1.6211  1.9126 -0.1512
  162SAPE  C22018210   5.573   3.016   8.187  0.1537  0.5220 -0.2830
  162SAPE  H20R18211   5.530   2.992   8.287 -2.1071  0.7145 -1.1488
  162SAPE  H20S18212   5.667   3.072   8.204 -0.0257  0.4356  1.1692
  162SAPE  H20T18213   5.592   2.922   8.131 -1.3926  1.0241 -1.7383
  162SAPE   C3318214   5.270   2.740   6.849 -0.2750 -0.4929  0.2458
  162SAPE   H3X18215   5.319   2.838   6.833 -0.5274 -0.3810  0.1596
  162SAPE   H3Y18216   5.351   2.664   6.856  0.8151  0.3810 -1.9877
  162SAPE   C3418217   5.186   2.748   6.975 -0.4345  0.0954 -0.4958
  162SAPE   H4X18218   5.116   2.662   6.975 -1.3223  0.7665  1.6387
  162SAPE   H4Y18219   5.117   2.833   6.957 -3.0575 -2.1455 -1.6993
  162SAPE   C3518220   5.263   2.749   7.103 -0.5121 -0.2513  0.6345
  162SAPE   H5X18221   5.369   2.783   7.103 -0.4733 -0.3692  0.6775
  162SAPE   H5Y18222   5.266   2.644   7.140 -2.2125  0.0423  1.6917
  162SAPE   C3618223   5.185   2.833   7.208 -0.6930  0.6296  0.5192
  162SAPE   H6X18224   5.076   2.815   7.206 -0.8185  1.1569  1.9610
  162SAPE   H6Y18225   5.216   2.935   7.179  1.9648 -0.0118  0.8297
  162SAPE   C3718226   5.221   2.798   7.355 -0.1898 -0.2171 -0.1166
  162SAPE   H7X18227   5.187   2.885   7.415 -2.0993 -0.3547 -0.9376
  162SAPE   H7Y18228   5.330   2.784   7.369 -0.5809 -1.0305  2.8273
  162SAPE   C3818229   5.140   2.681   7.406  0.5278  0.3700 -0.0447
  162SAPE   H8X18230   5.174   2.586   7.359  0.2619  0.8364 -1.1941
  162SAPE   H8Y18231   5.033   2.694   7.379  0.0896 -1.0337  0.8536
  162SAPE   C3918232   5.152   2.666   7.557  0.0892 -0.6701 -0.0409
  162SAPE   H9X18233   5.078   2.595   7.600  0.5040 -1.9042 -1.2966
  162SAPE   H9Y18234   5.116   2.763   7.600 -1.2542 -0.7457 -0.9439
  162SAPE  C31018235   5.293   2.653   7.612 -0.2907 -0.1401  0.2402
  162SAPE  H10X18236   5.359   2.731   7.569 -1.2875  0.4811 -0.2089
  162SAPE  H10Y18237   5.340   2.555   7.591  0.1047 -0.0287  0.5867
  162SAPE  C31118238   5.282   2.693   7.755  0.4940 -0.6508 -0.1118
  162SAPE  H11X18239   5.217   2.631   7.820  0.9913  0.9480  2.0533
  162SAPE  H11Y18240   5.240   2.795   7.767  0.8596 -0.1686 -2.4882
  162SAPE  C31218241   5.419   2.710   7.835  0.2449 -0.2440  0.4450
  162SAPE  H12X18242   5.436   2.819   7.844 -2.1898  0.6315 -3.4260
  162SAPE  H12Y18243   5.495   2.656   7.774 -0.8025 -0.6041 -0.5770
  162SAPE  C31318244   5.419   2.625   7.961 -0.1873  0.2291 -0.0941
  162SAPE  H13X18245   5.372   2.527   7.936 -0.3801  0.4238 -0.4885
  162SAPE  H13Y18246   5.354   2.671   8.039 -1.2193  2.4948 -2.1800
  162SAPE  C31418247   5.566   2.599   7.999 -0.0390 -0.8561 -0.5347
  162SAPE  H14X18248   5.612   2.697   8.023 -1.2978  0.7186 -3.8448
  162SAPE  H14Y18249   5.616   2.558   7.909 -1.8088 -1.9985 -1.0493
  162SAPE  C31518250   5.577   2.500   8.115 -0.0664  0.0829 -0.2566
  162SAPE  H15X18251   5.514   2.414   8.085  0.9582 -0.9962  0.5893
  162SAPE  H15Y18252   5.524   2.529   8.209  0.3765 -1.6494  0.5796
  162SAPE  C31618253   5.714   2.443   8.141  0.1869 -0.8905  0.1122
  162SAPE  H16X18254   5.783   2.468   8.057 -1.1054 -0.8019 -0.9575
  162SAPE  H16Y18255   5.711   2.332   8.151 -0.7358 -0.7107  2.3193
  162SAPE  C31718256   5.779   2.476   8.272  0.6146  0.1471  0.4775
  162SAPE  H17X18257   5.863   2.406   8.292  0.2471 -1.0093 -1.6185
  162SAPE  H17Y18258   5.708   2.468   8.356 -1.9556 -0.1479 -1.5936
  162SAPE  C31818259   5.842   2.612   8.277 -0.3342 -0.1278  0.4374
  162SAPE  H18X18260   5.764   2.691   8.281  0.0033  0.2676 -0.5005
  162SAPE  H18Y18261   5.909   2.614   8.188  0.7734 -0.1940  1.2416
  162SAPE  H18Z18262   5.908   2.618   8.367 -0.0777 -1.8108  0.3960
  163SAPE     N18263   5.519   0.084   6.401 -0.6746  0.0319  0.7218
  163SAPE   HN118264   5.579   0.085   6.486 -1.4926 -1.9568  1.3840
  163SAPE   HN218265   5.556   0.006   6.343  0.8669  1.2706 -0.0669
  163SAPE   HN318266   5.538   0.171   6.348  1.7740 -1.1176 -0.4562
  163SAPE   C1218267   5.378   0.083   6.448 -0.4448 -0.1579  0.2027
  163SAPE  H12A18268   5.377  -0.001   6.522  2.0541 -0.5300 -0.1109
  163SAPE  H12B18269   5.309   0.059   6.365 -1.7590 -0.7590  1.4128
  163SAPE   C1118270   5.332   0.212   6.515 -0.6507 -0.0769 -0.4319
  163SAPE  H11A18271   5.233   0.208   6.564 -1.4254  1.1320 -1.8178
  163SAPE  H11B18272   5.323   0.283   6.430  0.4653 -0.6785 -1.0696
  163SAPE     P18273   5.434   0.420   6.640 -0.2865 -0.0017  0.0285
  163SAPE   O1318274   5.569   0.457   6.701 -0.2309  0.4813 -0.0693
  163SAPE   O1418275   5.376   0.502   6.530  0.0705  0.3850 -0.0129
  163SAPE   O1218276   5.436   0.265   6.602 -0.2202  0.2812  0.4728
  163SAPE   O1118277   5.322   0.432   6.749 -0.5454  0.4152  0.0307
  163SAPE    C118278   5.296   0.325   6.839  0.1631  0.2509  0.1331
  163SAPE    HA18279   5.236   0.353   6.928 -0.4078 -2.7387  0.7979
  163SAPE    HB18280   5.248   0.236   6.792 -2.1999  0.7968  1.3278
  163SAPE    C218281   5.419   0.280   6.925  0.0431  0.1228  0.2790
  163SAPE    HS18282   5.494   0.257   6.847 -1.8333 -1.3259 -1.1750
  163SAPE   O2118283   5.372   0.166   6.998 -0.1617  0.1547  0.5572
  163SAPE   C2118284   5.454   0.078   7.048  0.4851 -0.2697 -0.0234
  163SAPE   O2218285   5.572   0.073   7.025  0.3453 -0.1257  0.3776
  163SAPE   C2218286   5.372  -0.012   7.141 -0.8678  0.2163 -0.1054
  163SAPE   H2R18287   5.264  -0.005   7.117 -0.5493  3.0440 -1.0748
  163SAPE   H2S18288   5.412  -0.116   7.137  1.0509  0.8282  1.5345
  163SAPE    C318289   5.484   0.390   7.010 -0.5766 -0.0217  0.0044
  163SAPE    HX18290   5.517   0.475   6.946  1.1561 -1.9083 -1.7555
  163SAPE    HY18291   5.578   0.356   7.058 -0.8334  0.5445  0.9253
  163SAPE   O3118292   5.394   0.424   7.114 -0.4504 -0.1799 -0.2111
  163SAPE   C3118293   5.354   0.556   7.120  0.2511 -0.1765  0.4005
  163SAPE   O3218294   5.402   0.642   7.048 -0.0550  0.5604  0.2013
  163SAPE   C3218295   5.242   0.571   7.219 -0.1928  0.2351  0.0368
  163SAPE   H2X18296   5.277   0.528   7.315  0.1631  0.8519  0.1949
  163SAPE   H2Y18297   5.160   0.512   7.173  0.1518  0.8377 -1.4159
  163SAPE   C2318298   5.388   0.044   7.286 -0.1575  0.0633 -0.2200
  163SAPE   H3R18299   5.305  -0.003   7.344  0.8583 -0.9630  0.4436
  163SAPE   H3S18300   5.381   0.155   7.280  2.7699  0.3054 -0.3688
  163SAPE   C2418301   5.522   0.010   7.358 -0.4693  0.1023  0.3540
  163SAPE   H4R18302   5.512   0.054   7.459  0.3453  0.5849  0.2266
  163SAPE   H4S18303   5.601   0.059   7.298 -0.0617 -0.8419  0.1006
  163SAPE   C2518304   5.554  -0.133   7.358  0.1303  0.2340 -0.3099
  163SAPE   H5R18305   5.592  -0.170   7.261  0.7165 -1.0771  0.3886
  163SAPE   C2618306   5.546  -0.221   7.457  0.0738 -0.4637 -0.7239
  163SAPE   H6R18307   5.559  -0.329   7.437  0.4411 -0.6559  0.4165
  163SAPE   C2718308   5.495  -0.186   7.595  0.8334 -0.2373  0.2491
  163SAPE   H7R18309   5.387  -0.161   7.584  0.5861 -1.6308 -0.6724
  163SAPE   H7S18310   5.536  -0.090   7.634 -0.5820  0.5814 -0.2137
  163SAPE   C2818311   5.502  -0.291   7.698  0.1840  0.0188  0.5837
  163SAPE   H8R18312   5.428  -0.372   7.697  0.7845 -0.5387 -0.3574
  163SAPE   C2918313   5.592  -0.293   7.790 -0.2831  0.3334 -0.4309
  163SAPE   H9R18314   5.587  -0.381   7.855  1.5103 -1.2728 -2.3197
  163SAPE  C21018315   5.715  -0.204   7.811  0.2137 -0.1155  0.0752
  163SAPE  H10R18316   5.717  -0.176   7.918  1.4226  1.5756 -0.3435
  163SAPE  H10S18317   5.700  -0.108   7.757 -1.0489 -1.0947 -1.3894
  163SAPE  C21118318   5.841  -0.273   7.759 -0.1786 -0.2915  0.0036
  163SAPE  H11R18319   5.872  -0.262   7.654 -0.3213 -0.6163 -0.0731
  163SAPE  C21218320   5.914  -0.358   7.829 -0.0830  1.0648 -0.0633
  163SAPE  H12R18321   6.003  -0.406   7.786 -0.1838  1.7304 -1.0421
  163SAPE  C21318322   5.883  -0.399   7.972  0.5609 -0.3462  0.0987
  163SAPE  H13R18323   5.784  -0.449   7.969  1.2844 -2.1029  2.2130
  163SAPE  H13S18324   5.866  -0.307   8.031 -4.7605 -0.8848 -0.1295
  163SAPE  C21418325   5.967  -0.496   8.043  0.3310  0.1387 -0.2080
  163SAPE  H14R18326   5.939  -0.600   8.020  1.1885  0.1423 -1.3064
  163SAPE  C21518327   6.065  -0.468   8.134  0.1054  0.0066  0.6127
  163SAPE  H15R18328   6.111  -0.547   8.197 -2.9971 -0.9848  1.8786
  163SAPE  C21618329   6.101  -0.324   8.164  0.4409 -0.2470 -0.4172
  163SAPE  H16R18330   6.087  -0.256   8.078  1.3176  0.8682  0.3059
  163SAPE  H16S18331   6.210  -0.312   8.180  0.3339  3.6233 -1.6284
  163SAPE  C21718332   6.016  -0.253   8.275 -0.1460 -0.2429 -0.0449
  163SAPE  H17R18333   5.909  -0.261   8.248  0.0124  0.4446 -0.9309
  163SAPE  H17S18334   6.051  -0.147   8.281 -0.5758 -0.1133  0.2149
  163SAPE  C21818335   6.013  -0.328   8.410 -0.3592  0.2703  0.6154
  163SAPE  H18R18336   5.971  -0.429   8.389  2.3770 -0.8439  0.0667
  163SAPE  H18S18337   5.940  -0.271   8.472  0.4289  1.9486  0.0483
  163SAPE  C21918338   6.138  -0.336   8.494  0.2523 -0.0911 -0.0361
  163SAPE  H19R18339   6.218  -0.359   8.420 -0.7666  1.9093 -1.8627
  163SAPE  H19S18340   6.129  -0.421   8.565 -1.6725 -1.2511 -1.5531
  163SAPE  C22018341   6.169  -0.207   8.570 -0.0800 -0.8701 -0.3146
  163SAPE  H20R18342   6.249  -0.219   8.646 -0.2658  0.6705  0.1589
  163SAPE  H20S18343   6.080  -0.169   8.624  2.0137  0.6071  2.4039
  163SAPE  H20T18344   6.209  -0.137   8.494  2.0928 -2.7179 -1.0072
  163SAPE   C3318345   5.192   0.716   7.242 -0.8153 -0.5192  0.4990
  163SAPE   H3X18346   5.100   0.724   7.304 -1.5978 -1.3731 -0.4899
  163SAPE   H3Y18347   5.161   0.755   7.143 -1.0869  0.4874  0.9702
  163SAPE   C3418348   5.298   0.813   7.304 -0.1069 -0.3019  0.0622
  163SAPE   H4X18349   5.245   0.907   7.329  0.2432  0.0276 -0.4268
  163SAPE   H4Y18350   5.369   0.833   7.222  2.1223 -0.3469  1.8931
  163SAPE   C3518351   5.374   0.768   7.437 -0.1851  0.5777  0.0322
  163SAPE   H5X18352   5.441   0.851   7.467  2.4298 -1.2625 -0.4200
  163SAPE   H5Y18353   5.448   0.690   7.412  0.5790  1.4371 -0.4310
  163SAPE   C3618354   5.284   0.721   7.548 -0.1412  0.5905 -0.5133
  163SAPE   H6X18355   5.227   0.633   7.513 -1.4193  0.8489  0.7909
  163SAPE   H6Y18356   5.199   0.789   7.573 -0.2076  1.3828 -2.6708
  163SAPE   C3718357   5.366   0.676   7.676 -0.2526 -0.1317 -0.1416
  163SAPE   H7X18358   5.446   0.753   7.680 -1.1981  0.9410 -1.0595
  163SAPE   H7Y18359   5.422   0.582   7.661 -1.2225 -0.5390 -1.4394
  163SAPE   C3818360   5.279   0.687   7.797 -0.6521  0.1815  0.1215
  163SAPE   H8X18361   5.174   0.655   7.787 -1.2436  1.9495  0.3821
  163SAPE   H8Y18362   5.280   0.796   7.821  0.2186  0.4925 -1.1863
  163SAPE   C3918363   5.354   0.601   7.909  0.0753 -0.4232 -0.2761
  163SAPE   H9X18364   5.462   0.627   7.909 -0.2002  0.8385  0.8469
  163SAPE   H9Y18365   5.353   0.493   7.887  0.9308 -0.5140  0.0955
  163SAPE  C31018366   5.304   0.639   8.050 -0.0413  0.1040  0.0050
  163SAPE  H10X18367   5.193   0.632   8.057 -0.1614  0.6586 -1.1432
  163SAPE  H10Y18368   5.323   0.747   8.040  0.3410 -0.0240 -0.7010
  163SAPE  C31118369   5.359   0.573   8.169  0.6352 -0.8842  0.3325
  163SAPE  H11X18370   5.470   0.586   8.162  0.4652 -0.2904 -2.4221
  163SAPE  H11Y18371   5.336   0.466   8.154 -1.9739 -0.1851 -1.2350
  163SAPE  C31218372   5.317   0.629   8.306  0.5829 -0.1128 -0.5260
  163SAPE  H12X18373   5.339   0.565   8.394  1.7536  1.2146  0.1901
  163SAPE  H12Y18374   5.206   0.633   8.305  0.5512 -0.8149 -0.3613
  163SAPE  C31318375   5.379   0.774   8.333  0.2440  0.1574 -0.5834
  163SAPE  H13X18376   5.349   0.836   8.247  0.9862 -1.2136 -1.8796
  163SAPE  H13Y18377   5.490   0.779   8.330  0.3966 -0.9856  1.2122
  163SAPE  C31418378   5.344   0.837   8.476 -0.1026  0.4932  0.7364
  163SAPE  H14X18379   5.396   0.781   8.556  0.6277  0.4261  0.2307
  163SAPE  H14Y18380   5.236   0.831   8.500 -0.0988 -0.0815  0.6196
  163SAPE  C31518381   5.390   0.984   8.480 -0.3117 -0.1290  0.0921
  163SAPE  H15X18382   5.360   1.038   8.387 -2.3898  0.1706  0.8738
  163SAPE  H15Y18383   5.501   0.980   8.477 -0.1820  1.8860  0.5072
  163SAPE  C31618384   5.333   1.045   8.603  1.1571  0.2009 -1.2222
  163SAPE  H16X18385   5.331   0.974   8.688  0.0996  0.8950 -0.6326
  163SAPE  H16Y18386   5.231   1.081   8.575  1.0917  1.5731  0.5664
  163SAPE  C31718387   5.413   1.162   8.659  0.2672  0.5892  0.1493
  163SAPE  H17X18388   5.521   1.141   8.669  0.4584  2.0156  1.3075
  163SAPE  H17Y18389   5.373   1.191   8.758 -1.5820 -0.3309 -0.2649
  163SAPE  C31818390   5.411   1.278   8.564  0.3317 -0.1160 -0.3792
  163SAPE  H18X18391   5.468   1.252   8.472 -0.1179  0.8820 -0.9631
  163SAPE  H18Y18392   5.439   1.369   8.621  0.7421  0.3608 -1.3167
  163SAPE  H18Z18393   5.305   1.291   8.534 -0.3261  0.2474  1.9617
  164SAPE     N18394   2.270   4.426   5.802  0.1080  0.3696  0.2943
  164SAPE   HN118395   2.365   4.467   5.786  0.4984 -1.2160 -1.9265
  164SAPE   HN218396   2.271   4.332   5.758 -0.8377  0.4252  0.1478
  164SAPE   HN318397   2.212   4.484   5.738  0.1389 -0.1192 -0.1865
  164SAPE   C1218398   2.220   4.398   5.942  0.6336  0.6092  0.2523
  164SAPE  H12A18399   2.278   4.309   5.972  0.2814  0.4196  0.3795
  164SAPE  H12B18400   2.109   4.399   5.950  0.7188 -0.0341  2.0161
  164SAPE   C1118401   2.274   4.507   6.027 -0.0525  0.3974  0.3522
  164SAPE  H11A18402   2.383   4.520   6.009 -0.3370 -0.1854 -2.0738
  164SAPE  H11B18403   2.257   4.481   6.134 -1.3717 -0.2198  0.0119
  164SAPE     P18404   2.111   4.719   6.064 -0.2597  0.0101 -0.1477
  164SAPE   O1318405   2.115   4.854   5.993 -0.2277 -0.2704  0.0915
  164SAPE   O1418406   1.988   4.638   6.069 -1.2571  0.2108  0.7311
  164SAPE   O1218407   2.221   4.635   5.989 -0.1053 -0.0611  0.0115
  164SAPE   O1118408   2.167   4.741   6.208  0.4946  0.3243 -0.0699
  164SAPE    C118409   2.307   4.757   6.233 -0.2852 -0.0525 -0.5729
  164SAPE    HA18410   2.365   4.664   6.215  0.7756  0.7045 -1.1802
  164SAPE    HB18411   2.355   4.831   6.165 -0.0763  0.0714 -0.2964
  164SAPE    C218412   2.329   4.790   6.388 -0.3095  0.3842  0.3047
  164SAPE    HS18413   2.430   4.769   6.429  0.0905  0.4066 -0.6333
  164SAPE   O2118414   2.227   4.718   6.456  0.1781 -0.0474 -0.6680
  164SAPE   C2118415   2.238   4.594   6.468 -0.2435  0.6738 -0.0318
  164SAPE   O2218416   2.334   4.521   6.437  0.6153  0.4755 -0.5328
  164SAPE   C2218417   2.113   4.541   6.538 -0.4343 -0.3586  0.2758
  164SAPE   H2R18418   2.143   4.560   6.644 -0.0909  2.0995 -0.1908
  164SAPE   H2S18419   2.024   4.605   6.521 -0.3051 -0.4792 -0.9086
  164SAPE    C318420   2.310   4.944   6.421 -0.4920  0.1919 -0.2029
  164SAPE    HX18421   2.209   4.966   6.378 -0.6811 -1.9191 -0.9671
  164SAPE    HY18422   2.384   5.003   6.363  1.4861 -0.9713  1.0511
  164SAPE   O3118423   2.306   4.978   6.562 -0.5301 -0.1880 -0.0771
  164SAPE   C3118424   2.428   4.980   6.624 -0.0082 -0.0362 -0.1184
  164SAPE   O3218425   2.539   4.958   6.579  0.1410  0.5044 -0.5996
  164SAPE   C3218426   2.403   5.018   6.768  0.0899  0.5299  0.3348
  164SAPE   H2X18427   2.329   4.949   6.812  0.8589 -0.5722 -0.0578
  164SAPE   H2Y18428   2.360   5.120   6.758  0.2635  0.4337 -1.7210
  164SAPE   C2318429   2.077   4.394   6.508  0.2949  0.3060 -0.1863
  164SAPE   H3R18430   2.158   4.321   6.528 -0.7920 -1.6171 -2.3384
  164SAPE   H3S18431   2.044   4.389   6.402 -1.9632  1.5780  0.3727
  164SAPE   C2418432   1.966   4.342   6.608  0.1483 -0.2796  0.0637
  164SAPE   H4R18433   1.996   4.363   6.713  0.9757  0.8107 -0.3661
  164SAPE   H4S18434   1.958   4.231   6.603  1.1529 -0.2993 -1.9525
  164SAPE   C2518435   1.827   4.407   6.582 -0.3793 -0.5571 -0.6868
  164SAPE   H5R18436   1.810   4.435   6.477  2.4981  0.9837 -0.8484
  164SAPE   C2618437   1.730   4.428   6.674 -0.3324  0.0375  0.4882
  164SAPE   H6R18438   1.632   4.468   6.643  0.1550  0.8914  0.0192
  164SAPE   C2718439   1.727   4.390   6.818  0.1991 -0.4635 -0.1682
  164SAPE   H7R18440   1.719   4.479   6.884  0.6686  0.0699 -0.8122
  164SAPE   H7S18441   1.818   4.340   6.858 -0.4717 -0.9672  0.7777
  164SAPE   C2818442   1.610   4.294   6.856 -0.5481  0.2882  0.3120
  164SAPE   H8R18443   1.533   4.282   6.778 -0.4104 -3.3121  0.5820
  164SAPE   C2918444   1.598   4.213   6.962  0.2750 -0.5680 -0.2294
  164SAPE   H9R18445   1.502   4.159   6.970 -0.9072  1.5704  1.1196
  164SAPE  C21018446   1.687   4.193   7.082  0.3738 -0.3501 -1.0186
  164SAPE  H10R18447   1.786   4.156   7.048  0.7067 -1.9186  1.3863
  164SAPE  H10S18448   1.633   4.122   7.148 -0.0009  0.1111 -0.8170
  164SAPE  C21118449   1.714   4.316   7.162  0.6190 -0.7519  0.3349
  164SAPE  H11R18450   1.790   4.383   7.120 -0.7625  1.4631  1.1992
  164SAPE  C21218451   1.645   4.365   7.266 -0.9799  0.4335 -0.6145
  164SAPE  H12R18452   1.687   4.448   7.324 -0.0078 -0.5934  0.1970
  164SAPE  C21318453   1.527   4.296   7.333  0.1295  0.1409 -0.0919
  164SAPE  H13R18454   1.543   4.297   7.443  0.7445  1.6242 -0.1700
  164SAPE  H13S18455   1.508   4.189   7.309 -0.2480  0.2323 -0.2177
  164SAPE  C21418456   1.403   4.367   7.295 -0.6455  0.1796 -0.7691
  164SAPE  H14R18457   1.365   4.324   7.201 -0.6180 -0.8593 -0.3190
  164SAPE  C21518458   1.330   4.462   7.351 -0.0340 -0.6624 -0.7403
  164SAPE  H15R18459   1.236   4.491   7.301 -1.9681 -0.9305  2.4456
  164SAPE  C21618460   1.363   4.530   7.481 -0.0581  0.1100  0.5278
  164SAPE  H16R18461   1.453   4.479   7.522  2.1146  0.9023 -2.8628
  164SAPE  H16S18462   1.282   4.526   7.556 -0.9838  2.5026 -0.2484
  164SAPE  C21718463   1.395   4.684   7.456 -0.6638  0.6955 -0.4201
  164SAPE  H17R18464   1.492   4.695   7.403 -0.8600 -0.4783 -1.0676
  164SAPE  H17S18465   1.407   4.723   7.559 -3.7403  0.1883  0.2475
  164SAPE  C21818466   1.288   4.766   7.391  0.4664  0.3441  0.2837
  164SAPE  H18R18467   1.186   4.731   7.419  0.0896  0.0274 -1.3597
  164SAPE  H18S18468   1.294   4.757   7.281 -0.2845 -1.5055  0.3472
  164SAPE  C21918469   1.296   4.913   7.428 -0.5896  0.4208  0.1032
  164SAPE  H19R18470   1.262   4.938   7.531  0.1898  0.1317  0.4375
  164SAPE  H19S18471   1.224   4.962   7.359 -0.8925 -1.0143 -0.6375
  164SAPE  C22018472   1.436   4.969   7.408  0.8172  0.4712 -0.1868
  164SAPE  H20R18473   1.472   4.937   7.308 -0.7442 -2.8081  0.1897
  164SAPE  H20S18474   1.505   4.923   7.482 -0.8905 -0.7813  0.6640
  164SAPE  H20T18475   1.440   5.079   7.422  1.9451  0.4384 -0.1370
  164SAPE   C3318476   2.530   5.025   6.846 -0.2055 -0.2702 -0.0735
  164SAPE   H3X18477   2.593   5.103   6.799  1.1215 -1.5411 -0.5088
  164SAPE   H3Y18478   2.586   4.929   6.850 -0.8416 -0.6551 -0.2649
  164SAPE   C3418479   2.517   5.073   6.989 -0.2692  0.7829 -0.7035
  164SAPE   H4X18480   2.453   5.162   7.008  0.5838  1.1024  0.7519
  164SAPE   H4Y18481   2.621   5.103   7.010  1.1640 -3.3900 -0.8583
  164SAPE   C3518482   2.482   4.967   7.089  0.4501  0.3097  0.1217
  164SAPE   H5X18483   2.557   4.886   7.078 -0.8080 -0.9491  0.4518
  164SAPE   H5Y18484   2.383   4.923   7.062  0.7730 -1.3828  1.4963
  164SAPE   C3618485   2.480   5.021   7.232 -0.3174  0.1106  0.1187
  164SAPE   H6X18486   2.396   5.092   7.250 -0.3081  0.3687 -0.8098
  164SAPE   H6Y18487   2.576   5.077   7.240  1.8426 -2.9218 -2.1950
  164SAPE   C3718488   2.470   4.915   7.344 -0.2092 -0.1050 -0.1648
  164SAPE   H7X18489   2.538   4.833   7.315 -1.3624  0.4979 -5.5722
  164SAPE   H7Y18490   2.370   4.867   7.340 -0.9725  1.4717 -1.1238
  164SAPE   C3818491   2.497   4.964   7.485  0.3875 -0.4539  0.5824
  164SAPE   H8X18492   2.437   5.053   7.514  1.7183  0.4104  0.7924
  164SAPE   H8Y18493   2.597   5.008   7.503  0.4936 -0.4195 -0.0846
  164SAPE   C3918494   2.470   4.847   7.590 -0.5032 -0.7582 -0.0577
  164SAPE   H9X18495   2.530   4.883   7.677 -1.2690  0.8094 -0.1515
  164SAPE   H9Y18496   2.518   4.760   7.541 -1.4301  0.6984 -3.8580
  164SAPE  C31018497   2.323   4.827   7.638 -0.2720 -1.1963  0.1498
  164SAPE  H10X18498   2.260   4.783   7.558  1.0744 -1.5087 -0.7793
  164SAPE  H10Y18499   2.286   4.929   7.663  1.4627 -0.6023  0.4742
  164SAPE  C31118500   2.320   4.745   7.770 -0.0148  0.6180 -0.0741
  164SAPE  H11X18501   2.405   4.768   7.837 -0.9089  0.2959  1.2173
  164SAPE  H11Y18502   2.324   4.639   7.736  0.7410 -0.1264  2.1495
  164SAPE  C31218503   2.196   4.774   7.856 -0.4015  0.1928  0.0854
  164SAPE  H12X18504   2.114   4.735   7.793 -1.5925  3.5179 -0.6074
  164SAPE  H12Y18505   2.188   4.885   7.862 -1.5698  0.2929 -2.3850
  164SAPE  C31318506   2.194   4.720   8.008 -0.2930  0.3029  0.5084
  164SAPE  H13X18507   2.236   4.617   8.015 -0.1988  0.3318  0.3833
  164SAPE  H13Y18508   2.095   4.706   8.055 -0.1980  0.4726  0.7647
  164SAPE  C31418509   2.268   4.808   8.114 -0.0618  0.1376 -0.5952
  164SAPE  H14X18510   2.193   4.886   8.139 -1.5269 -1.1237 -0.9488
  164SAPE  H14Y18511   2.360   4.846   8.064  1.4022 -1.8707  0.4389
  164SAPE  C31518512   2.295   4.717   8.235 -0.3871  0.5018  0.3279
  164SAPE  H15X18513   2.327   4.612   8.215  1.9312  1.2667 -0.3600
  164SAPE  H15Y18514   2.195   4.720   8.282 -0.2985  0.3904  0.5253
  164SAPE  C31618515   2.402   4.779   8.326  0.7561 -0.1070 -0.7693
  164SAPE  H16X18516   2.401   4.889   8.314  2.3176 -0.0915 -0.9935
  164SAPE  H16Y18517   2.502   4.741   8.297  1.4740  0.3228  0.9963
  164SAPE  C31718518   2.398   4.756   8.479 -0.5633  0.1577 -0.1021
  164SAPE  H17X18519   2.377   4.648   8.493 -1.6353  0.4465  0.5651
  164SAPE  H17Y18520   2.312   4.813   8.520 -1.1876 -0.9585  0.1649
  164SAPE  C31818521   2.535   4.793   8.552  0.3511 -0.0112  0.0388
  164SAPE  H18X18522   2.614   4.718   8.529 -0.8358 -0.8779 -1.4097
  164SAPE  H18Y18523   2.518   4.770   8.659 -0.5473  0.5417  0.0298
  164SAPE  H18Z18524   2.569   4.898   8.536  0.0121 -0.0766 -1.1854
  165SAPE     N18525   2.048   1.535   6.246 -0.5140  0.3354  0.2900
  165SAPE   HN118526   2.083   1.496   6.336  0.6412  1.0310  0.1554
  165SAPE   HN218527   2.103   1.497   6.166  0.0427  0.7878  0.4502
  165SAPE   HN318528   2.065   1.637   6.235  3.7482 -0.2720 -0.2237
  165SAPE   C1218529   1.902   1.521   6.212  0.8214 -0.7497  0.7153
  165SAPE  H12A18530   1.886   1.598   6.134 -0.2471 -1.0309  0.6432
  165SAPE  H12B18531   1.839   1.540   6.302  1.1131 -0.9259  0.9556
  165SAPE   C1118532   1.876   1.373   6.164  0.0852 -0.8463  0.2656
  165SAPE  H11A18533   1.947   1.354   6.081 -0.5134  5.5384 -2.2815
  165SAPE  H11B18534   1.771   1.372   6.128  0.4808  0.6772 -1.0336
  165SAPE     P18535   1.785   1.196   6.330  0.0902  0.1434  0.6058
  165SAPE   O1318536   1.681   1.162   6.226 -0.0242 -0.0948  0.3565
  165SAPE   O1418537   1.844   1.085   6.399  0.3483  0.1336  0.6028
  165SAPE   O1218538   1.903   1.286   6.276  0.1057 -0.4800  0.2194
  165SAPE   O1118539   1.714   1.291   6.432 -0.7536 -0.4457 -0.1074
  165SAPE    C118540   1.778   1.352   6.543 -0.1957  0.3797 -0.0780
  165SAPE    HA18541   1.888   1.368   6.535 -0.3143  0.4928 -2.0514
  165SAPE    HB18542   1.727   1.447   6.568  1.2063  0.4042  3.2824
  165SAPE    C218543   1.748   1.282   6.680 -0.8044 -0.1039  0.4009
  165SAPE    HS18544   1.759   1.174   6.656  4.0948 -0.3295  2.5343
  165SAPE   O2118545   1.614   1.322   6.722 -0.2841 -0.5985 -0.6994
  165SAPE   C2118546   1.546   1.238   6.788 -0.0111 -0.4243 -0.5381
  165SAPE   O2218547   1.566   1.124   6.817 -1.0048  0.3966  0.0914
  165SAPE   C2218548   1.420   1.310   6.828  0.1226  0.3584  0.6023
  165SAPE   H2R18549   1.448   1.404   6.880 -0.4399  1.5189 -1.0760
  165SAPE   H2S18550   1.369   1.341   6.734 -1.4023 -2.5563  0.3541
  165SAPE    C318551   1.857   1.312   6.788 -0.4270  0.5554  0.0097
  165SAPE    HX18552   1.857   1.422   6.795 -0.6205  1.0867 -4.6748
  165SAPE    HY18553   1.959   1.291   6.748 -1.5005 -3.4111 -1.1859
  165SAPE   O3118554   1.824   1.239   6.910  0.2281 -0.6626 -0.1058
  165SAPE   C3118555   1.874   1.114   6.915  0.2397 -0.3401 -0.4573
  165SAPE   O3218556   1.920   1.055   6.816  0.0878 -0.2761 -0.0422
  165SAPE   C3218557   1.834   1.055   7.055 -0.3630 -0.0281  0.3396
  165SAPE   H2X18558   1.727   1.025   7.056 -0.0225 -1.3428 -0.2802
  165SAPE   H2Y18559   1.872   1.123   7.135  3.0592 -1.1581 -0.1693
  165SAPE   C2318560   1.334   1.225   6.927  0.8597  0.4876  0.4617
  165SAPE   H3R18561   1.386   1.188   7.018 -0.1700 -0.7810  0.5717
  165SAPE   H3S18562   1.291   1.130   6.888 -0.1013  0.5801  1.2537
  165SAPE   C2418563   1.197   1.291   6.968  0.2143 -0.1428 -0.6300
  165SAPE   H4R18564   1.145   1.204   7.014 -0.8129  0.2463 -1.0320
  165SAPE   H4S18565   1.149   1.317   6.871  1.1366 -1.4385 -1.4707
  165SAPE   C2518566   1.212   1.400   7.076 -0.3353 -0.1380 -0.0394
  165SAPE   H5R18567   1.241   1.497   7.035  1.4934 -1.3051 -1.7003
  165SAPE   C2618568   1.203   1.389   7.211  0.2134 -0.2338 -0.1523
  165SAPE   H6R18569   1.233   1.472   7.276  0.2982  0.0704 -0.5750
  165SAPE   C2718570   1.153   1.279   7.299  0.1556  0.2053  0.3816
  165SAPE   H7R18571   1.241   1.233   7.349 -0.5373 -1.8526 -0.1764
  165SAPE   H7S18572   1.094   1.201   7.245 -0.1685  0.7620 -0.0740
  165SAPE   C2818573   1.060   1.341   7.399  0.1379 -0.4657 -0.0090
  165SAPE   H8R18574   0.968   1.389   7.363 -0.1017 -0.9901 -0.1172
  165SAPE   C2918575   1.064   1.315   7.525 -0.3744  0.1829 -0.0045
  165SAPE   H9R18576   0.998   1.369   7.595  1.8685  1.7365  1.0323
  165SAPE  C21018577   1.170   1.238   7.592 -0.6073 -0.2621 -0.8485
  165SAPE  H10R18578   1.270   1.286   7.594 -0.7722  0.1956  2.2880
  165SAPE  H10S18579   1.187   1.143   7.538 -0.5070 -1.2892  0.9144
  165SAPE  C21118580   1.142   1.192   7.733 -0.3230  0.1313  0.4724
  165SAPE  H11R18581   1.126   1.084   7.750 -0.5259  0.4320  2.4943
  165SAPE  C21218582   1.134   1.250   7.852 -0.5061  0.3969 -0.5161
  165SAPE  H12R18583   1.123   1.195   7.947  0.6622 -0.9067 -1.1047
  165SAPE  C21318584   1.159   1.402   7.857  0.3624  0.5976  0.2066
  165SAPE  H13R18585   1.062   1.456   7.863 -0.8622 -1.3721 -0.7269
  165SAPE  H13S18586   1.217   1.451   7.776 -2.4688  3.0992 -0.4959
  165SAPE  C21418587   1.252   1.430   7.972 -0.8147  0.3303 -0.7738
  165SAPE  H14R18588   1.338   1.361   7.976 -0.9890  0.1007 -0.9056
  165SAPE  C21518589   1.243   1.521   8.072  0.2456  0.6639  0.3310
  165SAPE  H15R18590   1.333   1.546   8.129  0.0042  3.1414 -0.2724
  165SAPE  C21618591   1.131   1.621   8.093  0.1697 -0.0561 -0.1093
  165SAPE  H16R18592   1.057   1.613   8.011 -2.0369 -0.4412  1.8231
  165SAPE  H16S18593   1.182   1.719   8.088  0.3808 -0.1170  0.7299
  165SAPE  C21718594   1.059   1.609   8.233  0.5368 -0.4540  0.7879
  165SAPE  H17R18595   1.130   1.627   8.316  1.4546  1.5064 -0.3398
  165SAPE  H17S18596   1.031   1.501   8.235  0.0405 -0.3215  1.2378
  165SAPE  C21818597   0.930   1.691   8.241  0.7657 -0.0494 -0.4500
  165SAPE  H18R18598   0.855   1.665   8.163  1.3622 -0.2674 -0.9575
  165SAPE  H18S18599   0.953   1.799   8.230 -1.3481  0.9029  2.7614
  165SAPE  C21918600   0.856   1.678   8.375  0.3093  0.3204  0.2972
  165SAPE  H19R18601   0.764   1.740   8.373 -0.6011 -0.9736  0.5424
  165SAPE  H19S18602   0.910   1.720   8.462 -0.7774  1.8296  0.2863
  165SAPE  C22018603   0.809   1.537   8.417  0.3606  0.3203  0.5345
  165SAPE  H20R18604   0.733   1.499   8.346 -0.6702 -1.0915  2.3127
  165SAPE  H20S18605   0.765   1.523   8.518  0.2432 -1.1253  0.3080
  165SAPE  H20T18606   0.892   1.463   8.415 -0.4522 -0.5970 -0.7648
  165SAPE   C3318607   1.914   0.924   7.082  0.0384 -0.2917 -0.4947
  165SAPE   H3X18608   2.023   0.946   7.081 -0.0952  0.4739  0.8006
  165SAPE   H3Y18609   1.901   0.860   6.992  0.8834 -1.7295  0.3721
  165SAPE   C3418610   1.873   0.848   7.206 -0.3953  0.1324  0.6730
  165SAPE   H4X18611   1.926   0.751   7.206 -0.6151  0.0125  0.3668
  165SAPE   H4Y18612   1.763   0.831   7.208 -1.1640  3.8808 -1.3973
  165SAPE   C3518613   1.921   0.914   7.339  0.3296  0.4430 -0.0308
  165SAPE   H5X18614   1.890   1.021   7.332  1.1001  0.5864 -2.1353
  165SAPE   H5Y18615   2.032   0.921   7.342  0.4534 -1.1871 -0.1898
  165SAPE   C3618616   1.863   0.839   7.460 -0.9875  0.8266  0.3240
  165SAPE   H6X18617   1.884   0.730   7.452 -1.9404  0.7129 -0.9968
  165SAPE   H6Y18618   1.752   0.842   7.469 -0.9804 -0.0722  0.8645
  165SAPE   C3718619   1.922   0.890   7.592 -0.2781  0.1717  0.1940
  165SAPE   H7X18620   1.890   0.997   7.592  0.6737  0.4600  0.0913
  165SAPE   H7Y18621   2.032   0.897   7.584 -0.1149 -1.8441  0.0517
  165SAPE   C3818622   1.891   0.810   7.711 -0.0680  0.5651 -0.5713
  165SAPE   H8X18623   1.936   0.709   7.698 -0.5377 -0.3233  3.3427
  165SAPE   H8Y18624   1.782   0.800   7.729 -0.2613  0.7265 -1.6339
  165SAPE   C3918625   1.960   0.870   7.835  0.3000 -0.6992  0.4253
  165SAPE   H9X18626   1.955   0.981   7.836  2.5390 -0.5373 -0.5890
  165SAPE   H9Y18627   2.069   0.853   7.848  0.6455  1.3066  0.3658
  165SAPE  C31018628   1.905   0.795   7.961  0.2260  0.2866 -0.4550
  165SAPE  H10X18629   1.902   0.687   7.938  0.7984  0.3724 -0.9859
  165SAPE  H10Y18630   1.806   0.831   7.995 -0.2151 -0.5869 -0.8023
  165SAPE  C31118631   2.006   0.834   8.076  0.0179 -0.6229 -0.3396
  165SAPE  H11X18632   2.000   0.945   8.076 -0.5964 -0.5789  2.7550
  165SAPE  H11Y18633   2.111   0.807   8.050  0.5778  0.7735  0.3733
  165SAPE  C31218634   1.944   0.785   8.205 -0.2904  0.1740  0.3507
  165SAPE  H12X18635   1.934   0.674   8.203 -1.0562  0.2482 -0.4622
  165SAPE  H12Y18636   1.840   0.822   8.216 -0.6523 -0.2410 -1.3570
  165SAPE  C31318637   2.031   0.824   8.327 -0.2100 -0.3249  0.6769
  165SAPE  H13X18638   2.047   0.933   8.338  1.3388 -0.7044  2.8039
  165SAPE  H13Y18639   2.137   0.798   8.307 -0.2176  1.7555 -2.8962
  165SAPE  C31418640   1.979   0.760   8.457  0.2961  0.5215  0.2792
  165SAPE  H14X18641   1.983   0.652   8.431  0.8984  0.5124  0.3979
  165SAPE  H14Y18642   1.875   0.795   8.476  0.7129  2.0609 -0.1174
  165SAPE  C31518643   2.058   0.791   8.586 -0.1533  0.7809  0.3142
  165SAPE  H15X18644   2.139   0.715   8.598 -0.9464  0.0753  1.4389
  165SAPE  H15Y18645   1.999   0.764   8.676  1.1398 -0.4712  0.8416
  165SAPE  C31618646   2.102   0.935   8.595  0.3026 -0.2468  1.4010
  165SAPE  H16X18647   2.018   1.001   8.565  0.7627 -0.2593  0.0368
  165SAPE  H16Y18648   2.188   0.951   8.527 -0.0814  0.7371  1.1292
  165SAPE  C31718649   2.137   0.975   8.731  0.3070  0.1789 -1.3750
  165SAPE  H17X18650   2.081   0.908   8.801  1.1119 -0.3763 -1.2507
  165SAPE  H17Y18651   2.109   1.081   8.750 -0.7576  0.2066 -2.9535
  165SAPE  C31818652   2.284   0.960   8.759 -0.5756 -0.1235  0.1714
  165SAPE  H18X18653   2.334   1.047   8.711  1.1154 -0.5618  1.0646
  165SAPE  H18Y18654   2.316   0.858   8.728  0.5639 -0.1920  1.4838
  165SAPE  H18Z18655   2.310   0.966   8.867 -1.8260 -1.3949  0.5688
  166SAPE     N18656   0.670   3.571   5.972  0.0884 -0.9204 -0.4725
  166SAPE   HN118657   0.757   3.526   5.938  0.2420  0.4625 -2.0175
  166SAPE   HN218658   0.614   3.511   6.036 -1.0960  1.7472  1.1640
  166SAPE   HN318659   0.611   3.583   5.887 -1.3978 -1.3297  0.4622
  166SAPE   C1218660   0.701   3.693   6.045  0.0665 -0.3209 -0.3652
  166SAPE  H12A18661   0.609   3.738   6.089  1.0085  0.7035  0.6409
  166SAPE  H12B18662   0.732   3.771   5.972 -1.8806  2.2613  1.3682
  166SAPE   C1118663   0.802   3.676   6.161  0.2605  0.5997  0.7112
  166SAPE  H11A18664   0.767   3.594   6.227  1.9150 -0.3889  0.4219
  166SAPE  H11B18665   0.820   3.767   6.221  1.9208  1.5432 -1.1015
  166SAPE     P18666   1.025   3.705   6.025 -0.3795 -0.3446  0.2545
  166SAPE   O1318667   0.980   3.689   5.881  0.1325 -0.0363  0.2729
  166SAPE   O1418668   1.026   3.847   6.071 -0.1675  0.3786  0.4676
  166SAPE   O1218669   0.931   3.624   6.119 -0.5542 -0.4960  0.0009
  166SAPE   O1118670   1.172   3.655   6.038  0.3646 -0.1309 -0.3616
  166SAPE    C118671   1.196   3.519   6.080  0.0899  0.3071 -0.1493
  166SAPE    HA18672   1.109   3.454   6.058 -0.7262  2.0552 -2.4948
  166SAPE    HB18673   1.273   3.475   6.013  1.7862 -0.6215  2.2747
  166SAPE    C218674   1.255   3.510   6.222  0.9094  0.0007  0.1806
  166SAPE    HS18675   1.292   3.407   6.243  0.6061  0.2863  2.3663
  166SAPE   O2118676   1.153   3.541   6.322  0.1843 -0.2170 -0.1195
  166SAPE   C2118677   1.057   3.456   6.333  0.3307  0.2171  0.1336
  166SAPE   O2218678   1.035   3.361   6.255 -0.3907 -0.3157  0.1096
  166SAPE   C2218679   0.969   3.488   6.462 -0.0333 -0.3066  0.0155
  166SAPE   H2R18680   0.997   3.583   6.512  3.1462 -1.5388  0.8078
  166SAPE   H2S18681   0.866   3.490   6.419 -0.0364 -0.9761 -0.0171
  166SAPE    C318682   1.376   3.603   6.237  0.2447 -0.8005 -0.7736
  166SAPE    HX18683   1.364   3.702   6.189  2.3549  0.2537  0.6583
  166SAPE    HY18684   1.458   3.547   6.187  1.1389  1.8300 -2.4578
  166SAPE   O3118685   1.418   3.631   6.376 -0.0703 -0.2920  0.4524
  166SAPE   C3118686   1.454   3.524   6.451  0.2186  0.4418 -0.1128
  166SAPE   O3218687   1.482   3.411   6.405  0.7566  0.4598  0.2819
  166SAPE   C3218688   1.457   3.561   6.592  0.1244  0.1920 -0.0320
  166SAPE   H2X18689   1.351   3.584   6.614 -0.8851 -2.0926 -2.0914
  166SAPE   H2Y18690   1.512   3.657   6.602  2.8401 -1.0458 -1.9036
  166SAPE   C2318691   0.977   3.375   6.567 -0.0390 -0.0301  0.3850
  166SAPE   H3R18692   0.993   3.277   6.517 -0.7072  0.0882 -0.0822
  166SAPE   H3S18693   0.877   3.365   6.614 -0.4064 -1.5633 -0.6196
  166SAPE   C2418694   1.097   3.392   6.660  0.0499  0.1413  0.0176
  166SAPE   H4R18695   1.189   3.415   6.604 -0.7234  0.2353 -1.2507
  166SAPE   H4S18696   1.112   3.300   6.721 -0.3695 -0.3254 -0.5611
  166SAPE   C2518697   1.081   3.507   6.751  0.5453  0.4727 -0.6598
  166SAPE   H5R18698   1.091   3.610   6.714  2.9372  0.6254  0.2060
  166SAPE   C2618699   1.095   3.501   6.886 -0.3183  0.7875 -0.1120
  166SAPE   H6R18700   1.107   3.598   6.937  1.8213  0.2674  0.4778
  166SAPE   C2718701   1.109   3.381   6.974 -0.0217 -0.0127  0.3397
  166SAPE   H7R18702   1.066   3.299   6.912 -1.1932  1.1080 -0.3692
  166SAPE   H7S18703   1.038   3.393   7.059  0.4185  0.5498  0.6409
  166SAPE   C2818704   1.249   3.349   7.012  0.4340 -0.5378  0.5672
  166SAPE   H8R18705   1.295   3.278   6.942 -1.3949 -1.3040  0.0715
  166SAPE   C2918706   1.316   3.395   7.121  0.3583  0.6695 -0.0493
  166SAPE   H9R18707   1.420   3.358   7.126  0.4867  1.0720  0.3570
  166SAPE  C21018708   1.258   3.485   7.223 -0.3407  0.2035 -0.1023
  166SAPE  H10R18709   1.164   3.530   7.185 -1.2749 -1.6616 -0.1046
  166SAPE  H10S18710   1.331   3.568   7.231 -1.4348  1.4204 -2.0207
  166SAPE  C21118711   1.235   3.419   7.357 -0.3899  0.1091 -0.0161
  166SAPE  H11R18712   1.131   3.384   7.366  0.0083 -1.5820 -1.4212
  166SAPE  C21218713   1.331   3.398   7.447 -0.9263 -0.7641 -0.0462
  166SAPE  H12R18714   1.312   3.350   7.544 -1.0919 -0.8396 -0.1146
  166SAPE  C21318715   1.469   3.450   7.428  0.0459  0.7598  0.1374
  166SAPE  H13R18716   1.494   3.476   7.323  0.6781 -2.1551 -0.5318
  166SAPE  H13S18717   1.533   3.363   7.454 -0.2999  0.4793  0.0608
  166SAPE  C21418718   1.487   3.558   7.531  0.0201  0.5231 -0.3814
  166SAPE  H14R18719   1.395   3.618   7.535 -0.9544 -0.9512  0.3007
  166SAPE  C21518720   1.589   3.574   7.616  0.3476 -1.3248 -0.1977
  166SAPE  H15R18721   1.587   3.661   7.682  0.2841  0.1739 -2.0895
  166SAPE  C21618722   1.714   3.497   7.620  0.3181 -0.1451  0.1436
  166SAPE  H16R18723   1.792   3.574   7.602 -0.0392  0.0664 -0.5537
  166SAPE  H16S18724   1.721   3.416   7.544  0.6107 -0.2865  0.3228
  166SAPE  C21718725   1.744   3.432   7.760 -0.0937 -0.6470 -0.5137
  166SAPE  H17R18726   1.822   3.353   7.753  1.7191  0.9874  0.3618
  166SAPE  H17S18727   1.649   3.383   7.794 -0.4660 -0.1871 -0.8830
  166SAPE  C21818728   1.798   3.542   7.858 -0.1560  0.5830 -0.0459
  166SAPE  H18R18729   1.711   3.598   7.900 -0.3858  1.4229 -1.5720
  166SAPE  H18S18730   1.875   3.607   7.811  1.6919 -0.6568  1.1441
  166SAPE  C21918731   1.876   3.476   7.973  0.6680 -0.1491  0.4352
  166SAPE  H19R18732   1.906   3.549   8.051  1.6939 -1.1834  1.0480
  166SAPE  H19S18733   1.966   3.439   7.919 -0.7617  0.2731 -2.4192
  166SAPE  C22018734   1.811   3.356   8.042  1.0154 -0.4856 -0.3248
  166SAPE  H20R18735   1.807   3.283   7.958  3.4058  0.2320 -1.1184
  166SAPE  H20S18736   1.707   3.377   8.076  1.4253 -0.0850  0.6900
  166SAPE  H20T18737   1.878   3.321   8.122  0.9913  1.5638  0.6549
  166SAPE   C3318738   1.514   3.437   6.674 -0.4090 -0.5391 -0.0806
  166SAPE   H3X18739   1.615   3.410   6.635 -0.1832  1.2603 -0.8375
  166SAPE   H3Y18740   1.444   3.351   6.663 -0.1225 -0.6670 -1.0325
  166SAPE   C3418741   1.529   3.475   6.819 -0.1688  0.2558  0.1865
  166SAPE   H4X18742   1.537   3.383   6.880 -1.6706  0.2876  0.4681
  166SAPE   H4Y18743   1.432   3.516   6.853  0.1137 -0.5734  2.0913
  166SAPE   C3518744   1.657   3.554   6.842  0.2478  0.3160  0.4973
  166SAPE   H5X18745   1.664   3.646   6.780 -0.7603  0.6460  0.8631
  166SAPE   H5Y18746   1.740   3.491   6.804  0.1405  1.5228 -1.9744
  166SAPE   C3618747   1.671   3.579   6.991 -0.6699  0.0122 -0.4111
  166SAPE   H6X18748   1.660   3.478   7.036  1.4721 -0.5927 -1.1337
  166SAPE   H6Y18749   1.586   3.649   7.009  0.0409  0.7273  0.2348
  166SAPE   C3718750   1.797   3.648   7.034  0.1752 -0.9071  0.5127
  166SAPE   H7X18751   1.825   3.727   6.961 -1.1518 -0.4149  0.5241
  166SAPE   H7Y18752   1.879   3.573   7.036 -0.5399 -1.6955  0.7776
  166SAPE   C3818753   1.785   3.724   7.161 -0.1007 -0.2374 -0.3580
  166SAPE   H8X18754   1.762   3.656   7.246 -1.2585  1.3794  0.6899
  166SAPE   H8Y18755   1.701   3.795   7.147 -1.0467 -1.2527  0.0064
  166SAPE   C3918756   1.910   3.804   7.200 -0.3345  0.0297 -0.2762
  166SAPE   H9X18757   1.905   3.898   7.141  1.1504 -1.2665 -2.6354
  166SAPE   H9Y18758   2.002   3.746   7.177 -1.1257 -1.8248  0.9716
  166SAPE  C31018759   1.914   3.837   7.348 -0.1504  0.4143  0.3511
  166SAPE  H10X18760   2.021   3.857   7.372  0.3672 -1.4927 -0.1864
  166SAPE  H10Y18761   1.887   3.749   7.409 -1.4359  1.8717  1.9818
  166SAPE  C31118762   1.819   3.949   7.389  0.2248 -0.1176  0.1278
  166SAPE  H11X18763   1.713   3.920   7.376  0.2807  0.4250 -2.0307
  166SAPE  H11Y18764   1.836   4.040   7.326  0.7551 -0.3819 -0.1197
  166SAPE  C31218765   1.851   4.005   7.527 -0.2073 -0.2628  0.4951
  166SAPE  H12X18766   1.961   4.019   7.536 -0.3262  2.2761 -0.9071
  166SAPE  H12Y18767   1.816   3.940   7.610 -0.8926  0.4309  0.7582
  166SAPE  C31318768   1.795   4.146   7.542  0.3136 -0.7172  0.2201
  166SAPE  H13X18769   1.685   4.142   7.532  0.4055 -0.5639 -1.0436
  166SAPE  H13Y18770   1.836   4.211   7.461  0.8783 -0.8685  0.3774
  166SAPE  C31418771   1.828   4.222   7.682 -0.2242  0.2504  0.5213
  166SAPE  H14X18772   1.930   4.186   7.707 -1.0566 -1.2964  1.9340
  166SAPE  H14Y18773   1.757   4.192   7.763 -1.0961  2.9416  0.8676
  166SAPE  C31518774   1.824   4.375   7.668 -0.4570 -0.0649 -0.3256
  166SAPE  H15X18775   1.740   4.406   7.602 -0.6987 -0.1403 -0.0559
  166SAPE  H15Y18776   1.924   4.414   7.639 -0.5336  0.0464 -0.4420
  166SAPE  C31618777   1.792   4.436   7.809 -0.1116 -0.1489 -0.0295
  166SAPE  H16X18778   1.806   4.546   7.807 -2.6506  0.2272 -0.4012
  166SAPE  H16Y18779   1.866   4.380   7.870  0.3856 -1.7640 -1.9777
  166SAPE  C31718780   1.652   4.420   7.872 -0.0740 -0.0451  0.1603
  166SAPE  H17X18781   1.640   4.468   7.971 -2.9142 -0.9554  0.3459
  166SAPE  H17Y18782   1.629   4.311   7.872  1.4499 -0.4280 -1.4467
  166SAPE  C31818783   1.544   4.478   7.785  0.1733 -0.1783  0.1281
  166SAPE  H18X18784   1.514   4.401   7.710 -0.9430  0.3312  0.0329
  166SAPE  H18Y18785   1.577   4.569   7.730 -1.9763  0.8331  0.4444
  166SAPE  H18Z18786   1.452   4.499   7.843 -0.0901  1.2438 -0.7506
  167SAPE     N18787   1.959   3.232   6.054  0.0991  0.4447 -0.8958
  167SAPE   HN118788   1.950   3.303   5.978  1.3599  1.2668 -0.3098
  167SAPE   HN218789   1.882   3.164   6.038 -1.5936  1.2742  2.7051
  167SAPE   HN318790   1.942   3.283   6.143  1.3971 -1.0380  0.2689
  167SAPE   C1218791   2.098   3.174   6.034  0.2538  0.2250  0.4859
  167SAPE  H12A18792   2.171   3.258   6.033  1.1323 -0.5019  1.2083
  167SAPE  H12B18793   2.099   3.124   5.935 -0.5085  0.1549  0.5081
  167SAPE   C1118794   2.134   3.073   6.144 -0.2637  0.0275 -0.4806
  167SAPE  H11A18795   2.126   3.126   6.241 -1.5411 -1.2669  0.1481
  167SAPE  H11B18796   2.239   3.039   6.128  0.1482  1.7066 -1.7371
  167SAPE     P18797   2.053   2.853   6.248  0.3455 -0.1827  0.2162
  167SAPE   O1318798   1.959   2.753   6.193 -0.5949 -0.7798 -0.0561
  167SAPE   O1418799   2.196   2.822   6.263 -0.2098 -0.1954  0.2016
  167SAPE   O1218800   2.032   2.974   6.156 -0.4352  0.1079 -0.0193
  167SAPE   O1118801   2.000   2.897   6.385 -0.1624 -0.0979 -0.0683
  167SAPE    C118802   1.863   2.925   6.410 -0.2206 -0.2437  0.6225
  167SAPE    HA18803   1.801   2.905   6.320  1.6142  1.8652 -1.2435
  167SAPE    HB18804   1.835   2.858   6.493 -0.4551  0.8272  1.4209
  167SAPE    C218805   1.843   3.070   6.457 -0.4789 -0.3362  0.0878
  167SAPE    HS18806   1.870   3.135   6.372  1.3165  0.8626  1.4891
  167SAPE   O2118807   1.938   3.105   6.555 -0.4320  0.3711 -0.3642
  167SAPE   C2118808   1.947   3.228   6.601 -0.2903 -0.0459 -0.8323
  167SAPE   O2218809   1.885   3.325   6.565  0.5844 -0.3398 -0.3189
  167SAPE   C2218810   2.066   3.233   6.711  0.1317  0.0512 -0.0453
  167SAPE   H2R18811   2.092   3.128   6.737 -0.6569 -0.3796 -0.9203
  167SAPE   H2S18812   2.157   3.282   6.672  1.8117 -0.5737  2.8223
  167SAPE    C318813   1.698   3.097   6.500  0.0336 -0.2581  0.1502
  167SAPE    HX18814   1.626   3.075   6.418  0.2699  0.3140 -0.2117
  167SAPE    HY18815   1.687   3.206   6.515  1.8139  0.0185 -0.2656
  167SAPE   O3118816   1.665   3.024   6.621  0.3061 -0.7540  0.1412
  167SAPE   C3118817   1.541   3.025   6.649  0.7922 -0.1207  0.3060
  167SAPE   O3218818   1.453   3.088   6.593 -0.1873 -0.0791  0.3444
  167SAPE   C3218819   1.520   2.921   6.754  0.3160  1.1453 -0.0995
  167SAPE   H2X18820   1.597   2.843   6.743  0.0929  1.0479 -1.0572
  167SAPE   H2Y18821   1.423   2.869   6.740  1.0068  0.2928 -2.0039
  167SAPE   C2318822   2.017   3.314   6.836 -0.0693 -0.2201  0.5327
  167SAPE   H3R18823   1.991   3.416   6.801  2.1347 -0.4101 -2.0043
  167SAPE   H3S18824   2.102   3.334   6.905 -2.0809  3.4667  2.1756
  167SAPE   C2418825   1.898   3.264   6.918 -0.2415  0.4560  0.2154
  167SAPE   H4R18826   1.806   3.268   6.856 -0.3992  0.6797  0.4612
  167SAPE   H4S18827   1.885   3.340   6.998  2.7833  0.7896  0.5162
  167SAPE   C2518828   1.898   3.119   6.957 -0.2704  0.6941 -0.9075
  167SAPE   H5R18829   1.877   3.039   6.884 -2.1043 -2.5605  2.7690
  167SAPE   C2618830   1.914   3.068   7.073 -0.0464  0.1696 -1.0223
  167SAPE   H6R18831   1.908   2.958   7.080 -0.8565  0.1915 -1.2753
  167SAPE   C2718832   1.942   3.132   7.211  0.1831 -0.7005  0.0958
  167SAPE   H7R18833   1.977   3.234   7.185  0.3966 -1.1277 -1.4582
  167SAPE   H7S18834   2.021   3.082   7.270  0.0125  1.7338  2.5667
  167SAPE   C2818835   1.814   3.128   7.295  0.6802 -0.5782 -0.4849
  167SAPE   H8R18836   1.722   3.168   7.251 -0.3242  0.0124  2.0040
  167SAPE   C2918837   1.806   3.090   7.426 -0.7167  0.1815  0.7545
  167SAPE   H9R18838   1.708   3.085   7.475 -1.3529  1.1825 -0.3528
  167SAPE  C21018839   1.924   3.038   7.508  0.5591  0.5916 -0.2070
  167SAPE  H10R18840   2.011   3.105   7.489  0.1178  1.2739  0.1309
  167SAPE  H10S18841   1.945   2.932   7.483  1.2985  0.3952  1.1499
  167SAPE  C21118842   1.911   3.055   7.653  0.3775 -0.5063  0.3232
  167SAPE  H11R18843   1.868   3.148   7.691 -0.8157 -0.4293 -1.1216
  167SAPE  C21218844   1.944   2.968   7.746 -0.0846  0.2952  0.4630
  167SAPE  H12R18845   1.930   2.982   7.854 -0.3556 -1.7139  0.7307
  167SAPE  C21318846   2.013   2.837   7.713  0.2806 -0.1742 -0.3944
  167SAPE  H13R18847   1.952   2.782   7.638 -0.0182  1.7481 -1.6504
  167SAPE  H13S18848   1.992   2.783   7.807 -1.2918 -0.5537 -0.9338
  167SAPE  C21418849   2.159   2.850   7.671  0.3644 -0.6793  0.0825
  167SAPE  H14R18850   2.213   2.928   7.727  0.8608 -0.2236 -0.9961
  167SAPE  C21518851   2.227   2.788   7.572 -0.8037  0.7383  0.7590
  167SAPE  H15R18852   2.329   2.819   7.543 -1.9030  3.2899 -0.8136
  167SAPE  C21618853   2.159   2.686   7.489  0.4732  0.7755  0.5546
  167SAPE  H16R18854   2.051   2.706   7.472  0.4656  1.2138  1.0852
  167SAPE  H16S18855   2.160   2.590   7.544 -1.6435 -0.4694 -1.3992
  167SAPE  C21718856   2.242   2.658   7.356 -0.5971 -0.7551 -0.2865
  167SAPE  H17R18857   2.352   2.662   7.369 -0.5700 -0.1707 -0.6580
  167SAPE  H17S18858   2.218   2.754   7.305  1.3989 -0.4689 -0.7407
  167SAPE  C21818859   2.202   2.526   7.284 -0.1188  0.3309  0.2082
  167SAPE  H18R18860   2.094   2.505   7.294 -0.0823  0.7712  1.9066
  167SAPE  H18S18861   2.260   2.450   7.341  0.3022  0.7953  0.4056
  167SAPE  C21918862   2.257   2.513   7.142 -0.1148  0.0543  0.0749
  167SAPE  H19R18863   2.363   2.478   7.149 -0.3203 -0.4206  0.9155
  167SAPE  H19S18864   2.255   2.610   7.087  0.8050  0.5190  0.8330
  167SAPE  C22018865   2.190   2.412   7.048 -0.5047  0.3478 -0.2243
  167SAPE  H20R18866   2.232   2.410   6.945 -1.3392 -0.2059 -0.5706
  167SAPE  H20S18867   2.079   2.417   7.053 -0.5513 -0.0909 -0.6698
  167SAPE  H20T18868   2.213   2.309   7.082  0.4346  0.5077 -0.3429
  167SAPE   C3318869   1.516   2.980   6.891 -0.4564  0.1563 -0.2571
  167SAPE   H3X18870   1.445   3.066   6.890 -1.4139 -0.6161 -0.4921
  167SAPE   H3Y18871   1.621   3.013   6.910  0.3459 -2.0539 -0.6499
  167SAPE   C3418872   1.486   2.870   6.996  0.5944 -0.0393  0.4125
  167SAPE   H4X18873   1.550   2.781   6.978 -0.7126 -0.7385 -0.8965
  167SAPE   H4Y18874   1.379   2.842   6.990  0.7699 -0.7443  0.5461
  167SAPE   C3518875   1.519   2.914   7.144  0.0064 -0.1185  0.3863
  167SAPE   H5X18876   1.620   2.960   7.144 -0.2809  0.5808 -1.0169
  167SAPE   H5Y18877   1.517   2.823   7.207  0.6457 -0.7147 -0.4310
  167SAPE   C3618878   1.422   3.021   7.186 -0.9766  0.4751  0.2576
  167SAPE   H6X18879   1.318   3.009   7.148 -0.8544 -1.1246  0.3642
  167SAPE   H6Y18880   1.460   3.114   7.137  0.1521 -0.8336 -1.4958
  167SAPE   C3718881   1.418   3.058   7.337  0.3432  0.3761  0.0333
  167SAPE   H7X18882   1.343   3.138   7.355 -1.9384 -1.4572 -0.7523
  167SAPE   H7Y18883   1.516   3.107   7.351 -0.0301  1.5402 -1.1965
  167SAPE   C3818884   1.413   2.941   7.425 -0.3548 -0.0839 -0.2872
  167SAPE   H8X18885   1.505   2.879   7.420  0.5790  1.2118  0.3725
  167SAPE   H8Y18886   1.331   2.872   7.397  0.6782 -1.5506  0.1606
  167SAPE   C3918887   1.389   2.979   7.575 -0.1475  0.1493 -0.1957
  167SAPE   H9X18888   1.378   2.886   7.635 -0.8069  0.9636  0.9889
  167SAPE   H9Y18889   1.291   3.031   7.578 -1.0871 -1.4290 -1.6431
  167SAPE  C31018890   1.495   3.075   7.642  0.2333 -0.0492  0.1736
  167SAPE  H10X18891   1.488   3.164   7.577 -0.1545  0.3362  0.7378
  167SAPE  H10Y18892   1.600   3.040   7.640  2.2841  5.0573  2.6347
  167SAPE  C31118893   1.457   3.134   7.773  0.1280  0.4879  0.1945
  167SAPE  H11X18894   1.346   3.140   7.786 -0.0801  0.6971 -1.4512
  167SAPE  H11Y18895   1.494   3.236   7.795 -0.3807  0.1249  3.0539
  167SAPE  C31218896   1.513   3.045   7.886  0.6978 -0.2635 -0.0045
  167SAPE  H12X18897   1.616   3.009   7.868  0.6277  0.2987 -1.6570
  167SAPE  H12Y18898   1.451   2.953   7.882  0.9719 -0.4074 -1.1743
  167SAPE  C31318899   1.496   3.109   8.024  0.0077  0.1257 -1.0750
  167SAPE  H13X18900   1.391   3.144   8.038 -0.0037  0.3025 -1.5731
  167SAPE  H13Y18901   1.557   3.202   8.018 -1.1542  1.2131  1.8641
  167SAPE  C31418902   1.545   3.013   8.135  0.5477  0.4027  0.5567
  167SAPE  H14X18903   1.653   2.990   8.122  0.0599 -0.2162 -3.9206
  167SAPE  H14Y18904   1.488   2.919   8.124 -1.5340  1.5981  0.5898
  167SAPE  C31518905   1.507   3.065   8.277  0.6229  0.4738  0.5464
  167SAPE  H15X18906   1.404   3.103   8.296  1.1068  0.8751  2.5570
  167SAPE  H15Y18907   1.582   3.142   8.301  1.8362 -0.7831  0.9036
  167SAPE  C31618908   1.535   2.953   8.383 -0.0594 -0.5185  0.6108
  167SAPE  H16X18909   1.637   2.913   8.364  0.4527  0.3341  1.4445
  167SAPE  H16Y18910   1.456   2.879   8.360 -0.8610  0.4279  0.2577
  167SAPE  C31718911   1.518   3.010   8.522 -0.1146 -0.3082 -0.0001
  167SAPE  H17X18912   1.425   3.070   8.520  0.4528  0.8596  3.1559
  167SAPE  H17Y18913   1.602   3.077   8.549  1.4196 -2.6179  1.3555
  167SAPE  C31818914   1.498   2.903   8.629 -0.3171  0.1502  0.0612
  167SAPE  H18X18915   1.481   2.949   8.729  1.7945 -0.7893  0.9045
  167SAPE  H18Y18916   1.585   2.836   8.640 -1.1132 -0.9028  0.1155
  167SAPE  H18Z18917   1.404   2.846   8.609 -0.9278  1.4023 -0.7898
  168SAPE     N18918   3.060   6.040   6.364 -0.3247 -0.2643 -0.0370
  168SAPE   HN118919   3.103   6.129   6.333  0.0804  0.6964  2.9586
  168SAPE   HN218920   3.072   5.956   6.305  1.1464 -1.2266  1.5531
  168SAPE   HN318921   2.958   6.060   6.368  0.1782  2.6332  1.3069
  168SAPE   C1218922   3.108   6.007   6.506 -0.1310 -0.1548  0.1724
  168SAPE  H12A18923   3.040   5.931   6.549  1.1764 -1.3047  0.2850
  168SAPE  H12B18924   3.107   6.102   6.562  2.7920 -0.4754  0.9503
  168SAPE   C1118925   3.250   5.943   6.504  1.5588  0.3041 -0.2013
  168SAPE  H11A18926   3.257   5.919   6.612 -1.2349 -0.0767 -0.0174
  168SAPE  H11B18927   3.330   6.012   6.471  0.9055  1.0455 -0.2842
  168SAPE     P18928   3.276   5.674   6.486 -0.5133 -0.0018  0.0334
  168SAPE   O1318929   3.238   5.584   6.378 -0.6550 -0.2019  0.2544
  168SAPE   O1418930   3.408   5.655   6.550 -0.0440 -0.2938  0.1856
  168SAPE   O1218931   3.251   5.821   6.426  0.0600  0.0998  0.0340
  168SAPE   O1118932   3.173   5.682   6.602  0.1410  0.2209  0.3170
  168SAPE    C118933   3.184   5.573   6.695 -0.0224  0.4634 -0.2814
  168SAPE    HA18934   3.136   5.482   6.654 -2.6689  2.6763 -2.5729
  168SAPE    HB18935   3.285   5.551   6.735 -0.1436  1.1810  0.4505
  168SAPE    C218936   3.108   5.629   6.819 -0.5029 -0.1725  0.2552
  168SAPE    HS18937   3.006   5.670   6.798 -0.3665 -0.3966 -0.8638
  168SAPE   O2118938   3.199   5.729   6.867 -0.0096  0.2665 -0.2370
  168SAPE   C2118939   3.169   5.854   6.871 -0.6152 -0.0394  0.0615
  168SAPE   O2218940   3.080   5.906   6.815  0.4694 -0.4147 -0.1705
  168SAPE   C2218941   3.272   5.925   6.959 -0.1545  1.4310  0.2121
  168SAPE   H2R18942   3.317   5.853   7.030  0.1076  0.9035 -0.4721
  168SAPE   H2S18943   3.349   5.955   6.885  0.3293  1.5748  0.7668
  168SAPE    C318944   3.095   5.521   6.924  0.2980  0.8003 -0.8536
  168SAPE    HX18945   3.195   5.501   6.966  1.1277  2.7558 -1.7827
  168SAPE    HY18946   3.075   5.426   6.870 -1.1549  0.9182 -0.5844
  168SAPE   O3118947   2.999   5.548   7.028  0.3449  0.3881 -0.2607
  168SAPE   C3118948   3.011   5.471   7.133  0.2075  0.5349  0.1616
  168SAPE   O3218949   3.101   5.385   7.146  0.4292 -0.3074  0.5286
  168SAPE   C3218950   2.916   5.519   7.245 -0.0214 -0.4701  0.4340
  168SAPE   H2X18951   2.921   5.436   7.319 -1.3151 -0.2382  0.8005
  168SAPE   H2Y18952   2.815   5.529   7.200 -0.1625  0.2376  0.8984
  168SAPE   C2318953   3.227   6.053   7.031  0.2331  1.4429  0.3720
  168SAPE   H3R18954   3.180   6.121   6.958 -1.5620  0.5535  0.6415
  168SAPE   H3S18955   3.317   6.098   7.077  0.4949 -0.3190  1.7090
  168SAPE   C2418956   3.104   6.021   7.127 -0.1190  0.0824  0.5069
  168SAPE   H4R18957   3.020   5.976   7.070 -0.3608 -1.5298  2.0638
  168SAPE   H4S18958   3.059   6.111   7.175 -1.0064  0.2633 -0.6234
  168SAPE   C2518959   3.149   5.925   7.236  0.5780  0.5261  0.6047
  168SAPE   H5R18960   3.178   5.827   7.196  0.4882  0.4492  0.7297
  168SAPE   C2618961   3.164   5.953   7.365 -0.0557 -0.2358  0.5075
  168SAPE   H6R18962   3.201   5.868   7.425  0.7296 -0.2967 -0.0505
  168SAPE   C2718963   3.139   6.089   7.435 -0.2469  0.6389  0.6094
  168SAPE   H7R18964   3.118   6.173   7.366 -1.5276  0.9744  1.3665
  168SAPE   H7S18965   3.220   6.108   7.510 -0.7148  0.4027  1.1819
  168SAPE   C2818966   3.004   6.059   7.498  0.9784 -0.5231 -0.1241
  168SAPE   H8R18967   2.921   6.038   7.428  0.3622 -1.0771  0.7571
  168SAPE   C2918968   2.963   6.069   7.622 -0.0136  0.8887  0.0892
  168SAPE   H9R18969   2.869   6.021   7.655 -0.6166  1.4786 -0.7244
  168SAPE  C21018970   3.056   6.099   7.731  0.5266 -0.1415 -0.4585
  168SAPE  H10R18971   3.013   6.175   7.799  0.2613 -0.4586 -0.2725
  168SAPE  H10S18972   3.148   6.153   7.701 -0.2161  1.7345  0.5109
  168SAPE  C21118973   3.097   5.983   7.816  0.5084 -0.8325  0.1117
  168SAPE  H11R18974   3.143   5.906   7.752 -0.2810  0.7337 -2.4974
  168SAPE  C21218975   3.102   5.967   7.952  0.1391  0.3972 -0.3752
  168SAPE  H12R18976   3.123   5.864   7.984  1.3790  0.4467 -0.9700
  168SAPE  C21318977   3.055   6.071   8.056  1.0224 -0.5430 -0.3717
  168SAPE  H13R18978   3.040   6.167   8.003  0.2189 -0.7232 -0.4714
  168SAPE  H13S18979   3.129   6.078   8.139 -1.7565  1.1858  2.1446
  168SAPE  C21418980   2.917   6.053   8.111  0.6734  0.0464  0.2964
  168SAPE  H14R18981   2.839   6.017   8.043 -0.1254 -0.0459  1.2410
  168SAPE  C21518982   2.889   6.073   8.243  0.4700  0.4858  0.3735
  168SAPE  H15R18983   2.788   6.061   8.285 -0.7996  0.5655 -2.4448
  168SAPE  C21618984   2.988   6.121   8.350  0.5985 -0.5355  0.1445
  168SAPE  H16R18985   3.052   6.202   8.309  0.1365 -0.3140 -0.1375
  168SAPE  H16S18986   3.057   6.041   8.386  0.0848 -0.7173  0.7381
  168SAPE  C21718987   2.906   6.181   8.473 -0.3449 -1.0975  0.6524
  168SAPE  H17R18988   2.822   6.118   8.508 -1.2315  0.6780  1.8952
  168SAPE  H17S18989   2.861   6.270   8.424 -1.0753 -1.2009  1.1235
  168SAPE  C21818990   2.981   6.221   8.602 -0.2531  0.1210 -0.1294
  168SAPE  H18R18991   3.075   6.277   8.586 -0.3220 -0.0899 -1.4110
  168SAPE  H18S18992   3.008   6.124   8.649 -0.8933 -0.8425 -1.6604
  168SAPE  C21918993   2.895   6.299   8.704 -0.7045 -0.1817  0.3544
  168SAPE  H19R18994   2.871   6.393   8.650  1.2421 -1.3697 -2.8770
  168SAPE  H19S18995   2.966   6.321   8.787 -0.8934  0.0917  0.4448
  168SAPE  C22018996   2.764   6.237   8.751  0.0761 -0.4317 -0.3448
  168SAPE  H20R18997   2.706   6.299   8.822 -0.5692 -1.9369  0.4971
  168SAPE  H20S18998   2.769   6.138   8.801  0.5187  0.8109  2.2180
  168SAPE  H20T18999   2.696   6.218   8.665  0.9235  0.7709 -1.3131
  168SAPE   C3319000   2.955   5.654   7.295 -0.1450 -0.0091 -0.0187
  168SAPE   H3X19001   2.962   5.725   7.209 -0.1987  1.0229  0.8171
  168SAPE   H3Y19002   3.059   5.651   7.333  0.5444 -0.5233 -1.7968
  168SAPE   C3419003   2.850   5.692   7.397 -0.2359 -0.2670 -0.5852
  168SAPE   H4X19004   2.755   5.709   7.343 -0.1641 -0.8526 -0.9076
  168SAPE   H4Y19005   2.882   5.787   7.445  0.9806 -1.4191  1.0049
  168SAPE   C3519006   2.834   5.589   7.515 -0.0098  0.1484 -0.3633
  168SAPE   H5X19007   2.824   5.486   7.476  1.7835 -1.2602  2.5575
  168SAPE   H5Y19008   2.749   5.623   7.578 -0.0456 -1.6236  0.6136
  168SAPE   C3619009   2.957   5.583   7.611  0.8341  0.2480 -0.2092
  168SAPE   H6X19010   3.044   5.612   7.549 -0.8825  0.8993 -2.4483
  168SAPE   H6Y19011   2.962   5.479   7.648  1.3274  0.5567  0.6286
  168SAPE   C3719012   2.942   5.674   7.733 -0.1485 -0.3815  0.7379
  168SAPE   H7X19013   2.922   5.778   7.699 -0.8495  0.3532  3.2200
  168SAPE   H7Y19014   3.045   5.691   7.770  0.4491  0.5806 -1.1964
  168SAPE   C3819015   2.845   5.619   7.837  0.2259  0.7997  0.1436
  168SAPE   H8X19016   2.889   5.523   7.870 -0.4659  0.5985  0.4892
  168SAPE   H8Y19017   2.741   5.611   7.799  0.6549  1.1615 -1.1533
  168SAPE   C3919018   2.851   5.709   7.962 -0.0947 -0.4997 -0.9632
  168SAPE   H9X19019   2.799   5.804   7.938 -1.2855 -0.5422  1.1821
  168SAPE   H9Y19020   2.957   5.729   7.989 -0.4196 -1.5934  1.4191
  168SAPE  C31019021   2.806   5.638   8.087 -0.5086 -0.0692  0.7638
  168SAPE  H10X19022   2.848   5.535   8.085  0.3180  0.2648  0.3858
  168SAPE  H10Y19023   2.695   5.643   8.086 -0.4783  1.1109  1.7531
  168SAPE  C31119024   2.856   5.691   8.221  0.2983 -0.1446  0.3620
  168SAPE  H11X19025   2.833   5.800   8.217  1.7238  0.1578 -0.0087
  168SAPE  H11Y19026   2.967   5.687   8.217  0.3476 -1.5109  1.9985
  168SAPE  C31219027   2.796   5.619   8.346 -0.0999  0.3393  0.4041
  168SAPE  H12X19028   2.813   5.512   8.321 -1.9489  0.5765 -2.4097
  168SAPE  H12Y19029   2.685   5.628   8.348 -0.2477 -0.5801 -1.5627
  168SAPE  C31319030   2.870   5.648   8.471  0.1155 -0.0372  0.4788
  168SAPE  H13X19031   2.852   5.755   8.492  1.5151  0.3521 -0.2108
  168SAPE  H13Y19032   2.980   5.640   8.454 -0.0991 -1.0444 -0.5531
  168SAPE  C31419033   2.828   5.563   8.593 -0.5895 -0.4646  0.1048
  168SAPE  H14X19034   2.721   5.572   8.624 -0.4897  0.4873  0.1903
  168SAPE  H14Y19035   2.883   5.602   8.681 -0.2149 -2.6733  0.9127
  168SAPE  C31519036   2.856   5.410   8.561 -0.4117  0.1254  0.3993
  168SAPE  H15X19037   2.961   5.401   8.526 -0.1728  2.0680  0.5276
  168SAPE  H15Y19038   2.788   5.389   8.476 -0.7520 -1.1291  0.9650
  168SAPE  C31619039   2.824   5.322   8.680  0.0142  0.5649  0.4567
  168SAPE  H16X19040   2.819   5.216   8.648  0.6066  1.1462 -1.7664
  168SAPE  H16Y19041   2.725   5.358   8.717 -0.1101  0.0706  0.6159
  168SAPE  C31719042   2.924   5.341   8.795 -0.5406  0.1334 -0.0548
  168SAPE  H17X19043   2.917   5.443   8.836 -0.6619 -0.3055  1.0430
  168SAPE  H17Y19044   3.025   5.322   8.752 -0.9793 -2.8745  0.0116
  168SAPE  C31819045   2.914   5.249   8.914 -0.7827 -0.4930  0.0778
  168SAPE  H18X19046   2.939   5.149   8.874 -1.8349 -0.0936 -1.6697
  168SAPE  H18Y19047   2.812   5.245   8.958 -0.6024 -0.8638  0.4653
  168SAPE  H18Z19048   2.985   5.264   8.999 -0.6988 -0.6615  0.0382
  169SAPE     N19049   0.780   6.160   6.055  0.1301 -0.3653 -0.4080
  169SAPE   HN119050   0.798   6.207   5.964 -2.4856 -0.5481 -1.0873
  169SAPE   HN219051   0.753   6.063   6.031  0.3574 -1.0597  1.9341
  169SAPE   HN319052   0.694   6.211   6.085  0.2559 -0.5180  0.2203
  169SAPE   C1219053   0.891   6.161   6.155 -0.1164  0.0155  0.2399
  169SAPE  H12A19054   0.972   6.098   6.111 -1.9366  0.1908 -3.7765
  169SAPE  H12B19055   0.840   6.111   6.241 -2.1159 -0.3282 -1.0892
  169SAPE   C1119056   0.951   6.290   6.210  0.6414  0.4257  0.3559
  169SAPE  H11A19057   0.872   6.356   6.251  1.4366  0.8892  1.1741
  169SAPE  H11B19058   0.999   6.338   6.122 -0.4747  0.0356 -0.4867
  169SAPE     P19059   1.132   6.376   6.378  0.0170  0.1812 -0.0929
  169SAPE   O1319060   1.270   6.341   6.329 -0.0061 -0.5735 -0.0112
  169SAPE   O1419061   1.076   6.510   6.349 -0.0287  0.0380  0.1302
  169SAPE   O1219062   1.039   6.260   6.314 -0.3639 -0.0778  0.2616
  169SAPE   O1119063   1.115   6.349   6.533  0.5872 -0.0615  0.7653
  169SAPE    C119064   0.984   6.322   6.583 -0.5475  0.3880 -0.5790
  169SAPE    HA19065   0.926   6.410   6.550  1.3892  1.7769 -0.4439
  169SAPE    HB19066   0.938   6.228   6.545  0.0310 -0.5601  0.9753
  169SAPE    C219067   0.984   6.310   6.735  0.4248 -0.5008  0.0709
  169SAPE    HS19068   0.879   6.298   6.769  0.7907  1.5395  2.2789
  169SAPE   O2119069   1.038   6.425   6.796  0.1648 -0.2214 -0.1334
  169SAPE   C2119070   0.976   6.542   6.790  0.1006 -0.2919 -0.3129
  169SAPE   O2219071   0.871   6.569   6.728  0.1634  0.5686 -0.2577
  169SAPE   C2219072   1.051   6.642   6.882  0.1842  0.3587  0.8492
  169SAPE   H2R19073   1.157   6.611   6.880 -0.6065 -2.6726  0.1795
  169SAPE   H2S19074   1.054   6.744   6.838  0.7496  0.3005  0.7431
  169SAPE    C319075   1.067   6.181   6.785 -0.5035  0.5696 -0.2565
  169SAPE    HX19076   1.176   6.193   6.768  0.1051 -1.2952  1.8380
  169SAPE    HY19077   1.029   6.093   6.729  0.2238 -0.8529  1.3696
  169SAPE   O3119078   1.048   6.153   6.931 -0.2317  0.2810 -0.1457
  169SAPE   C3119079   1.120   6.226   7.014 -0.5807 -0.1274  0.1673
  169SAPE   O3219080   1.223   6.288   6.987 -0.6589  0.1578  0.3710
  169SAPE   C3219081   1.065   6.204   7.156  0.4721  1.2660 -0.1968
  169SAPE   H2X19082   1.053   6.095   7.171  1.4183  1.1801 -0.0392
  169SAPE   H2Y19083   0.964   6.250   7.147  0.1681  0.6694  0.1672
  169SAPE   C2319084   0.992   6.676   7.022 -0.5584 -0.7021  0.2808
  169SAPE   H3R19085   0.886   6.706   7.006  0.2173  1.3338 -1.5329
  169SAPE   H3S19086   1.055   6.759   7.059  1.8472 -2.6246  0.7468
  169SAPE   C2419087   1.006   6.548   7.108  0.2542 -0.0056  0.2041
  169SAPE   H4R19088   1.113   6.528   7.133  1.0047  0.6972 -2.2269
  169SAPE   H4S19089   0.977   6.462   7.044  0.5243  0.2733 -0.2996
  169SAPE   C2519090   0.905   6.549   7.227 -0.9165 -0.3712 -0.0826
  169SAPE   H5R19091   0.806   6.506   7.204 -1.8663  0.8644  1.4584
  169SAPE   C2619092   0.928   6.586   7.354 -0.9104  0.1247  0.3083
  169SAPE   H6R19093   0.848   6.561   7.426 -1.1928  0.0702 -0.0180
  169SAPE   C2719094   1.063   6.627   7.415  0.5545  0.1184  0.6390
  169SAPE   H7R19095   1.132   6.661   7.335 -1.0329 -1.0358 -1.2952
  169SAPE   H7S19096   1.112   6.540   7.463 -0.4219 -2.0992 -2.1797
  169SAPE   C2819097   1.057   6.730   7.516  0.8257  0.0162  0.3199
  169SAPE   H8R19098   1.091   6.827   7.478  1.8177 -0.1520  0.7459
  169SAPE   C2919099   1.027   6.724   7.642 -0.3414 -0.1338  0.1120
  169SAPE   H9R19100   1.016   6.822   7.691  0.4666  1.2856 -2.3356
  169SAPE  C21019101   0.987   6.616   7.726 -0.5032 -0.6543  0.5991
  169SAPE  H10R19102   1.067   6.546   7.760  0.5085 -0.3316 -1.0049
  169SAPE  H10S19103   0.932   6.542   7.664  1.0225  0.3538 -2.1285
  169SAPE  C21119104   0.887   6.659   7.833 -0.1848  0.4145  0.5703
  169SAPE  H11R19105   0.826   6.742   7.796 -2.8937 -2.3462 -1.7945
  169SAPE  C21219106   0.838   6.588   7.942 -0.5966 -0.6842  0.4378
  169SAPE  H12R19107   0.762   6.636   8.005 -1.6914  0.1271 -1.4139
  169SAPE  C21319108   0.877   6.445   7.973 -0.2199  0.0325  0.2708
  169SAPE  H13R19109   0.875   6.389   7.877  0.2398 -2.2649  1.5293
  169SAPE  H13S19110   0.792   6.395   8.023  1.1361 -1.6303  1.0028
  169SAPE  C21419111   1.002   6.413   8.054  0.3099  0.8086 -0.0814
  169SAPE  H14R19112   1.101   6.422   8.006 -0.7738  1.4906 -2.3265
  169SAPE  C21519113   0.998   6.373   8.186 -0.4329 -0.0112  0.4088
  169SAPE  H15R19114   1.100   6.346   8.216  1.2700  0.7291 -3.9927
  169SAPE  C21619115   0.877   6.345   8.275 -0.3762  0.7441 -0.0412
  169SAPE  H16R19116   0.884   6.241   8.312 -0.6180  0.6719 -0.1982
  169SAPE  H16S19117   0.784   6.347   8.214  0.5661 -1.3215 -1.6726
  169SAPE  C21719118   0.862   6.434   8.399  0.5362  1.0213  0.0992
  169SAPE  H17R19119   0.849   6.540   8.366 -1.4708  0.5065 -0.9464
  169SAPE  H17S19120   0.953   6.425   8.461  0.4535 -0.9571  0.0012
  169SAPE  C21819121   0.747   6.391   8.488 -0.0847  0.6116 -0.5299
  169SAPE  H18R19122   0.754   6.284   8.517 -2.5248  0.6427  0.3863
  169SAPE  H18S19123   0.646   6.403   8.443  0.1808  1.1464 -1.0069
  169SAPE  C21919124   0.753   6.461   8.627  0.2524 -0.1019  0.8195
  169SAPE  H19R19125   0.739   6.571   8.627 -1.8144 -0.2449 -2.3311
  169SAPE  H19S19126   0.856   6.456   8.669  0.3343 -0.7071  0.5472
  169SAPE  C22019127   0.660   6.396   8.731 -0.8091  0.3817  0.9738
  169SAPE  H20R19128   0.555   6.403   8.694 -0.4230 -0.2470 -0.2807
  169SAPE  H20S19129   0.674   6.449   8.828 -0.4557  1.8189  0.1620
  169SAPE  H20T19130   0.689   6.295   8.765  0.9249  1.2558  2.2442
  169SAPE   C3319131   1.157   6.252   7.270 -0.5438  0.1260 -0.0417
  169SAPE   H3X19132   1.170   6.362   7.260  0.8135  0.2243  2.0878
  169SAPE   H3Y19133   1.247   6.200   7.232 -0.8890  0.9611 -2.1483
  169SAPE   C3419134   1.111   6.211   7.413  0.3337 -0.0304  0.2007
  169SAPE   H4X19135   1.088   6.102   7.414 -1.8940  0.3317 -1.9308
  169SAPE   H4Y19136   1.015   6.259   7.442  0.1610  0.4876 -1.1464
  169SAPE   C3519137   1.216   6.248   7.520  0.5259  0.4829  0.9437
  169SAPE   H5X19138   1.273   6.339   7.491  0.7421  0.3419  0.9308
  169SAPE   H5Y19139   1.283   6.160   7.522  0.3760  0.2751 -1.1907
  169SAPE   C3619140   1.158   6.258   7.668 -0.3497  0.0681 -0.0424
  169SAPE   H6X19141   1.075   6.185   7.681 -0.7541  0.5949  0.3666
  169SAPE   H6Y19142   1.104   6.355   7.674 -1.5192 -0.5114 -0.7588
  169SAPE   C3719143   1.262   6.255   7.778 -0.3322 -0.4198 -0.1838
  169SAPE   H7X19144   1.296   6.358   7.805  1.0711 -0.8356 -0.2832
  169SAPE   H7Y19145   1.350   6.199   7.740  0.0626  0.2744 -0.3060
  169SAPE   C3819146   1.215   6.182   7.913 -0.3877  0.6784  0.0859
  169SAPE   H8X19147   1.111   6.207   7.944  0.3206  2.4059  1.1870
  169SAPE   H8Y19148   1.288   6.208   7.993  0.2052  1.9893 -0.8338
  169SAPE   C3919149   1.231   6.022   7.881  0.0144 -0.4929 -0.2072
  169SAPE   H9X19150   1.331   6.006   7.836  0.2802  0.9342 -0.1683
  169SAPE   H9Y19151   1.174   5.996   7.789  1.1581  2.7064 -1.9578
  169SAPE  C31019152   1.206   5.928   7.994  0.4102  0.6409  0.0540
  169SAPE  H10X19153   1.256   5.831   7.971  0.2998  0.1664  1.6865
  169SAPE  H10Y19154   1.100   5.905   8.019  0.8071  0.4992  1.7046
  169SAPE  C31119155   1.270   5.976   8.121 -0.4954 -0.0713  0.3661
  169SAPE  H11X19156   1.209   6.065   8.147 -2.5030 -0.7374 -1.7625
  169SAPE  H11Y19157   1.379   5.992   8.102 -0.1530 -0.0025  2.1751
  169SAPE  C31219158   1.264   5.881   8.243  0.0254  0.0409  0.5140
  169SAPE  H12X19159   1.300   5.780   8.215  1.2122  1.1384 -2.2823
  169SAPE  H12Y19160   1.156   5.863   8.260 -0.8647  2.2354 -2.0900
  169SAPE  C31319161   1.344   5.929   8.369 -0.5786  0.0170 -0.7200
  169SAPE  H13X19162   1.451   5.952   8.347 -0.0283 -0.7023  1.0240
  169SAPE  H13Y19163   1.352   5.856   8.452 -1.5131 -1.4720 -1.8781
  169SAPE  C31419164   1.283   6.064   8.420 -0.1608 -0.5586 -0.4132
  169SAPE  H14X19165   1.174   6.053   8.404 -0.1062  0.4741 -1.6839
  169SAPE  H14Y19166   1.323   6.149   8.361  1.3711 -0.2021  1.0692
  169SAPE  C31519167   1.310   6.087   8.570 -0.2154  0.5379  0.2834
  169SAPE  H15X19168   1.294   5.995   8.630  1.6331  0.9969  1.6038
  169SAPE  H15Y19169   1.238   6.168   8.596  0.4716  1.4122 -0.4677
  169SAPE  C31619170   1.456   6.126   8.604  0.7178 -0.2108 -0.5824
  169SAPE  H16X19171   1.478   6.208   8.532 -1.2505  0.0832 -0.9080
  169SAPE  H16Y19172   1.515   6.033   8.588  0.6215 -0.2577 -0.6691
  169SAPE  C31719173   1.460   6.164   8.756 -0.7161 -0.4459 -0.1334
  169SAPE  H17X19174   1.425   6.077   8.815  0.0877 -0.3370  0.5243
  169SAPE  H17Y19175   1.396   6.255   8.760 -2.6979 -1.7925 -0.2393
  169SAPE  C31819176   1.603   6.211   8.799 -0.1618  0.2485  0.1569
  169SAPE  H18X19177   1.655   6.254   8.710 -0.4834  1.0190  0.3309
  169SAPE  H18Y19178   1.655   6.128   8.850 -1.0993 -0.1583  0.4795
  169SAPE  H18Z19179   1.597   6.292   8.876  1.9076 -0.6587  1.3349
  170SAPE     N19180   2.665   1.630   6.090  0.2408 -0.2330 -0.6366
  170SAPE   HN119181   2.700   1.705   6.027 -0.7284 -0.8931 -2.0039
  170SAPE   HN219182   2.744   1.563   6.100 -0.2549 -0.5379  1.5887
  170SAPE   HN319183   2.583   1.582   6.047 -0.3367  1.0552 -1.0182
  170SAPE   C1219184   2.634   1.681   6.225  0.6371 -0.4945 -0.5522
  170SAPE  H12A19185   2.715   1.755   6.245  1.5653 -1.6482  0.0706
  170SAPE  H12B19186   2.648   1.601   6.301 -0.2840  0.2158  0.3798
  170SAPE   C1119187   2.493   1.741   6.231 -0.2881  0.6711  0.5195
  170SAPE  H11A19188   2.413   1.671   6.201 -1.1359  2.2268 -1.0313
  170SAPE  H11B19189   2.496   1.820   6.153 -1.6999 -0.2056 -0.4666
  170SAPE     P19190   2.379   1.742   6.464 -0.0680 -0.2952  0.2307
  170SAPE   O1319191   2.352   1.599   6.432  0.9198 -0.1988  0.1703
  170SAPE   O1419192   2.423   1.762   6.603  0.6444  0.7409 -0.2367
  170SAPE   O1219193   2.473   1.804   6.356  0.3486 -0.0104 -0.5840
  170SAPE   O1119194   2.242   1.822   6.443 -0.5289 -0.2615 -0.8029
  170SAPE    C119195   2.253   1.965   6.451  0.2633 -1.3471  0.0424
  170SAPE    HA19196   2.303   2.011   6.363 -1.0939 -0.5341 -0.3272
  170SAPE    HB19197   2.149   2.002   6.456  0.1736 -1.7016  1.0906
  170SAPE    C219198   2.320   2.027   6.575 -0.1085 -0.3931 -0.4986
  170SAPE    HS19199   2.421   1.982   6.583  0.2033  0.2576 -0.7805
  170SAPE   O2119200   2.232   1.984   6.687 -0.3173 -0.1653  0.8421
  170SAPE   C2119201   2.281   2.001   6.812 -0.0594 -0.5154  0.0097
  170SAPE   O2219202   2.385   2.048   6.840 -0.5384  0.5127  0.3561
  170SAPE   C2219203   2.165   1.977   6.916 -0.1186  0.4186 -0.3068
  170SAPE   H2R19204   2.147   2.063   6.984 -0.8367 -0.0249  0.0656
  170SAPE   H2S19205   2.072   1.957   6.859 -0.0523  1.0724 -0.6518
  170SAPE    C319206   2.335   2.186   6.576  0.3749  0.2656 -0.1247
  170SAPE    HX19207   2.400   2.215   6.491 -0.0640 -0.7075 -0.8099
  170SAPE    HY19208   2.371   2.220   6.676 -0.2879  0.4083  0.0725
  170SAPE   O3119209   2.198   2.253   6.564  0.0039  0.4921 -0.1437
  170SAPE   C3119210   2.182   2.384   6.570  0.7721  0.1468 -0.4164
  170SAPE   O3219211   2.273   2.462   6.595  0.0424  0.0829 -0.0281
  170SAPE   C3219212   2.054   2.417   6.508  0.0671  0.7044  0.1212
  170SAPE   H2X19213   1.980   2.340   6.539 -2.3238  1.0018 -4.0734
  170SAPE   H2Y19214   2.061   2.428   6.398 -0.0898  0.2126  0.0599
  170SAPE   C2319215   2.196   1.857   7.002  0.2108 -0.7658 -0.8801
  170SAPE   H3R19216   2.219   1.768   6.940 -0.5156 -1.0367 -0.7674
  170SAPE   H3S19217   2.106   1.827   7.060  1.5515  0.5802  2.0997
  170SAPE   C2419218   2.310   1.868   7.104  0.5625 -0.1849 -0.3013
  170SAPE   H4R19219   2.292   1.951   7.176  0.1723 -0.4768 -0.0552
  170SAPE   H4S19220   2.404   1.899   7.054  0.1954  1.4732 -0.0217
  170SAPE   C2519221   2.331   1.727   7.160  0.7166 -0.4379  0.3656
  170SAPE   H5R19222   2.382   1.655   7.094 -3.7048 -0.0368 -4.1225
  170SAPE   C2619223   2.283   1.670   7.270 -0.6729  0.4854 -0.6651
  170SAPE   H6R19224   2.303   1.570   7.312 -1.0628  0.2931 -0.9294
  170SAPE   C2719225   2.197   1.743   7.363 -0.8430  0.0043 -0.8669
  170SAPE   H7R19226   2.117   1.675   7.399  1.7010 -1.4282  2.6725
  170SAPE   H7S19227   2.147   1.828   7.313  0.5802  1.3653 -0.0801
  170SAPE   C2819228   2.283   1.775   7.485 -0.0609  0.2780 -0.2597
  170SAPE   H8R19229   2.382   1.810   7.452  0.2161  2.1291  2.2358
  170SAPE   C2919230   2.247   1.754   7.615  0.4235 -0.1818 -0.4382
  170SAPE   H9R19231   2.325   1.789   7.685 -0.1044 -0.5693  0.3503
  170SAPE  C21019232   2.116   1.706   7.674 -0.3869  0.2545 -0.1149
  170SAPE  H10R19233   2.077   1.612   7.632 -3.7823  0.5211  2.0649
  170SAPE  H10S19234   2.037   1.780   7.649 -0.6441  0.6485  1.7084
  170SAPE  C21119235   2.116   1.677   7.828 -0.3994  0.2700 -0.2642
  170SAPE  H11R19236   2.141   1.580   7.874  1.1777  0.9411  0.3734
  170SAPE  C21219237   2.083   1.768   7.930  0.3129 -0.0045 -0.3263
  170SAPE  H12R19238   2.103   1.741   8.035 -0.0003 -0.7350 -0.4485
  170SAPE  C21319239   2.039   1.912   7.918  0.5062  0.6451  0.0444
  170SAPE  H13R19240   1.964   1.943   7.993  1.8560 -0.0860  1.7460
  170SAPE  H13S19241   2.009   1.936   7.813  2.0571 -0.6900 -0.7559
  170SAPE  C21419242   2.157   1.999   7.943  0.1488  0.8587 -0.0965
  170SAPE  H14R19243   2.202   2.032   7.848 -0.7906  1.0941 -0.4748
  170SAPE  C21519244   2.206   2.041   8.062  0.6014  0.1711  0.3688
  170SAPE  H15R19245   2.292   2.110   8.065 -0.1142  1.0793  0.4700
  170SAPE  C21619246   2.138   2.008   8.198  0.5296 -0.4764  0.1790
  170SAPE  H16R19247   2.055   1.935   8.189  0.3658 -0.4144  1.0512
  170SAPE  H16S19248   2.108   2.104   8.245  0.9711  0.0971 -0.6822
  170SAPE  C21719249   2.243   1.945   8.296 -0.1219 -0.4418  0.0008
  170SAPE  H17R19250   2.295   2.030   8.344  1.8082 -0.6615 -1.5536
  170SAPE  H17S19251   2.321   1.894   8.235 -0.4096  0.8090 -1.4682
  170SAPE  C21819252   2.187   1.854   8.397 -0.1022  0.7465  0.2289
  170SAPE  H18R19253   2.150   1.766   8.341  0.2150 -0.6258  2.0472
  170SAPE  H18S19254   2.099   1.886   8.457 -1.2020 -1.2992 -0.1836
  170SAPE  C21919255   2.292   1.799   8.494  0.0960  0.0672  0.3554
  170SAPE  H19R19256   2.317   1.860   8.583  1.1471  0.3271 -0.1069
  170SAPE  H19S19257   2.385   1.789   8.433 -1.3570  0.2923 -2.0594
  170SAPE  C22019258   2.265   1.659   8.555 -0.0931 -0.2608 -0.3224
  170SAPE  H20R19259   2.194   1.668   8.639 -0.0523 -2.3594 -0.0226
  170SAPE  H20S19260   2.362   1.610   8.579 -0.9171 -1.4101  0.7284
  170SAPE  H20T19261   2.218   1.595   8.477  0.6836  1.1194 -1.9790
  170SAPE   C3319262   1.995   2.555   6.554 -0.2573 -0.1546  0.4967
  170SAPE   H3X19263   1.930   2.581   6.467 -0.5401 -1.3985  0.3133
  170SAPE   H3Y19264   2.072   2.634   6.553 -0.6354  0.2181 -0.0542
  170SAPE   C3419265   1.922   2.547   6.688 -0.5046 -0.2011  0.1913
  170SAPE   H4X19266   1.995   2.502   6.758  0.1785  2.3963  1.2567
  170SAPE   H4Y19267   1.837   2.475   6.680 -2.1262  1.6545 -0.0117
  170SAPE   C3519268   1.863   2.684   6.727  0.7047 -0.2051 -0.7805
  170SAPE   H5X19269   1.791   2.718   6.648  1.6050  1.9632 -0.7516
  170SAPE   H5Y19270   1.935   2.768   6.734 -2.2472  2.6368 -1.6621
  170SAPE   C3619271   1.792   2.676   6.869 -1.0211 -0.4930  0.5728
  170SAPE   H6X19272   1.707   2.606   6.858  0.5954 -2.3242 -1.0446
  170SAPE   H6Y19273   1.747   2.774   6.894 -3.3245 -1.4101  0.2089
  170SAPE   C3719274   1.895   2.643   6.972  0.2778  0.9402  0.0915
  170SAPE   H7X19275   1.986   2.706   6.974  1.8857 -1.1743  3.4044
  170SAPE   H7Y19276   1.927   2.537   6.960  1.9623  1.5052 -0.8080
  170SAPE   C3819277   1.851   2.665   7.120 -0.3408 -0.1104 -0.0493
  170SAPE   H8X19278   1.836   2.771   7.148 -0.0947  0.0442 -0.4909
  170SAPE   H8Y19279   1.938   2.630   7.179  1.3924 -1.4709 -3.2206
  170SAPE   C3919280   1.736   2.584   7.163  0.3702 -0.3802  0.3681
  170SAPE   H9X19281   1.751   2.480   7.125 -1.3097 -0.0363 -1.3894
  170SAPE   H9Y19282   1.650   2.631   7.111  0.7484 -0.1435 -0.0420
  170SAPE  C31019283   1.734   2.592   7.316  0.1517  0.4744  0.0320
  170SAPE  H10X19284   1.715   2.694   7.357 -0.1195  0.0734  0.9273
  170SAPE  H10Y19285   1.834   2.569   7.359  0.5107  2.9404  0.6567
  170SAPE  C31119286   1.630   2.500   7.388 -0.6549 -0.0086 -0.0325
  170SAPE  H11X19287   1.662   2.399   7.354 -1.3372 -0.1022 -0.4207
  170SAPE  H11Y19288   1.528   2.520   7.347 -1.0875 -1.1370  0.4396
  170SAPE  C31219289   1.626   2.506   7.546 -0.2576 -0.3343  0.0870
  170SAPE  H12X19290   1.734   2.503   7.573 -0.1284 -0.9714 -0.4934
  170SAPE  H12Y19291   1.567   2.429   7.600  1.8100 -1.7910  0.4168
  170SAPE  C31319292   1.581   2.640   7.603  1.1830 -0.7021 -0.2496
  170SAPE  H13X19293   1.471   2.659   7.605  1.3946  0.8417 -1.6518
  170SAPE  H13Y19294   1.615   2.735   7.556 -3.2525  1.8943  1.1863
  170SAPE  C31419295   1.644   2.666   7.753 -0.0121  0.1904  0.2644
  170SAPE  H14X19296   1.604   2.766   7.781 -1.5998 -0.4618  0.4266
  170SAPE  H14Y19297   1.753   2.672   7.731 -0.2390  1.2062 -0.7088
  170SAPE  C31519298   1.586   2.579   7.860  0.0159 -0.0893 -0.8758
  170SAPE  H15X19299   1.633   2.478   7.848 -2.1996 -1.1133 -1.4647
  170SAPE  H15Y19300   1.478   2.559   7.847  0.1659  0.3376 -3.1556
  170SAPE  C31619301   1.601   2.638   8.007  0.4070 -0.3249 -0.0333
  170SAPE  H16X19302   1.531   2.723   8.016  1.0202  0.1654  0.2197
  170SAPE  H16Y19303   1.702   2.682   8.019 -0.4555  1.7813 -0.0876
  170SAPE  C31719304   1.585   2.539   8.121  0.2841  0.4796 -0.4703
  170SAPE  H17X19305   1.658   2.456   8.110 -0.0622  0.2635 -1.2258
  170SAPE  H17Y19306   1.485   2.491   8.120 -0.5077  2.0503 -1.2240
  170SAPE  C31819307   1.599   2.608   8.250 -0.4655  0.1333 -0.8351
  170SAPE  H18X19308   1.578   2.531   8.327  1.8114  0.9364  0.7088
  170SAPE  H18Y19309   1.519   2.684   8.260 -0.4856  0.2564 -1.7947
  170SAPE  H18Z19310   1.701   2.644   8.276 -0.2834 -0.6612 -0.4398
  171SAPE     N19311   3.591   5.466   6.572 -0.0829 -0.6261 -0.1600
  171SAPE   HN119312   3.573   5.370   6.538 -0.6074 -1.0850  1.3310
  171SAPE   HN219313   3.506   5.527   6.573  0.1273 -0.2496 -1.8326
  171SAPE   HN319314   3.657   5.526   6.519 -1.3080  1.4791  0.5603
  171SAPE   C1219315   3.647   5.456   6.703  0.0233  0.6552 -0.5793
  171SAPE  H12A19316   3.575   5.407   6.772  0.4557  0.4821 -0.2456
  171SAPE  H12B19317   3.661   5.559   6.743 -0.6323  0.8573 -0.8451
  171SAPE   C1119318   3.780   5.381   6.694  0.0906 -0.1517  0.5599
  171SAPE  H11A19319   3.815   5.367   6.799  1.6732  2.1414  0.4128
  171SAPE  H11B19320   3.853   5.458   6.661  2.9598 -2.2180  1.7407
  171SAPE     P19321   3.891   5.160   6.609  0.3239 -0.1264  0.2595
  171SAPE   O1319322   3.843   5.037   6.544 -0.8126 -0.6691  0.4561
  171SAPE   O1419323   4.022   5.215   6.563  0.5333  0.2758 -0.7754
  171SAPE   O1219324   3.780   5.275   6.602  0.7967 -0.6859  0.0787
  171SAPE   O1119325   3.905   5.130   6.762  0.1908 -0.9925 -0.6611
  171SAPE    C119326   3.798   5.106   6.848  0.2211  0.1910 -0.3725
  171SAPE    HA19327   3.764   5.201   6.896  2.4507  2.8861 -3.6022
  171SAPE    HB19328   3.710   5.062   6.797  0.0417 -0.4833  0.4841
  171SAPE    C219329   3.839   4.987   6.941  0.8020 -0.2397 -0.1772
  171SAPE    HS19330   3.747   4.931   6.970  1.4053 -0.6826  0.9089
  171SAPE   O2119331   3.907   5.025   7.061  0.1981 -0.6831 -0.3063
  171SAPE   C2119332   3.826   5.096   7.139  0.0795 -0.2094 -0.9211
  171SAPE   O2219333   3.708   5.112   7.120  0.8725  0.2437  0.1728
  171SAPE   C2219334   3.907   5.148   7.262 -0.4295  0.2969  0.0544
  171SAPE   H2R19335   3.990   5.076   7.278 -1.6917 -1.3081 -0.3428
  171SAPE   H2S19336   3.958   5.242   7.232 -1.3370  0.3070 -1.6283
  171SAPE    C319337   3.920   4.884   6.856 -0.3650 -0.1402  0.2139
  171SAPE    HX19338   4.008   4.927   6.804 -0.5899 -1.1376 -1.0250
  171SAPE    HY19339   3.854   4.854   6.772  0.9749 -1.2750 -0.4656
  171SAPE   O3119340   3.961   4.767   6.928 -0.2360 -0.5544  0.0905
  171SAPE   C3119341   3.871   4.690   6.971  0.1779 -0.1015 -0.6969
  171SAPE   O3219342   3.751   4.711   6.971 -0.3133  0.7121  0.3480
  171SAPE   C3219343   3.931   4.553   7.005  0.2101 -0.4155  0.3233
  171SAPE   H2X19344   4.038   4.558   6.975  0.8215 -1.8839  2.0646
  171SAPE   H2Y19345   3.872   4.479   6.946  0.2203 -0.1114 -0.0699
  171SAPE   C2319346   3.840   5.179   7.392  0.5563 -0.0765  0.0386
  171SAPE   H3R19347   3.774   5.098   7.431  0.0215  0.1970 -0.2939
  171SAPE   H3S19348   3.775   5.268   7.377  3.3355  1.9149 -1.1922
  171SAPE   C2419349   3.940   5.221   7.498 -0.1532  0.8524  0.4487
  171SAPE   H4R19350   3.994   5.315   7.475  1.2940  0.0001  0.2697
  171SAPE   H4S19351   4.017   5.145   7.519 -1.4203 -0.0488  2.0464
  171SAPE   C2519352   3.866   5.242   7.629 -0.0033  0.2019 -0.1161
  171SAPE   H5R19353   3.764   5.282   7.618 -0.3322 -0.2681  1.1444
  171SAPE   C2619354   3.910   5.209   7.751  0.4892  0.0721  0.1620
  171SAPE   H6R19355   3.837   5.224   7.832 -2.3461 -0.5613 -2.1042
  171SAPE   C2719356   4.027   5.125   7.789  0.2925  0.4522  0.2909
  171SAPE   H7R19357   4.115   5.192   7.797  1.1357 -0.6344  0.2722
  171SAPE   H7S19358   4.055   5.059   7.704  1.9923  0.6549  0.6520
  171SAPE   C2819359   4.017   5.036   7.909  0.0598  0.3990 -0.3889
  171SAPE   H8R19360   4.017   4.929   7.883 -2.6840 -0.3083  2.0008
  171SAPE   C2919361   4.008   5.071   8.040  0.2108  0.1213 -0.0725
  171SAPE   H9R19362   4.005   4.995   8.119  1.4417 -2.0819 -2.0337
  171SAPE  C21019363   4.002   5.211   8.103  0.3181  1.0295  0.1295
  171SAPE  H10R19364   4.023   5.265   8.008 -1.4822 -1.4199 -1.8078
  171SAPE  H10S19365   4.084   5.231   8.175  2.9703  3.3991 -3.2007
  171SAPE  C21119366   3.859   5.246   8.135  0.4845  0.5801 -0.0871
  171SAPE  H11R19367   3.787   5.170   8.101  0.8893 -0.1604  0.6607
  171SAPE  C21219368   3.816   5.355   8.202  0.1316  0.3984  0.4865
  171SAPE  H12R19369   3.708   5.358   8.221 -1.0129  1.4493 -4.7186
  171SAPE  C21319370   3.898   5.470   8.258  0.9953 -0.5977 -0.3556
  171SAPE  H13R19371   3.950   5.523   8.175  0.2802  3.6645  1.6229
  171SAPE  H13S19372   3.977   5.434   8.327  0.8050 -2.0071 -0.8527
  171SAPE  C21419373   3.826   5.564   8.346 -0.5291 -1.0670 -0.4901
  171SAPE  H14R19374   3.752   5.517   8.411 -1.2216 -2.8413 -2.4584
  171SAPE  C21519375   3.865   5.696   8.367  0.2589 -0.4280  0.5204
  171SAPE  H15R19376   3.805   5.752   8.441 -0.8306  0.2208 -0.8214
  171SAPE  C21619377   3.990   5.766   8.312  0.9701  0.4770  0.3081
  171SAPE  H16R19378   3.960   5.787   8.207 -2.4978 -5.0900 -0.2188
  171SAPE  H16S19379   4.074   5.694   8.303  0.4120 -0.2251  0.6532
  171SAPE  C21719380   4.052   5.879   8.400 -0.2102  0.1324  0.1907
  171SAPE  H17R19381   3.973   5.946   8.441 -0.3623  2.2630 -3.1997
  171SAPE  H17S19382   4.118   5.947   8.342 -0.9373  0.7176  0.0297
  171SAPE  C21819383   4.138   5.812   8.504 -0.0041 -0.2834 -0.7956
  171SAPE  H18R19384   4.230   5.763   8.463 -0.2041 -1.3979  0.0544
  171SAPE  H18S19385   4.076   5.732   8.550  0.0764  0.7741  1.2603
  171SAPE  C21919386   4.181   5.909   8.620 -0.3830 -0.2317  0.6205
  171SAPE  H19R19387   4.248   5.847   8.683 -3.3091 -3.2352  1.0947
  171SAPE  H19S19388   4.093   5.926   8.686  0.8652  0.3500  2.2055
  171SAPE  C22019389   4.249   6.049   8.586  0.0365  0.4377  0.0500
  171SAPE  H20R19390   4.193   6.115   8.516 -2.6500  1.0127  2.5209
  171SAPE  H20S19391   4.351   6.031   8.547  0.2276  2.0595 -0.2660
  171SAPE  H20T19392   4.273   6.102   8.681 -2.6805 -1.0403  1.6930
  171SAPE   C3319393   3.902   4.511   7.154 -0.4248 -0.0817  0.4404
  171SAPE   H3X19394   3.934   4.405   7.161 -0.8211 -0.1609  1.2079
  171SAPE   H3Y19395   3.798   4.522   7.191  0.8431  3.3138  3.5694
  171SAPE   C3419396   3.985   4.595   7.247 -0.4207  0.2255 -0.5124
  171SAPE   H4X19397   4.090   4.602   7.210 -0.6038 -0.0801 -1.0845
  171SAPE   H4Y19398   3.994   4.543   7.345 -1.0873  0.9254 -0.0704
  171SAPE   C3519399   3.926   4.727   7.288 -0.2791  0.5574 -0.4800
  171SAPE   H5X19400   3.823   4.740   7.249 -0.8586 -0.0499  0.8026
  171SAPE   H5Y19401   3.985   4.804   7.233 -0.3118  1.2577  0.4259
  171SAPE   C3619402   3.932   4.760   7.438 -0.1839 -0.0306  0.1314
  171SAPE   H6X19403   3.935   4.869   7.459  2.0375  0.4144 -2.0381
  171SAPE   H6Y19404   4.036   4.731   7.460  0.5316  1.1403 -1.5065
  171SAPE   C3719405   3.832   4.689   7.524  0.2890 -0.1301  0.1891
  171SAPE   H7X19406   3.809   4.596   7.468  2.4253 -0.6805  0.1677
  171SAPE   H7Y19407   3.742   4.754   7.537  1.6921  1.8648  0.3349
  171SAPE   C3819408   3.877   4.665   7.666  0.7009  0.2480  0.2818
  171SAPE   H8X19409   3.904   4.764   7.707  1.2110  0.7829 -1.2506
  171SAPE   H8Y19410   3.967   4.600   7.664  0.0790 -0.6379  0.4604
  171SAPE   C3919411   3.781   4.589   7.750 -0.2155 -0.5310  0.2076
  171SAPE   H9X19412   3.756   4.500   7.690 -2.2864  1.2733 -1.7821
  171SAPE   H9Y19413   3.687   4.647   7.738  0.1133 -0.0499 -0.0806
  171SAPE  C31019414   3.832   4.582   7.894  0.9953 -0.4797 -0.6332
  171SAPE  H10X19415   3.842   4.687   7.930 -0.6052  0.0883 -1.6905
  171SAPE  H10Y19416   3.931   4.533   7.906  2.0785  1.3351 -1.7004
  171SAPE  C31119417   3.730   4.512   7.986  0.1583  0.0860 -0.5249
  171SAPE  H11X19418   3.720   4.409   7.945  0.3334 -0.3196  0.4140
  171SAPE  H11Y19419   3.634   4.566   7.996  0.6549  0.8077  0.5550
  171SAPE  C31219420   3.765   4.505   8.139  0.1874  0.2110 -0.2001
  171SAPE  H12X19421   3.790   4.608   8.173  0.2990  1.0026 -2.4992
  171SAPE  H12Y19422   3.848   4.433   8.153 -1.2289 -1.5241 -0.3903
  171SAPE  C31319423   3.646   4.445   8.212  0.1506  0.2475  0.4259
  171SAPE  H13X19424   3.617   4.351   8.161  0.2836  0.5375 -0.1958
  171SAPE  H13Y19425   3.557   4.507   8.236  0.8186  1.1323  0.7288
  171SAPE  C31419426   3.689   4.403   8.361 -0.2095  0.5828  0.4297
  171SAPE  H14X19427   3.799   4.419   8.363 -0.3613  1.5888  2.6868
  171SAPE  H14Y19428   3.668   4.297   8.387 -1.0553  1.4104  3.4189
  171SAPE  C31519429   3.611   4.476   8.477 -0.1236  0.1338  0.4575
  171SAPE  H15X19430   3.501   4.476   8.459 -0.2393  1.0023  1.0577
  171SAPE  H15Y19431   3.646   4.581   8.476  2.5639 -0.6764  1.2495
  171SAPE  C31619432   3.646   4.406   8.610  0.3205 -0.6119 -0.9065
  171SAPE  H16X19433   3.619   4.298   8.606  0.9943 -0.7715 -1.2854
  171SAPE  H16Y19434   3.586   4.459   8.687  2.2526 -0.8695  0.8487
  171SAPE  C31719435   3.789   4.433   8.658 -0.2834 -0.0851  0.0101
  171SAPE  H17X19436   3.808   4.542   8.651  1.2868 -0.3596 -0.3249
  171SAPE  H17Y19437   3.872   4.399   8.593 -0.5913 -1.3805  0.2779
  171SAPE  C31819438   3.820   4.376   8.791 -0.2010  0.1377 -0.1660
  171SAPE  H18X19439   3.761   4.282   8.799  1.2070 -0.8537 -0.9890
  171SAPE  H18Y19440   3.809   4.443   8.879  1.2393 -1.7559  1.5566
  171SAPE  H18Z19441   3.925   4.340   8.782 -0.9645 -2.2229 -0.0998
  172SAPE     N19442   3.217   3.843   5.987 -0.1076 -0.5195  0.1603
  172SAPE   HN119443   3.315   3.823   6.017 -0.2979 -0.8273  0.5831
  172SAPE   HN219444   3.180   3.779   5.914 -3.7987 -0.7167  2.0116
  172SAPE   HN319445   3.210   3.937   5.944  0.6121  0.0159  1.1626
  172SAPE   C1219446   3.151   3.832   6.117 -0.7394 -0.3822  0.2138
  172SAPE  H12A19447   3.082   3.745   6.112 -0.3473 -0.6462 -0.8783
  172SAPE  H12B19448   3.096   3.924   6.142 -2.8810 -0.9771 -1.9695
  172SAPE   C1119449   3.262   3.797   6.218  0.2540  0.4207 -0.4351
  172SAPE  H11A19450   3.282   3.688   6.210 -0.4908  0.4007 -2.5380
  172SAPE  H11B19451   3.222   3.801   6.322  0.9392  1.7491 -0.2012
  172SAPE     P19452   3.518   3.836   6.275 -0.1012  0.5684  0.4247
  172SAPE   O1319453   3.559   3.697   6.247 -0.5366  0.0422  0.4881
  172SAPE   O1419454   3.617   3.941   6.241 -0.0137  0.3053  0.2924
  172SAPE   O1219455   3.380   3.879   6.210 -0.4414  0.1047  0.7552
  172SAPE   O1119456   3.486   3.853   6.434  0.9207 -0.1939  0.4519
  172SAPE    C119457   3.461   3.976   6.497 -0.1234  0.0250  0.9919
  172SAPE    HA19458   3.550   4.043   6.496 -1.8166  2.4154 -0.0201
  172SAPE    HB19459   3.386   4.030   6.435  0.9793 -3.3749 -3.8297
  172SAPE    C219460   3.412   3.966   6.643  0.4765 -0.3075 -0.8396
  172SAPE    HS19461   3.418   4.068   6.687 -0.7540 -0.3137 -0.5988
  172SAPE   O2119462   3.478   3.859   6.722  0.1590  0.1417  0.2562
  172SAPE   C2119463   3.599   3.880   6.742 -0.5997 -0.2762  0.0891
  172SAPE   O2219464   3.671   3.972   6.702  0.0050 -0.0719  0.2502
  172SAPE   C2219465   3.657   3.766   6.816  0.3813  0.0864  0.2715
  172SAPE   H2R19466   3.582   3.684   6.825  0.2883  0.3166  2.0428
  172SAPE   H2S19467   3.733   3.721   6.749 -0.7464 -0.8539 -0.4100
  172SAPE    C319468   3.259   3.942   6.645  0.4284  1.1513 -0.2084
  172SAPE    HX19469   3.253   3.843   6.597 -0.3328  1.0783  0.0287
  172SAPE    HY19470   3.215   4.017   6.576  2.1842  1.4292 -1.0823
  172SAPE   O3119471   3.207   3.941   6.783  0.2685 -0.2901  0.4105
  172SAPE   C3119472   3.215   3.828   6.843 -0.0651  0.5671 -0.3471
  172SAPE   O3219473   3.228   3.717   6.791  0.2470  0.0369 -0.9819
  172SAPE   C3219474   3.195   3.861   6.995 -0.8336 -0.0703  0.7473
  172SAPE   H2X19475   3.095   3.828   7.031 -1.9279  2.1172 -0.1086
  172SAPE   H2Y19476   3.198   3.972   7.002 -1.0810 -0.0492  0.5467
  172SAPE   C2319477   3.721   3.805   6.954  0.1230 -0.0951  0.4518
  172SAPE   H3R19478   3.660   3.879   7.009  0.5417  0.7622 -0.2148
  172SAPE   H3S19479   3.814   3.862   6.934  0.2652 -0.8254 -1.0916
  172SAPE   C2419480   3.742   3.688   7.059 -0.1705 -0.6933 -0.4887
  172SAPE   H4R19481   3.808   3.741   7.132  0.4737  1.5118 -2.5159
  172SAPE   H4S19482   3.810   3.620   7.004 -1.0378 -2.5247  0.6074
  172SAPE   C2519483   3.626   3.630   7.132 -0.1760  0.0544  0.0406
  172SAPE   H5R19484   3.538   3.606   7.071 -0.7883 -0.6816  1.1937
  172SAPE   C2619485   3.622   3.621   7.266  0.0609  0.2682  0.1239
  172SAPE   H6R19486   3.533   3.581   7.318  0.0547 -0.6024 -0.5400
  172SAPE   C2719487   3.720   3.665   7.366 -0.2617 -0.2549 -0.1215
  172SAPE   H7R19488   3.820   3.635   7.328  0.2412  2.6713 -1.3588
  172SAPE   H7S19489   3.698   3.610   7.460  1.2857 -1.3011 -0.3206
  172SAPE   C2819490   3.710   3.820   7.388  0.4738  0.5720  0.0446
  172SAPE   H8R19491   3.762   3.882   7.314  0.6263 -0.6479 -0.9028
  172SAPE   C2919492   3.653   3.889   7.489 -0.1169 -0.0490  0.0209
  172SAPE   H9R19493   3.659   3.999   7.498  0.9177 -0.2123  1.6898
  172SAPE  C21019494   3.575   3.828   7.604  0.3567  0.2512  0.5724
  172SAPE  H10R19495   3.536   3.726   7.585  0.0180  0.5834 -0.6244
  172SAPE  H10S19496   3.483   3.882   7.631  1.2146  2.4871 -0.6705
  172SAPE  C21119497   3.670   3.808   7.719  0.2074  0.9394 -0.2797
  172SAPE  H11R19498   3.738   3.723   7.705 -1.6228 -0.6640  0.0521
  172SAPE  C21219499   3.652   3.859   7.843 -0.3694 -0.4129 -0.3819
  172SAPE  H12R19500   3.719   3.829   7.924  0.2747 -1.0682 -1.1524
  172SAPE  C21319501   3.550   3.961   7.898  0.4865  0.2843 -0.5615
  172SAPE  H13R19502   3.460   3.917   7.945 -0.0186  1.3206 -0.5296
  172SAPE  H13S19503   3.518   4.027   7.815  1.5059  0.8338 -0.5435
  172SAPE  C21419504   3.615   4.043   8.007 -0.1069 -0.4537  0.8077
  172SAPE  H14R19505   3.649   4.142   7.973  0.3426 -0.1418  2.1292
  172SAPE  C21519506   3.616   4.023   8.136 -0.2098  0.1420 -1.0032
  172SAPE  H15R19507   3.665   4.094   8.204 -1.2016  1.3721 -1.5247
  172SAPE  C21619508   3.564   3.895   8.209 -0.3085 -0.1439  0.8028
  172SAPE  H16R19509   3.637   3.875   8.290 -2.6636 -0.2158  3.0354
  172SAPE  H16S19510   3.544   3.809   8.141 -0.5723 -1.4960  2.5034
  172SAPE  C21719511   3.427   3.914   8.283  0.2050 -0.0451 -0.4091
  172SAPE  H17R19512   3.400   3.811   8.317 -1.8417 -0.2960 -2.4700
  172SAPE  H17S19513   3.345   3.949   8.215 -0.2505  0.9887  0.6382
  172SAPE  C21819514   3.429   3.992   8.410  0.4891 -0.1431 -0.0918
  172SAPE  H18R19515   3.329   4.023   8.448  0.3280 -2.1517  1.2397
  172SAPE  H18S19516   3.486   4.086   8.392 -1.2831  0.9004 -0.5524
  172SAPE  C21919517   3.510   3.923   8.519  0.2972  0.6387  0.0985
  172SAPE  H19R19518   3.618   3.916   8.493 -0.0292  1.6739 -1.7306
  172SAPE  H19S19519   3.483   3.815   8.521 -1.2699  0.9722 -0.9580
  172SAPE  C22019520   3.498   3.977   8.664 -0.7180  0.5338 -0.4998
  172SAPE  H20R19521   3.395   3.960   8.704 -0.9451  0.8488 -0.9346
  172SAPE  H20S19522   3.530   4.083   8.673 -0.2750  0.4277 -0.8285
  172SAPE  H20T19523   3.572   3.915   8.719  0.5368 -0.1205 -2.7852
  172SAPE   C3319524   3.311   3.793   7.083  0.5471 -0.2449  0.2417
  172SAPE   H3X19525   3.402   3.847   7.049 -0.6447  1.1162 -0.9062
  172SAPE   H3Y19526   3.319   3.684   7.060  1.5282 -0.2409  0.5002
  172SAPE   C3419527   3.302   3.828   7.233  0.6417 -0.5735  0.5809
  172SAPE   H4X19528   3.295   3.938   7.241  1.4240 -0.3368 -1.3124
  172SAPE   H4Y19529   3.388   3.786   7.289  0.7287  0.0975  0.9557
  172SAPE   C3519530   3.179   3.774   7.302 -0.1992 -0.0383  0.4668
  172SAPE   H5X19531   3.184   3.663   7.310  0.3484 -0.2712 -2.1540
  172SAPE   H5Y19532   3.082   3.795   7.254  0.1241  0.3340 -0.0303
  172SAPE   C3619533   3.166   3.810   7.448  0.2610 -0.2674  0.0860
  172SAPE   H6X19534   3.158   3.920   7.460  0.2954 -0.3543  1.0442
  172SAPE   H6Y19535   3.257   3.779   7.504  1.0666  2.4375  0.4223
  172SAPE   C3719536   3.049   3.742   7.518 -0.1002  0.1152  0.6919
  172SAPE   H7X19537   3.065   3.632   7.522  0.8243  0.1866 -0.5924
  172SAPE   H7Y19538   2.956   3.769   7.462 -0.1564  0.5321  0.9793
  172SAPE   C3819539   3.037   3.783   7.667  0.7153 -0.2029  0.3349
  172SAPE   H8X19540   2.939   3.751   7.707  0.0118  0.8351 -0.5332
  172SAPE   H8Y19541   3.049   3.893   7.676 -1.1872 -0.0864  2.2928
  172SAPE   C3919542   3.140   3.717   7.758  0.4051  0.0497  0.2672
  172SAPE   H9X19543   3.236   3.746   7.712 -1.0810  1.9571 -1.8354
  172SAPE   H9Y19544   3.123   3.607   7.749 -4.0886  0.6852 -1.5362
  172SAPE  C31019545   3.142   3.754   7.905 -0.1442  0.2309  0.4772
  172SAPE  H10X19546   3.123   3.861   7.930  1.4270  0.6223  0.1492
  172SAPE  H10Y19547   3.252   3.743   7.920  0.2240  0.5342 -1.6627
  172SAPE  C31119548   3.052   3.663   7.985  0.4000 -1.1683 -0.9136
  172SAPE  H11X19549   3.046   3.555   7.957  0.2266 -2.2478  2.8048
  172SAPE  H11Y19550   2.947   3.695   7.972  0.1857 -2.4246 -2.8140
  172SAPE  C31219551   3.084   3.658   8.133  0.4967 -0.2691 -0.3141
  172SAPE  H12X19552   3.191   3.627   8.139  0.6350 -0.0695 -1.5015
  172SAPE  H12Y19553   3.013   3.591   8.187  0.9614  1.0570  2.0792
  172SAPE  C31319554   3.068   3.789   8.208  0.1212  0.3662 -0.4381
  172SAPE  H13X19555   2.971   3.836   8.182  0.5801  1.4635 -0.2505
  172SAPE  H13Y19556   3.155   3.849   8.172 -0.5491  2.2355  0.9107
  172SAPE  C31419557   3.081   3.778   8.367 -0.1916 -0.3246 -0.3697
  172SAPE  H14X19558   3.186   3.748   8.387 -0.0517 -0.5255 -1.3527
  172SAPE  H14Y19559   3.012   3.705   8.415 -1.7361  0.6420 -1.0517
  172SAPE  C31519560   3.059   3.919   8.428  0.1125 -0.4660 -0.4128
  172SAPE  H15X19561   2.962   3.962   8.395  1.6731  2.3364 -1.6664
  172SAPE  H15Y19562   3.137   3.982   8.380  2.1345 -2.2988  0.2953
  172SAPE  C31619563   3.085   3.939   8.575 -0.3040 -0.5925 -0.0625
  172SAPE  H16X19564   3.092   4.048   8.596 -2.5065 -0.2865 -0.6901
  172SAPE  H16Y19565   3.181   3.896   8.612 -0.3333 -0.7311 -0.1472
  172SAPE  C31719566   2.977   3.884   8.673  0.2023  0.1864 -0.8319
  172SAPE  H17X19567   2.965   3.775   8.651 -0.3371  0.1011 -0.1249
  172SAPE  H17Y19568   2.877   3.926   8.650  0.1140 -0.3177 -1.4087
  172SAPE  C31819569   2.999   3.899   8.827  0.4470 -0.2002 -0.2794
  172SAPE  H18X19570   2.924   3.849   8.893  0.3337 -1.1701 -1.1209
  172SAPE  H18Y19571   3.012   4.004   8.863  0.4933 -0.1873 -0.3346
  172SAPE  H18Z19572   3.097   3.852   8.850  0.3820 -0.9917 -1.5235
  173SOPE     N19573   0.164   0.894  10.856 -0.4982  0.4378  0.1799
  173SOPE   HN119574   0.202   0.959  10.784  1.2568  0.2848  0.9109
  173SOPE   HN219575   0.131   0.811  10.803 -0.3872 -0.9812  2.2114
  173SOPE   HN319576   0.085   0.947  10.898 -2.3607 -0.7792 -1.5863
  173SOPE   C1219577   0.255   0.850  10.972  0.1373  0.3427 -0.2421
  173SOPE  H12A19578   0.247   0.739  10.974  2.2687  0.1477  1.6742
  173SOPE  H12B19579   0.205   0.885  11.065  3.2540  1.7713  1.0590
  173SOPE   C1119580   0.393   0.904  10.951 -0.1263  0.1807  0.5326
  173SOPE  H11A19581   0.438   0.852  10.864 -2.9605  2.2766 -2.4252
  173SOPE  H11B19582   0.460   0.894  11.040 -1.4009 -0.5520  1.4470
  173SOPE     P19583   0.478   1.151  10.963 -0.0417 -0.3045 -0.2868
  173SOPE   O1319584   0.543   1.121  11.101  0.2599  0.0033 -0.1516
  173SOPE   O1419585   0.395   1.274  10.962  0.2177  0.2427  0.5904
  173SOPE   O1219586   0.378   1.042  10.922  0.1215  0.4562  0.3273
  173SOPE   O1119587   0.587   1.154  10.853  0.2576  0.3989  0.0106
  173SOPE    C119588   0.551   1.120  10.719 -0.1968  0.1758  0.6007
  173SOPE    HA19589   0.515   1.015  10.718 -0.0566  0.1254  0.7168
  173SOPE    HB19590   0.636   1.125  10.648 -1.1058  4.2474 -0.4431
  173SOPE    C219591   0.459   1.224  10.653  0.8670  0.3758 -0.2646
  173SOPE    HS19592   0.371   1.242  10.719  1.5273 -1.3750  1.1895
  173SOPE   O2119593   0.405   1.175  10.536  0.4019 -0.3126 -0.2364
  173SOPE   C2119594   0.312   1.080  10.545  0.1024 -0.4896  0.3247
  173SOPE   O2219595   0.269   1.032  10.646  0.5039  0.3779  0.4001
  173SOPE   C2219596   0.258   1.042  10.417 -0.0579 -0.0289  0.0621
  173SOPE   H2R19597   0.147   1.041  10.422 -0.0142 -1.5489  2.5547
  173SOPE   H2S19598   0.284   0.937  10.390 -1.1366  0.0989 -1.6311
  173SOPE    C319599   0.527   1.362  10.624  0.4200  0.3684 -0.6638
  173SOPE    HX19600   0.565   1.403  10.720 -0.5233  1.0951 -0.5841
  173SOPE    HY19601   0.453   1.431  10.579  0.1148  1.0622  0.8425
  173SOPE   O3119602   0.636   1.352  10.532 -0.2678 -0.0113  0.3336
  173SOPE   C3119603   0.712   1.461  10.530 -0.1776  0.7929 -0.0608
  173SOPE   O3219604   0.685   1.567  10.581 -0.5500  0.1350 -0.9517
  173SOPE   C3219605   0.833   1.423  10.443  0.5335 -0.0560  0.1919
  173SOPE   H2X19606   0.870   1.329  10.488 -1.3594 -1.1748 -0.4327
  173SOPE   H2Y19607   0.911   1.501  10.447  0.5994 -0.1771  1.5993
  173SOPE   C2319608   0.286   1.139  10.302  0.2854  0.2201 -0.5353
  173SOPE   H3R19609   0.395   1.148  10.282  0.4861  0.1598  0.4463
  173SOPE   H3S19610   0.234   1.235  10.319  2.3760  1.1140  1.5115
  173SOPE   C2419611   0.240   1.086  10.163 -0.1027  0.1221  0.4463
  173SOPE   H4R19612   0.274   1.169  10.098 -0.3433  0.1739  0.3876
  173SOPE   H4S19613   0.291   0.990  10.140  1.5061  1.5337 -2.4151
  173SOPE   C2519614   0.082   1.082  10.156 -0.1050  0.2482  0.2707
  173SOPE   H5R19615   0.041   0.989  10.200 -1.3401  0.0171 -1.2454
  173SOPE   H5S19616   0.047   1.168  10.216 -1.2889 -0.0762  0.0706
  173SOPE   C2619617   0.032   1.084  10.008  0.5371 -0.2978 -0.0270
  173SOPE   H6R19618   0.106   1.027   9.948  1.2129 -1.0120  1.4076
  173SOPE   H6S19619  -0.062   1.024  10.013  0.5301 -0.2383  0.9172
  173SOPE   C2719620  -0.005   1.220   9.946 -0.6278 -0.1227  0.4034
  173SOPE   H7R19621  -0.073   1.281  10.009 -1.8931 -0.2191 -0.8236
  173SOPE   H7S19622   0.089   1.277   9.931  1.0761 -2.4989  1.3973
  173SOPE   C2819623  -0.072   1.195   9.813  0.4218  0.2354 -0.6339
  173SOPE   H8R19624  -0.005   1.151   9.737  1.8747  0.6852  0.3407
  173SOPE   H8S19625  -0.140   1.111   9.838  1.8713 -1.2450 -1.5191
  173SOPE   C2919626  -0.135   1.324   9.748 -0.2464 -0.2470  0.4132
  173SOPE   H9119627  -0.210   1.370   9.814 -2.2930 -2.4116 -0.2559
  173SOPE  C21019628  -0.126   1.368   9.623  0.0062 -0.7296 -0.6400
  173SOPE  H10119629  -0.179   1.459   9.592 -0.2836 -1.2670 -1.7799
  173SOPE  C21119630  -0.047   1.315   9.507 -0.7748  0.2545 -0.0447
  173SOPE  H11R19631   0.038   1.250   9.535 -0.3209  1.3928  1.3335
  173SOPE  H11S19632  -0.008   1.395   9.442  1.4287  1.2877  2.3704
  173SOPE  C21219633  -0.141   1.219   9.428 -0.2677 -0.3413 -0.3255
  173SOPE  H12R19634  -0.189   1.136   9.483 -1.2735  1.2005  1.2358
  173SOPE  H12S19635  -0.064   1.185   9.355  1.5263  1.3886  0.6646
  173SOPE  C21319636  -0.242   1.291   9.340  0.8706 -0.4606  0.3698
  173SOPE  H13R19637  -0.307   1.352   9.407 -1.7231 -0.0615 -2.2757
  173SOPE  H13S19638  -0.315   1.225   9.289  1.1100  0.8583 -1.8402
  173SOPE  C21419639  -0.191   1.396   9.244  0.9967  0.5039  0.1847
  173SOPE  H14R19640  -0.149   1.342   9.156 -1.5109  1.3867 -1.6778
  173SOPE  H14S19641  -0.122   1.478   9.273  0.4203  1.8976 -2.1146
  173SOPE  C21519642  -0.307   1.482   9.192  0.5101 -0.6829  0.3949
  173SOPE  H15R19643  -0.363   1.529   9.276 -1.5046 -3.6107  0.8514
  173SOPE  H15S19644  -0.382   1.415   9.143 -0.7682 -0.3357  1.8121
  173SOPE  C21619645  -0.253   1.592   9.092 -0.3819  0.2249  0.4540
  173SOPE  H16R19646  -0.189   1.656   9.157 -0.1093  0.3315  0.0816
  173SOPE  H16S19647  -0.347   1.649   9.072 -0.4847  1.0686  2.9667
  173SOPE  C21719648  -0.182   1.547   8.963 -0.1408 -0.1093  0.2564
  173SOPE  H17R19649  -0.116   1.461   8.989 -1.1169 -0.8351  0.4174
  173SOPE  H17S19650  -0.134   1.638   8.921 -0.4006  0.2291  0.6787
  173SOPE  C21819651  -0.293   1.513   8.860  0.0904  0.7917 -0.0447
  173SOPE  H18R19652  -0.336   1.418   8.898 -1.1917  2.1016  1.9554
  173SOPE  H18S19653  -0.260   1.495   8.755 -0.5601  0.4691 -0.1956
  173SOPE  H18T19654  -0.374   1.588   8.852  0.3983  1.0936 -0.4070
  173SOPE   C3319655   0.796   1.388  10.294  0.3525 -0.2354 -0.1311
  173SOPE   H3X19656   0.729   1.302  10.272  0.8701 -0.3467 -1.3512
  173SOPE   H3Y19657   0.893   1.345  10.263  1.5388  0.5346  2.2390
  173SOPE   C3419658   0.757   1.493  10.199  0.5049  0.8961  1.0625
  173SOPE   H4X19659   0.845   1.561  10.193  0.6197  0.7571  1.1667
  173SOPE   H4Y19660   0.671   1.546  10.246 -0.8796 -0.6745  0.3962
  173SOPE   C3519661   0.717   1.446  10.048  0.1504  0.9481 -0.5061
  173SOPE   H5X19662   0.811   1.406  10.005 -0.0510 -0.5310  0.3749
  173SOPE   H5Y19663   0.691   1.541   9.995  0.8873  2.8809  2.3300
  173SOPE   C3619664   0.602   1.339  10.026  0.1591 -0.1369  0.5952
  173SOPE   H6X19665   0.505   1.391  10.042 -1.0018 -1.6527 -1.1366
  173SOPE   H6Y19666   0.609   1.260  10.104  2.7581  0.0421  0.6154
  173SOPE   C3719667   0.613   1.284   9.887  0.6236  0.5484 -0.3272
  173SOPE   H7X19668   0.587   1.176   9.878  1.9494  0.0673  1.1030
  173SOPE   H7Y19669   0.719   1.277   9.856  0.5229 -1.4817 -0.3536
  173SOPE   C3819670   0.540   1.358   9.777  0.7291  0.0224  0.2346
  173SOPE   H8X19671   0.562   1.467   9.770  1.9476 -0.2050  0.3359
  173SOPE   H8Y19672   0.431   1.361   9.795  0.7968  0.8128  0.5962
  173SOPE   C3919673   0.550   1.298   9.636  0.1549  0.1734  0.6476
  173SOPE   H9X19674   0.650   1.290   9.589  0.1734  0.6536  0.6043
  173SOPE   H9Y19675   0.501   1.367   9.565 -1.8985 -2.1594 -0.3494
  173SOPE  C31019676   0.459   1.166   9.620 -0.0063 -0.4147  0.0293
  173SOPE  H10X19677   0.365   1.186   9.676  0.5869  3.2648 -0.0313
  173SOPE  H10Y19678   0.512   1.084   9.673  1.3248 -2.0805 -3.5465
  173SOPE  C31119679   0.428   1.119   9.474 -0.7437  0.2743 -0.7557
  173SOPE  H11X19680   0.522   1.082   9.427 -0.7059 -2.2063  1.0846
  173SOPE  H11Y19681   0.393   1.208   9.418 -0.8713  0.5114 -0.3101
  173SOPE  C31219682   0.321   1.006   9.454 -0.6796 -0.5984 -0.7986
  173SOPE  H12X19683   0.234   1.031   9.519  0.0480 -0.3163  0.0937
  173SOPE  H12Y19684   0.355   0.905   9.484 -2.3085 -1.3143 -1.2435
  173SOPE  C31319685   0.264   1.012   9.316  0.4352 -0.1389 -0.0779
  173SOPE  H13X19686   0.246   1.119   9.292 -1.2423 -1.0441 -3.7188
  173SOPE  H13Y19687   0.171   0.951   9.316  0.8901 -0.9075  2.1911
  173SOPE  C31419688   0.365   0.950   9.219  0.3771  0.7747 -0.7381
  173SOPE  H14X19689   0.377   0.845   9.252 -0.6843  1.0131  0.4912
  173SOPE  H14Y19690   0.465   0.990   9.248 -0.0499  1.6944 -0.4936
  173SOPE  C31519691   0.335   0.959   9.071 -1.0051 -0.4979 -0.1320
  173SOPE  H15X19692   0.341   1.067   9.045  0.5896 -0.9256 -1.7140
  173SOPE  H15Y19693   0.239   0.908   9.051 -1.1460 -0.4353  0.3736
  173SOPE  C31619694   0.439   0.876   8.983  0.0856 -0.1032  0.2563
  173SOPE  H16X19695   0.414   0.861   8.875  2.5812 -2.5873 -0.1097
  173SOPE  H16Y19696   0.451   0.777   9.032  0.6527  0.5887  1.5441
  173SOPE  C31719697   0.572   0.941   8.972  0.3638 -0.4199  0.4848
  173SOPE  H17X19698   0.634   0.852   8.946  1.1200  0.4793 -0.9228
  173SOPE  H17Y19699   0.595   0.978   9.074 -0.1321 -1.7979  1.1230
  173SOPE  C31819700   0.590   1.033   8.851 -0.1458  0.2628 -0.1844
  173SOPE  H18X19701   0.696   1.065   8.844  0.1221 -0.7111 -0.7216
  173SOPE  H18Y19702   0.520   1.119   8.865 -0.4760  0.1457 -1.0792
  173SOPE  H18Z19703   0.559   0.972   8.764  3.1251 -0.1958 -1.1455
  174SOPE     N19704   5.099   6.443  10.828  0.2041  0.6031  0.2472
  174SOPE   HN119705   5.159   6.521  10.793  0.1839 -0.5266 -2.5733
  174SOPE   HN219706   5.011   6.462  10.776  0.2914  0.4550  0.0432
  174SOPE   HN319707   5.096   6.432  10.931  3.4129 -3.5414  0.1661
  174SOPE   C1219708   5.163   6.311  10.779 -0.1693 -0.6556  0.1979
  174SOPE  H12A19709   5.173   6.312  10.668 -2.6621  0.0766 -0.0827
  174SOPE  H12B19710   5.083   6.235  10.792 -0.1282 -0.7545 -0.1052
  174SOPE   C1119711   5.281   6.272  10.853  0.1473  0.3254  0.2221
  174SOPE  H11A19712   5.325   6.182  10.806  1.0994  1.5097 -1.2540
  174SOPE  H11B19713   5.246   6.254  10.957 -0.6960  0.4019 -0.0397
  174SOPE     P19714   5.507   6.365  10.941  0.1664  0.1434 -0.0024
  174SOPE   O1319715   5.509   6.229  10.999 -0.1061  0.5113  0.0347
  174SOPE   O1419716   5.508   6.475  11.041  0.5833  0.3102 -0.1359
  174SOPE   O1219717   5.376   6.378  10.849 -0.0432 -0.2115 -0.5590
  174SOPE   O1119718   5.629   6.385  10.850 -0.3162 -0.1061 -0.2329
  174SOPE    C119719   5.639   6.501  10.765 -0.9300 -0.9268  0.2317
  174SOPE    HA19720   5.744   6.515  10.733 -1.4340 -0.1383 -1.1758
  174SOPE    HB19721   5.623   6.600  10.811  1.5817  0.5968 -1.9038
  174SOPE    C219722   5.561   6.480  10.627 -0.1543  0.5084  0.5029
  174SOPE    HS19723   5.455   6.501  10.651 -0.7360 -0.3431 -1.1814
  174SOPE   O2119724   5.569   6.342  10.586  0.6911  0.9303 -0.1990
  174SOPE   C2119725   5.454   6.300  10.528 -0.7061 -0.3409 -0.5298
  174SOPE   O2219726   5.362   6.375  10.503  0.0113  0.0358  1.0645
  174SOPE   C2219727   5.470   6.157  10.474  0.1989  0.0980 -0.0042
  174SOPE   H2R19728   5.369   6.145  10.430 -1.4271  2.0284  2.8718
  174SOPE   H2S19729   5.485   6.086  10.559 -0.9802 -0.4603 -0.2500
  174SOPE    C319730   5.617   6.590  10.526 -0.3372  0.4582  0.2641
  174SOPE    HX19731   5.722   6.562  10.500 -1.0926 -2.5164 -0.0557
  174SOPE    HY19732   5.624   6.684  10.583 -0.5620  1.4239 -1.2428
  174SOPE   O3119733   5.544   6.605  10.401 -0.0335 -0.7743  0.0111
  174SOPE   C3119734   5.439   6.682  10.402  0.3782  0.0427 -0.6518
  174SOPE   O3219735   5.386   6.724  10.503  0.3604  0.3622 -0.1993
  174SOPE   C3219736   5.378   6.711  10.251  0.0451 -0.2413 -0.7382
  174SOPE   H2X19737   5.413   6.632  10.181  1.6413  0.7469 -1.0881
  174SOPE   H2Y19738   5.419   6.800  10.199 -0.5479  0.1861 -0.4795
  174SOPE   C2319739   5.586   6.146  10.368  1.0261  0.1315  0.3786
  174SOPE   H3R19740   5.685   6.141  10.418  0.3127 -2.4716  1.6751
  174SOPE   H3S19741   5.579   6.240  10.309 -0.4854  0.9537  1.7549
  174SOPE   C2419742   5.551   6.038  10.266  0.3393  0.0874 -0.2986
  174SOPE   H4R19743   5.538   5.941  10.319  0.5007 -0.1741 -0.7333
  174SOPE   H4S19744   5.466   6.072  10.204  0.2449  1.4281  0.5247
  174SOPE   C2519745   5.657   6.025  10.157  0.0398 -0.2701  0.2659
  174SOPE   H5R19746   5.696   6.124  10.125 -0.8464  0.8903  2.5127
  174SOPE   H5S19747   5.746   5.970  10.194  1.8268  0.0439 -3.1577
  174SOPE   C2619748   5.616   5.949  10.031 -0.1489  0.2873  0.3555
  174SOPE   H6R19749   5.712   5.930   9.979 -0.3052 -0.7120  0.4160
  174SOPE   H6S19750   5.577   5.848  10.056  2.0767 -0.5765  0.5856
  174SOPE   C2719751   5.525   6.016   9.926 -0.2596  0.3460  0.1401
  174SOPE   H7R19752   5.421   6.017   9.966  0.2335  2.0046  1.5113
  174SOPE   H7S19753   5.558   6.122   9.918 -0.9093  0.7480  2.1688
  174SOPE   C2819754   5.523   5.957   9.778 -0.0862  0.3160  0.1702
  174SOPE   H8R19755   5.629   5.959   9.743  0.1659 -1.3056  0.7579
  174SOPE   H8S19756   5.512   5.848   9.794  1.9374  0.0195 -0.1261
  174SOPE   C2919757   5.426   6.006   9.677  0.3967 -0.5963 -0.7155
  174SOPE   H9119758   5.344   6.067   9.719  1.4251  0.4463 -0.1733
  174SOPE  C21019759   5.445   6.001   9.552  0.2250  0.0772  0.3097
  174SOPE  H10119760   5.361   6.026   9.485  0.5243  0.3371  0.0298
  174SOPE  C21119761   5.561   5.938   9.489 -0.2890  0.5547  0.1535
  174SOPE  H11R19762   5.593   5.840   9.531 -1.1745 -0.5240 -1.5546
  174SOPE  H11S19763   5.648   6.007   9.496 -0.4554  0.7100  0.7325
  174SOPE  C21219764   5.523   5.902   9.345  0.7087 -0.1234 -0.4448
  174SOPE  H12R19765   5.420   5.860   9.340 -0.8193  3.3755 -1.2999
  174SOPE  H12S19766   5.594   5.823   9.311 -0.7378 -2.6407  1.9498
  174SOPE  C21319767   5.528   6.028   9.256  0.0961 -0.7343 -0.2633
  174SOPE  H13R19768   5.629   6.071   9.271 -1.3123  1.6617  4.0846
  174SOPE  H13S19769   5.449   6.097   9.292  1.3133  0.1365  0.8481
  174SOPE  C21419770   5.485   6.008   9.107  0.0441 -0.2695 -0.7898
  174SOPE  H14R19771   5.475   6.107   9.057  1.3472  0.0184 -0.4980
  174SOPE  H14S19772   5.379   5.975   9.099 -0.4704  1.2305 -0.4957
  174SOPE  C21519773   5.581   5.919   9.024  0.4635  1.0247  0.0310
  174SOPE  H15R19774   5.568   5.812   9.053  0.5094  0.6100 -1.4432
  174SOPE  H15S19775   5.683   5.948   9.058  1.4263 -0.6918 -1.2562
  174SOPE  C21619776   5.555   5.925   8.872 -0.2470  0.1861 -0.1730
  174SOPE  H16R19777   5.624   5.853   8.823  0.6958 -0.3534  1.8641
  174SOPE  H16S19778   5.586   6.026   8.838  1.8410  0.1835  1.5316
  174SOPE  C21719779   5.408   5.905   8.832  0.6188  0.4478 -0.4920
  174SOPE  H17R19780   5.339   5.984   8.867 -0.5374 -0.5087 -0.5568
  174SOPE  H17S19781   5.374   5.806   8.869  0.4756  0.6765 -0.0062
  174SOPE  C21819782   5.396   5.895   8.680 -0.4000 -0.0691  0.3786
  174SOPE  H18R19783   5.426   5.990   8.631  0.7675  0.4134  1.9522
  174SOPE  H18S19784   5.295   5.860   8.649 -0.1625 -1.7086  1.3463
  174SOPE  H18T19785   5.469   5.817   8.652 -2.9079 -1.7423 -2.0684
  174SOPE   C3319786   5.219   6.728  10.244 -0.0062 -0.0985  0.5732
  174SOPE   H3X19787   5.183   6.807  10.313  0.8627  0.3822  0.4869
  174SOPE   H3Y19788   5.181   6.636  10.292 -0.4850  0.0267  0.4375
  174SOPE   C3419789   5.169   6.727  10.100  0.0113 -0.0362  0.0026
  174SOPE   H4X19790   5.061   6.700  10.094  0.1944 -1.1558  1.2853
  174SOPE   H4Y19791   5.226   6.645  10.052 -0.8203 -0.9202  0.4794
  174SOPE   C3519792   5.180   6.864  10.025  0.3804  0.4805 -0.3589
  174SOPE   H5X19793   5.288   6.892  10.020  0.8857 -1.3738 -0.4441
  174SOPE   H5Y19794   5.133   6.936  10.096  1.8784  0.9599  0.1880
  174SOPE   C3619795   5.112   6.863   9.886  0.5356  0.2172  0.7157
  174SOPE   H6X19796   5.134   6.964   9.847  0.7487  0.2032  0.8014
  174SOPE   H6Y19797   5.002   6.846   9.892 -0.1780  2.5639 -2.6919
  174SOPE   C3719798   5.170   6.758   9.784  0.0147  0.3267  0.8388
  174SOPE   H7X19799   5.163   6.651   9.811 -1.5192  0.4709  1.0755
  174SOPE   H7Y19800   5.280   6.772   9.788  0.0426  0.2087  0.5368
  174SOPE   C3819801   5.118   6.780   9.641  0.4269  0.1098  0.9864
  174SOPE   H8X19802   5.099   6.887   9.617 -1.3813 -0.3739  0.0796
  174SOPE   H8Y19803   5.026   6.719   9.629 -0.8498  2.1096 -0.0053
  174SOPE   C3919804   5.220   6.734   9.539 -0.2359  0.7645  0.3332
  174SOPE   H9X19805   5.253   6.634   9.573 -0.6573  0.0814 -1.2061
  174SOPE   H9Y19806   5.309   6.801   9.544 -1.4059  2.4468 -0.4196
  174SOPE  C31019807   5.169   6.737   9.390 -0.4834  0.3360 -0.6806
  174SOPE  H10X19808   5.150   6.843   9.363 -2.1369 -0.3092 -2.2776
  174SOPE  H10Y19809   5.077   6.674   9.394 -0.3429  0.1496  3.1749
  174SOPE  C31119810   5.272   6.671   9.291 -0.3366  0.6958  0.1751
  174SOPE  H11X19811   5.292   6.568   9.326 -0.1490  0.8585  0.5490
  174SOPE  H11Y19812   5.366   6.730   9.300 -0.4720  0.8042  0.9128
  174SOPE  C31219813   5.221   6.672   9.148  0.3506  0.1084 -0.4381
  174SOPE  H12X19814   5.187   6.776   9.131 -0.0935  0.0015 -0.2286
  174SOPE  H12Y19815   5.128   6.611   9.159 -0.6345  1.9251  2.7631
  174SOPE  C31319816   5.325   6.614   9.058  0.5129  0.7080  0.3170
  174SOPE  H13X19817   5.362   6.524   9.112 -1.1079  0.0645  0.3887
  174SOPE  H13Y19818   5.404   6.692   9.048  0.6340  0.7324  1.3358
  174SOPE  C31419819   5.294   6.573   8.918 -0.2390  0.5380  0.0159
  174SOPE  H14X19820   5.275   6.665   8.859  0.2275  1.9130  1.9404
  174SOPE  H14Y19821   5.199   6.516   8.924 -0.3447  0.6965 -0.1562
  174SOPE  C31519822   5.394   6.474   8.854  0.2049  0.9462 -0.3662
  174SOPE  H15X19823   5.355   6.402   8.778 -1.5861 -0.8686  2.1277
  174SOPE  H15Y19824   5.434   6.396   8.923  0.6674  0.4594 -1.1595
  174SOPE  C31619825   5.510   6.543   8.793 -0.3301  0.1056 -0.1155
  174SOPE  H16X19826   5.550   6.617   8.866  1.3483 -0.3432 -0.5582
  174SOPE  H16Y19827   5.466   6.597   8.707 -2.0681 -0.8492  0.1259
  174SOPE  C31719828   5.630   6.464   8.744 -0.4663 -0.6474 -0.0219
  174SOPE  H17X19829   5.623   6.385   8.666 -1.7488 -1.3547  0.7714
  174SOPE  H17Y19830   5.668   6.404   8.830  1.6304 -2.1912 -1.8992
  174SOPE  C31819831   5.742   6.570   8.710  0.6449 -0.2310  0.3680
  174SOPE  H18X19832   5.706   6.638   8.630  0.7142 -0.1611  0.3980
  174SOPE  H18Y19833   5.833   6.517   8.675  0.7436 -0.1956  0.5721
  174SOPE  H18Z19834   5.750   6.625   8.806 -2.0386  1.2156 -0.1566
  175SOPE     N19835   6.543   3.119  10.734  0.1515 -0.2522 -0.6026
  175SOPE   HN119836   6.608   3.130  10.654 -1.2084 -0.3707 -1.7768
  175SOPE   HN219837   6.458   3.067  10.702 -0.4273  1.3445 -1.7654
  175SOPE   HN319838   6.511   3.210  10.774  3.8689  0.3714  1.3566
  175SOPE   C1219839   6.607   3.037  10.832 -0.2251 -0.3565 -0.2323
  175SOPE  H12A19840   6.534   2.982  10.895 -1.0427 -1.2709 -1.9357
  175SOPE  H12B19841   6.678   3.098  10.893 -1.9833  1.8354 -0.2514
  175SOPE   C1119842   6.698   2.921  10.770  0.1481  0.1583 -0.6298
  175SOPE  H11A19843   6.625   2.859  10.713  0.4528 -0.6000 -0.2102
  175SOPE  H11B19844   6.734   2.875  10.864 -3.4546  0.1997  0.9341
  175SOPE     P19845   6.934   2.900  10.648 -0.0249  0.5071  0.3096
  175SOPE   O1319846   6.924   2.761  10.690  0.4277  0.0095  0.1926
  175SOPE   O1419847   7.042   2.984  10.702 -0.8278  0.8456 -0.0114
  175SOPE   O1219848   6.797   2.976  10.679 -0.4347 -0.1163  0.2535
  175SOPE   O1119849   6.950   2.892  10.489 -0.2051  0.2359  0.4202
  175SOPE    C119850   6.844   2.825  10.418  0.4796  0.0401 -0.5644
  175SOPE    HA19851   6.848   2.882  10.323 -0.9873  2.9780  1.0133
  175SOPE    HB19852   6.739   2.836  10.452 -0.2698 -2.2518 -1.9108
  175SOPE    C219853   6.881   2.681  10.391  0.3058 -0.1164  0.4139
  175SOPE    HS19854   6.976   2.654  10.443  0.9642  1.7457  0.2444
  175SOPE   O2119855   6.869   2.664  10.244 -0.2592  0.0441 -0.3873
  175SOPE   C2119856   6.989   2.646  10.194  0.9447  0.3812  0.8802
  175SOPE   O2219857   7.087   2.597  10.245 -0.1963  0.7022  0.2486
  175SOPE   C2219858   6.975   2.678  10.042  0.3988 -0.6003 -0.5707
  175SOPE   H2R19859   6.877   2.726  10.024  0.2701  0.2641  2.0191
  175SOPE   H2S19860   6.982   2.581   9.988 -1.1705  0.6298 -3.2253
  175SOPE    C319861   6.784   2.572  10.447 -1.0517  0.3379 -0.5655
  175SOPE    HX19862   6.683   2.606  10.414 -0.1108  0.8550 -3.1648
  175SOPE    HY19863   6.779   2.573  10.558 -0.8133 -1.4729 -0.5174
  175SOPE   O3119864   6.807   2.440  10.385 -0.3321  0.9065  0.3037
  175SOPE   C3119865   6.853   2.353  10.474 -0.3671  0.3557  1.2189
  175SOPE   O3219866   6.857   2.364  10.594 -0.1117  0.1853 -0.3601
  175SOPE   C3219867   6.884   2.225  10.395 -0.1149 -0.6241 -0.1314
  175SOPE   H2X19868   6.842   2.143  10.458  0.2066 -0.0006  0.9261
  175SOPE   H2Y19869   6.995   2.216  10.394  0.1938  2.1457  0.2408
  175SOPE   C2319870   7.090   2.770   9.989 -0.4724 -0.6272 -0.0464
  175SOPE   H3R19871   7.194   2.749  10.022  0.3699  0.5622 -1.7922
  175SOPE   H3S19872   7.081   2.872  10.032  0.7359 -0.5007 -0.0529
  175SOPE   C2419873   7.084   2.792   9.840  0.6246  0.4802  0.2635
  175SOPE   H4R19874   6.979   2.799   9.804  0.2597  1.6020  1.4922
  175SOPE   H4S19875   7.138   2.881   9.801 -1.0713  0.8000 -1.4715
  175SOPE   C2519876   7.148   2.673   9.767 -0.3104  0.3320  0.3671
  175SOPE   H5R19877   7.239   2.641   9.822 -1.4649  2.0508  3.5020
  175SOPE   H5S19878   7.078   2.586   9.762 -2.2331  1.3886  4.6328
  175SOPE   C2619879   7.184   2.700   9.621 -0.0381  0.6740  0.5152
  175SOPE   H6R19880   7.091   2.724   9.565  0.6012 -1.1806 -1.4751
  175SOPE   H6S19881   7.261   2.781   9.617  1.5349 -0.7241  1.2764
  175SOPE   C2719882   7.239   2.579   9.540 -0.4053  0.4470  0.1657
  175SOPE   H7R19883   7.328   2.612   9.482 -0.7946  2.2430  0.5155
  175SOPE   H7S19884   7.245   2.498   9.616 -2.4832  0.7822  0.7406
  175SOPE   C2819885   7.138   2.528   9.434  0.5673 -0.0601  0.0383
  175SOPE   H8R19886   7.172   2.435   9.384  2.5712 -0.0120  1.2280
  175SOPE   H8S19887   7.039   2.509   9.483  1.1394  0.3587  1.4175
  175SOPE   C2919888   7.122   2.628   9.323 -0.0416  0.2644  0.6812
  175SOPE   H9119889   7.050   2.710   9.340 -0.8130 -0.3280  0.3119
  175SOPE  C21019890   7.182   2.633   9.205  0.0210 -0.4415 -0.3886
  175SOPE  H10119891   7.161   2.716   9.136 -1.0811 -0.4717 -0.1145
  175SOPE  C21119892   7.276   2.527   9.147  0.7780  0.6406 -0.2445
  175SOPE  H11R19893   7.223   2.431   9.131  2.4996 -0.0247 -2.3976
  175SOPE  H11S19894   7.352   2.511   9.226  1.4240 -1.0558 -1.1707
  175SOPE  C21219895   7.328   2.581   9.011 -0.2159  0.0413  0.7681
  175SOPE  H12R19896   7.411   2.522   8.967 -0.4573  0.4040 -0.1795
  175SOPE  H12S19897   7.370   2.684   9.023 -0.6669  0.2678  0.4214
  175SOPE  C21319898   7.215   2.585   8.898 -0.2947  0.3818  0.1882
  175SOPE  H13R19899   7.158   2.680   8.896 -1.5100 -0.2127  2.5768
  175SOPE  H13S19900   7.144   2.501   8.915 -2.0426  1.9105  0.8088
  175SOPE  C21419901   7.279   2.572   8.760  0.1744  0.2974  0.1333
  175SOPE  H14R19902   7.307   2.465   8.754 -2.7222 -0.5411 -0.2952
  175SOPE  H14S19903   7.367   2.640   8.766 -0.3405  0.9648  0.3067
  175SOPE  C21519904   7.192   2.622   8.644  0.5190  0.8327 -0.4432
  175SOPE  H15R19905   7.165   2.724   8.679  1.2266  0.6309  0.7666
  175SOPE  H15S19906   7.109   2.549   8.631 -0.0033  1.5766 -1.3869
  175SOPE  C21619907   7.272   2.617   8.506 -1.1807  0.0735  0.2355
  175SOPE  H16R19908   7.329   2.521   8.498  0.4002  1.0684 -1.1937
  175SOPE  H16S19909   7.353   2.693   8.500 -1.4083  0.4100  1.2140
  175SOPE  C21719910   7.189   2.647   8.383  1.0140 -0.2276  0.0116
  175SOPE  H17R19911   7.166   2.755   8.385  2.3610  0.0997 -0.8734
  175SOPE  H17S19912   7.095   2.587   8.386 -0.1053  1.4618  0.3261
  175SOPE  C21819913   7.246   2.622   8.240 -0.3100  0.0095 -0.2796
  175SOPE  H18R19914   7.173   2.636   8.157 -2.1975 -0.5512  1.1981
  175SOPE  H18S19915   7.294   2.523   8.238 -0.3827 -0.0898  1.6133
  175SOPE  H18T19916   7.338   2.679   8.218  0.4730 -1.0178  0.2843
  175SOPE   C3319917   6.827   2.200  10.253  0.1761 -0.5127 -1.1071
  175SOPE   H3X19918   6.717   2.210  10.251  0.1867  0.9315  1.2629
  175SOPE   H3Y19919   6.870   2.106  10.213  0.7002  0.3255 -2.5960
  175SOPE   C3419920   6.876   2.315  10.163 -0.3326  0.3599  0.4787
  175SOPE   H4X19921   6.979   2.349  10.185  0.4165  0.6888 -3.0397
  175SOPE   H4Y19922   6.822   2.410  10.179  0.1005  0.5555  0.7823
  175SOPE   C3519923   6.884   2.273  10.020 -0.2533 -0.7226 -0.1217
  175SOPE   H5X19924   6.924   2.169  10.018  2.3205  0.1684 -3.1527
  175SOPE   H5Y19925   6.958   2.337   9.967  0.9471 -0.3652  1.8768
  175SOPE   C3619926   6.748   2.269   9.954  0.0620  0.7603  0.2437
  175SOPE   H6X19927   6.710   2.373   9.942  0.0763  0.6018 -1.5138
  175SOPE   H6Y19928   6.682   2.219  10.027 -0.1720  1.6763  0.6790
  175SOPE   C3719929   6.746   2.206   9.817  0.8626  0.6192  0.1488
  175SOPE   H7X19930   6.639   2.191   9.793  1.0032 -0.5418  0.1963
  175SOPE   H7Y19931   6.788   2.105   9.839 -1.5840 -0.2029  1.3991
  175SOPE   C3819932   6.821   2.267   9.705 -0.4993  0.7610  0.7138
  175SOPE   H8X19933   6.925   2.230   9.688 -1.1855 -0.0107 -2.4315
  175SOPE   H8Y19934   6.840   2.376   9.716  0.5642  0.7616 -0.8015
  175SOPE   C3919935   6.753   2.239   9.568  0.2241  0.0431  0.1010
  175SOPE   H9X19936   6.695   2.332   9.550 -0.4520 -0.5153 -0.7334
  175SOPE   H9Y19937   6.693   2.146   9.569  0.5541 -0.1763 -0.1792
  175SOPE  C31019938   6.848   2.218   9.446 -0.5266  0.2366 -0.2423
  175SOPE  H10X19939   6.906   2.125   9.459 -1.0674 -0.1672 -0.6934
  175SOPE  H10Y19940   6.926   2.297   9.451  1.3136 -1.5713  1.5195
  175SOPE  C31119941   6.775   2.217   9.307 -0.0621 -0.6047 -0.6561
  175SOPE  H11X19942   6.693   2.292   9.315  1.2292  0.7934 -0.0843
  175SOPE  H11Y19943   6.725   2.118   9.297 -0.9924 -0.7073  3.2043
  175SOPE  C31219944   6.873   2.254   9.195  0.1001  0.0391  0.6672
  175SOPE  H12X19945   6.937   2.168   9.167 -0.8979 -0.6714  0.5148
  175SOPE  H12Y19946   6.944   2.335   9.221  2.2316  0.4123 -4.9344
  175SOPE  C31319947   6.801   2.302   9.066  0.3607 -0.7634 -0.7112
  175SOPE  H13X19948   6.712   2.364   9.090  1.0261 -0.3963  0.9305
  175SOPE  H13Y19949   6.757   2.213   9.015  1.5261 -1.7251 -0.0914
  175SOPE  C31419950   6.888   2.348   8.950 -0.5125 -0.0743 -0.1416
  175SOPE  H14X19951   6.979   2.286   8.932  0.1831  1.1727 -1.1453
  175SOPE  H14Y19952   6.941   2.443   8.973  1.4030 -1.0691 -0.2394
  175SOPE  C31519953   6.811   2.361   8.821 -0.2290 -0.2482 -0.0359
  175SOPE  H15X19954   6.713   2.309   8.829 -1.5998  1.8710 -1.8164
  175SOPE  H15Y19955   6.874   2.303   8.750  1.7190 -1.3952  2.5059
  175SOPE  C31619956   6.807   2.508   8.774 -0.3117 -0.3665 -0.2184
  175SOPE  H16X19957   6.909   2.548   8.756 -0.4053  0.6252  1.2718
  175SOPE  H16Y19958   6.765   2.564   8.860  1.7298 -1.0982  1.3306
  175SOPE  C31719959   6.730   2.518   8.643 -0.4341 -0.0665  0.6148
  175SOPE  H17X19960   6.684   2.619   8.637  1.7016  0.9395  0.1976
  175SOPE  H17Y19961   6.649   2.441   8.640 -0.6625  0.1903  0.0513
  175SOPE  C31819962   6.821   2.516   8.520 -0.9584 -0.2751 -0.6088
  175SOPE  H18X19963   6.767   2.528   8.424  2.5896  0.2482 -2.6987
  175SOPE  H18Y19964   6.873   2.418   8.529  0.8169  0.7490  1.2223
  175SOPE  H18Z19965   6.890   2.602   8.530 -2.6860  0.9484  1.7603
  176SOPE     N19966   0.695   2.736  10.747 -0.0227  0.0659  0.5681
  176SOPE   HN119967   0.724   2.835  10.734  1.6791 -0.6102 -1.3222
  176SOPE   HN219968   0.717   2.710  10.846 -1.1838  0.7161  1.0232
  176SOPE   HN319969   0.747   2.672  10.684 -1.4267  0.7745 -1.3821
  176SOPE   C1219970   0.546   2.714  10.718  0.2308  0.1622  0.1036
  176SOPE  H12A19971   0.505   2.767  10.630 -1.2466 -1.3184 -0.1479
  176SOPE  H12B19972   0.494   2.731  10.815 -1.8437 -2.6994 -0.3715
  176SOPE   C1119973   0.533   2.560  10.700 -0.9762  0.7535 -0.2010
  176SOPE  H11A19974   0.591   2.540  10.608 -0.1531 -1.2272  0.6912
  176SOPE  H11B19975   0.429   2.524  10.685 -0.7843  0.8291 -1.8177
  176SOPE     P19976   0.555   2.340  10.850  0.0091 -0.3882  0.1414
  176SOPE   O1319977   0.459   2.335  10.964 -0.4092  0.3966  0.0770
  176SOPE   O1419978   0.674   2.250  10.857 -0.5312 -0.4356 -0.3187
  176SOPE   O1219979   0.598   2.487  10.808 -0.3772  0.4011 -0.3715
  176SOPE   O1119980   0.467   2.294  10.732  0.1611  0.4362 -0.1435
  176SOPE    C119981   0.446   2.162  10.691  0.4610 -0.1483 -0.2219
  176SOPE    HA19982   0.343   2.156  10.650 -0.0335 -0.3632  0.9805
  176SOPE    HB19983   0.457   2.091  10.776  4.0738  0.8440  0.3144
  176SOPE    C219984   0.544   2.114  10.581  0.2369 -0.1622  0.5529
  176SOPE    HS19985   0.652   2.126  10.605  0.3069  2.1857 -0.6139
  176SOPE   O2119986   0.517   2.184  10.458 -0.0571 -0.8601  0.1501
  176SOPE   C2119987   0.621   2.261  10.413 -0.6303  0.2545 -0.1630
  176SOPE   O2219988   0.733   2.276  10.464  0.1843  0.1784  0.0561
  176SOPE   C2219989   0.569   2.333  10.288 -0.3155  0.3058 -0.2612
  176SOPE   H2R19990   0.636   2.419  10.268 -0.6153  0.1067 -2.2883
  176SOPE   H2S19991   0.468   2.376  10.306 -0.5383  0.4494 -1.7445
  176SOPE    C319992   0.520   1.962  10.553  0.0246 -0.3358 -0.0108
  176SOPE    HX19993   0.413   1.951  10.526  0.3666 -1.2708 -1.0415
  176SOPE    HY19994   0.527   1.907  10.649  0.9582 -1.0534 -0.4735
  176SOPE   O3119995   0.605   1.911  10.451 -0.1235  0.4397 -0.0229
  176SOPE   C3119996   0.720   1.877  10.491 -0.2041 -0.6929 -0.5626
  176SOPE   O3219997   0.767   1.898  10.603  0.4695  0.1565  0.0619
  176SOPE   C3219998   0.813   1.827  10.378  0.5537 -0.2473  0.5244
  176SOPE   H2X19999   0.850   1.722  10.378  2.2368  0.3170 -0.0304
  176SOPE   H2Y20000   0.899   1.896  10.380  0.0081  0.5409 -1.3339
  176SOPE   C2320001   0.555   2.229  10.175  0.1294 -0.8970  0.2563
  176SOPE   H3R20002   0.461   2.178  10.203  0.7320 -0.0133  4.6559
  176SOPE   H3S20003   0.641   2.158  10.166 -0.2195 -1.1238 -1.9952
  176SOPE   C2420004   0.534   2.291  10.033  0.4493 -0.4624 -0.0895
  176SOPE   H4R20005   0.452   2.236   9.982  0.4325  1.3331 -2.1287
  176SOPE   H4S20006   0.486   2.390  10.043 -0.8526 -0.9524 -1.1942
  176SOPE   C2520007   0.654   2.282   9.952 -0.6787 -0.0207 -0.2692
  176SOPE   H5R20008   0.727   2.363   9.968  0.4079 -1.0699  0.2391
  176SOPE   H5S20009   0.706   2.185   9.967  0.4343  0.8803  2.0157
  176SOPE   C2620010   0.617   2.306   9.801  0.2809  0.0709  0.1383
  176SOPE   H6R20011   0.543   2.388   9.795 -0.1733 -0.3730 -0.4533
  176SOPE   H6S20012   0.710   2.342   9.753  0.9192 -0.0953  1.2077
  176SOPE   C2720013   0.569   2.173   9.720  0.1341  0.3477  0.2991
  176SOPE   H7R20014   0.635   2.090   9.753  0.0434  0.3326  0.4453
  176SOPE   H7S20015   0.465   2.156   9.755  0.4929  0.9534  1.7367
  176SOPE   C2820016   0.571   2.184   9.565 -0.3361 -0.0197  0.4283
  176SOPE   H8R20017   0.536   2.090   9.518 -0.3212  0.5151 -0.6816
  176SOPE   H8S20018   0.492   2.261   9.547 -0.0926  0.6335  1.9689
  176SOPE   C2920019   0.708   2.224   9.520  0.3420 -0.3436  0.1554
  176SOPE   H9120020   0.747   2.316   9.567  0.7222 -0.6457  0.4338
  176SOPE  C21020021   0.774   2.159   9.425 -0.4285  0.1529 -0.3229
  176SOPE  H10120022   0.865   2.217   9.400  0.2723 -0.1432  1.4213
  176SOPE  C21120023   0.748   2.035   9.347  0.0005  0.6029  0.2958
  176SOPE  H11R20024   0.653   1.981   9.365 -0.3514  0.7341 -1.0185
  176SOPE  H11S20025   0.825   1.956   9.357 -1.0899 -0.6614 -0.8947
  176SOPE  C21220026   0.744   2.073   9.194 -0.3060 -0.2413 -0.6094
  176SOPE  H12R20027   0.746   1.981   9.132  3.8287 -1.5472  1.0998
  176SOPE  H12S20028   0.842   2.118   9.168 -0.4542  0.3259 -0.2111
  176SOPE  C21320029   0.633   2.168   9.151  0.2317  0.1571  0.0040
  176SOPE  H13R20030   0.659   2.191   9.045  2.0325 -1.5794  0.0139
  176SOPE  H13S20031   0.639   2.261   9.213 -2.3263  1.8563 -2.0780
  176SOPE  C21420032   0.488   2.119   9.177  0.5115 -0.5122 -0.4257
  176SOPE  H14R20033   0.418   2.199   9.144  0.4859 -1.0040 -1.6068
  176SOPE  H14S20034   0.481   2.105   9.287 -1.4158  1.7623 -0.1799
  176SOPE  C21520035   0.437   1.982   9.113 -0.1763 -0.4278  0.2607
  176SOPE  H15R20036   0.344   1.955   9.167 -0.0548  0.3313  0.8743
  176SOPE  H15S20037   0.515   1.905   9.131 -0.1783 -0.4808  0.0452
  176SOPE  C21620038   0.388   1.974   8.972  0.4106 -0.0878 -0.4527
  176SOPE  H16R20039   0.461   1.984   8.888  0.9968 -0.6008 -0.0113
  176SOPE  H16S20040   0.318   2.060   8.962 -0.1211 -0.1732  1.9760
  176SOPE  C21720041   0.311   1.845   8.941 -0.2349  0.3355 -0.0096
  176SOPE  H17R20042   0.232   1.830   9.018  0.2737 -1.4873  0.1920
  176SOPE  H17S20043   0.392   1.769   8.943 -0.7715 -0.2749 -0.9216
  176SOPE  C21820044   0.235   1.836   8.801  0.3825 -0.2299  1.1710
  176SOPE  H18R20045   0.196   1.733   8.792 -1.7441  0.6131 -0.0051
  176SOPE  H18S20046   0.308   1.867   8.722 -0.6588 -2.8317 -0.9491
  176SOPE  H18T20047   0.142   1.896   8.799  1.0242  1.0124 -3.7345
  176SOPE   C3320048   0.759   1.854  10.229  0.5532 -0.4062 -0.5570
  176SOPE   H3X20049   0.701   1.949  10.236  0.7702 -0.2654 -0.6765
  176SOPE   H3Y20050   0.680   1.777  10.213  0.3092  0.0343 -1.5227
  176SOPE   C3420051   0.872   1.846  10.125  0.0528  0.6019  0.3394
  176SOPE   H4X20052   0.921   1.746  10.135  0.8743  0.4990 -3.1600
  176SOPE   H4Y20053   0.940   1.932  10.142 -0.5882  1.2646 -0.3929
  176SOPE   C3520054   0.830   1.864   9.983  0.4806 -0.6595  0.0873
  176SOPE   H5X20055   0.798   1.969   9.964 -0.9819 -1.3755 -1.7587
  176SOPE   H5Y20056   0.736   1.808   9.962 -1.6208  3.2991 -2.3746
  176SOPE   C3620057   0.930   1.826   9.871 -0.1201  0.1158 -0.0585
  176SOPE   H6X20058   1.009   1.755   9.905  0.9098 -0.0316 -2.5656
  176SOPE   H6Y20059   0.987   1.914   9.836  1.0427 -0.5912 -0.0281
  176SOPE   C3720060   0.862   1.775   9.742 -0.0744  0.0137  0.3516
  176SOPE   H7X20061   0.787   1.854   9.724  0.6690  0.3890 -1.2435
  176SOPE   H7Y20062   0.806   1.679   9.750  1.1919 -0.7593  0.2396
  176SOPE   C3820063   0.955   1.767   9.624  0.5645  0.2406 -0.1861
  176SOPE   H8X20064   1.032   1.702   9.670 -1.4053 -1.6257  0.7095
  176SOPE   H8Y20065   1.002   1.866   9.604 -0.7285  0.6512 -1.3290
  176SOPE   C3920066   0.892   1.708   9.497 -0.4190 -0.2606 -0.2171
  176SOPE   H9X20067   0.810   1.777   9.464  1.5773  1.0910 -2.7586
  176SOPE   H9Y20068   0.858   1.603   9.510  1.6350 -0.8177  0.9467
  176SOPE  C31020069   0.991   1.711   9.381  0.2123  0.0168  0.2911
  176SOPE  H10X20070   1.086   1.657   9.405  0.8210  0.4147 -1.1161
  176SOPE  H10Y20071   1.013   1.816   9.354  1.5952 -0.5557 -0.9918
  176SOPE  C31120072   0.941   1.654   9.245 -1.0029  0.6682  0.7350
  176SOPE  H11X20073   0.831   1.638   9.255 -0.9176 -1.6449 -1.0624
  176SOPE  H11Y20074   0.988   1.554   9.232 -1.9289  0.2423  0.5441
  176SOPE  C31220075   0.969   1.737   9.121 -1.1062 -0.3599  0.2628
  176SOPE  H12X20076   1.075   1.767   9.129 -0.7478 -1.2546 -0.8164
  176SOPE  H12Y20077   0.913   1.833   9.120  0.7394  0.7619  0.9044
  176SOPE  C31320078   0.940   1.671   8.986  1.2701  0.6769  0.3224
  176SOPE  H13X20079   0.962   1.562   8.989 -2.5994 -0.2600  0.4557
  176SOPE  H13Y20080   1.011   1.705   8.908  0.7743 -0.7017 -0.7876
  176SOPE  C31420081   0.790   1.701   8.927 -1.1468 -1.0200 -0.1909
  176SOPE  H14X20082   0.773   1.810   8.935  1.0317 -0.7164  1.2638
  176SOPE  H14Y20083   0.718   1.664   9.002 -1.3869  0.7751  0.5002
  176SOPE  C31520084   0.763   1.653   8.784  0.2473 -0.6002 -0.7652
  176SOPE  H15X20085   0.795   1.549   8.762 -1.5955 -1.6973  1.2282
  176SOPE  H15Y20086   0.817   1.726   8.721 -0.2772 -0.2284 -0.7924
  176SOPE  C31620087   0.617   1.661   8.739 -0.3471  0.0718 -0.5395
  176SOPE  H16X20088   0.602   1.671   8.630 -0.2225 -2.6658 -0.8836
  176SOPE  H16Y20089   0.571   1.751   8.785  0.2510 -0.4570  1.1799
  176SOPE  C31720090   0.532   1.548   8.792  0.5832  1.2775 -0.0709
  176SOPE  H17X20091   0.426   1.558   8.759  0.0882  0.4363  1.1506
  176SOPE  H17Y20092   0.526   1.551   8.903  1.4070 -0.2319  0.0382
  176SOPE  C31820093   0.581   1.407   8.756 -0.0791 -0.1520  0.6088
  176SOPE  H18X20094   0.683   1.384   8.793  0.5147 -0.6087 -1.2019
  176SOPE  H18Y20095   0.589   1.401   8.646  1.5218  0.5007  0.6623
  176SOPE  H18Z20096   0.512   1.325   8.784  0.9927 -0.5957  2.1223
  177SOPE     N20097   0.618   6.387  10.949 -0.5347 -0.5517 -0.2537
  177SOPE   HN120098   0.622   6.328  10.863  1.9302 -1.8418  0.6446
  177SOPE   HN220099   0.625   6.324  11.031 -3.2397 -0.6428 -0.0216
  177SOPE   HN320100   0.530   6.442  10.953 -0.3493 -0.0899 -1.7547
  177SOPE   C1220101   0.735   6.472  10.917 -0.4171 -0.0053  0.0679
  177SOPE  H12A20102   0.710   6.539  10.832  1.0428  2.5030  1.4960
  177SOPE  H12B20103   0.812   6.402  10.881 -0.9186 -0.2147 -0.6088
  177SOPE   C1120104   0.788   6.557  11.031 -0.2394 -0.3791  0.7268
  177SOPE  H11A20105   0.717   6.634  11.069  1.4946  1.4196  0.5095
  177SOPE  H11B20106   0.874   6.612  10.987  0.1449 -1.5138  0.0215
  177SOPE     P20107   0.985   6.500  11.208 -0.2582  0.1187 -0.0972
  177SOPE   O1320108   1.024   6.390  11.300 -0.2958  0.3311  0.7357
  177SOPE   O1420109   0.978   6.627  11.274  0.2193 -0.4403 -0.0362
  177SOPE   O1220110   0.840   6.472  11.134 -0.2511 -0.3177  0.4224
  177SOPE   O1120111   1.088   6.514  11.086  0.5783 -0.3577  0.2621
  177SOPE    C120112   1.120   6.404  10.996 -0.2951 -0.4790 -0.7343
  177SOPE    HA20113   1.034   6.336  10.981 -0.4525 -0.3419 -0.4589
  177SOPE    HB20114   1.202   6.347  11.044  0.8488  1.1533 -0.6523
  177SOPE    C220115   1.174   6.455  10.860 -0.0443  0.6221 -0.5149
  177SOPE    HS20116   1.254   6.532  10.873  1.1458 -0.5267 -0.7730
  177SOPE   O2120117   1.057   6.508  10.798  1.0215 -0.0569  0.0847
  177SOPE   C2120118   1.075   6.583  10.685 -0.5575  0.5725 -0.5094
  177SOPE   O2220119   1.182   6.609  10.630  0.1392 -0.3979  0.0270
  177SOPE   C2220120   0.943   6.623  10.618 -0.5926  0.4529  0.2757
  177SOPE   H2R20121   0.970   6.661  10.517 -3.3874 -0.6284 -0.9700
  177SOPE   H2S20122   0.899   6.707  10.676  2.2315  1.2634  1.4213
  177SOPE    C320123   1.238   6.338  10.784  0.1288  0.4097 -0.7775
  177SOPE    HX20124   1.285   6.374  10.690  1.7935 -2.0381 -0.9584
  177SOPE    HY20125   1.161   6.260  10.764  1.1786 -1.6186  2.4561
  177SOPE   O3120126   1.337   6.258  10.865  0.2440 -0.6208  0.0198
  177SOPE   C3120127   1.386   6.152  10.794  0.2406  0.0667 -0.0251
  177SOPE   O3220128   1.354   6.119  10.680 -0.1489 -0.3847  0.3052
  177SOPE   C3220129   1.489   6.088  10.881 -0.2744  0.0999  0.8970
  177SOPE   H2X20130   1.471   6.111  10.988  1.5728 -1.0613  1.4901
  177SOPE   H2Y20131   1.588   6.133  10.857 -1.2003  1.5074 -0.5666
  177SOPE   C2320132   0.860   6.489  10.578 -0.2982  0.1050 -0.7648
  177SOPE   H3R20133   0.839   6.424  10.666  2.9953 -1.2101 -0.7999
  177SOPE   H3S20134   0.932   6.433  10.515  0.2083  1.4016 -1.3786
  177SOPE   C2420135   0.739   6.524  10.492 -0.2185 -0.0182  0.5243
  177SOPE   H4R20136   0.786   6.568  10.402  1.5164 -1.6262  0.5793
  177SOPE   H4S20137   0.707   6.421  10.465 -0.6783  0.1795  0.2886
  177SOPE   C2520138   0.639   6.614  10.567  0.5359  0.0129 -0.3680
  177SOPE   H5R20139   0.598   6.545  10.644  1.3599 -0.5794 -0.4535
  177SOPE   H5S20140   0.684   6.704  10.614 -0.7830  0.1895  0.6238
  177SOPE   C2620141   0.516   6.640  10.483 -0.7343  0.0904  0.2086
  177SOPE   H6R20142   0.458   6.552  10.448  3.8792 -2.3016 -2.2576
  177SOPE   H6S20143   0.455   6.720  10.531 -0.0149  1.2131 -0.6899
  177SOPE   C2720144   0.554   6.715  10.354 -0.9161 -0.5163  0.0430
  177SOPE   H7R20145   0.570   6.823  10.370 -1.4248  0.0005 -2.5476
  177SOPE   H7S20146   0.644   6.679  10.300 -0.0832 -0.6428  1.4592
  177SOPE   C2820147   0.445   6.722  10.247  0.4998  0.2229  0.1637
  177SOPE   H8R20148   0.511   6.764  10.167 -0.0932  1.5429  0.3381
  177SOPE   H8S20149   0.406   6.622  10.218 -0.1394  0.9263 -1.5793
  177SOPE   C2920150   0.328   6.810  10.270  0.2405  0.3019  0.0258
  177SOPE   H9120151   0.343   6.901  10.329  0.6177  1.0794 -1.2314
  177SOPE  C21020152   0.203   6.789  10.217  0.1653 -0.3051  0.5175
  177SOPE  H10120153   0.136   6.875  10.230 -0.0980  0.0831 -2.5961
  177SOPE  C21120154   0.150   6.686  10.123 -0.3837  0.1564  0.0643
  177SOPE  H11R20155   0.041   6.669  10.141 -0.5012 -0.2454 -0.9433
  177SOPE  H11S20156   0.205   6.590  10.121 -0.5621  0.0569 -0.8321
  177SOPE  C21220157   0.162   6.753   9.987 -0.3662 -0.4065 -0.1430
  177SOPE  H12R20158   0.266   6.785   9.964 -0.1785  0.8298  2.1818
  177SOPE  H12S20159   0.105   6.848   9.980  0.0412 -0.2051 -0.7572
  177SOPE  C21320160   0.109   6.656   9.878  0.4910 -0.1429  0.4266
  177SOPE  H13R20161   0.000   6.640   9.892  0.6466 -0.0388  1.9123
  177SOPE  H13S20162   0.165   6.561   9.889  1.1764  0.3106  1.0103
  177SOPE  C21420163   0.132   6.713   9.730  0.5114  0.1234 -0.3126
  177SOPE  H14R20164   0.240   6.728   9.709  0.8454  0.8941  1.7323
  177SOPE  H14S20165   0.084   6.813   9.725  1.9686  0.7911 -3.6135
  177SOPE  C21520166   0.063   6.634   9.621 -0.1649  0.0277  0.2301
  177SOPE  H15R20167  -0.047   6.623   9.633  0.0293  0.1467  2.5376
  177SOPE  H15S20168   0.103   6.531   9.626  1.4377  0.5611 -0.5116
  177SOPE  C21620169   0.090   6.686   9.483  0.4891 -0.1025  1.1321
  177SOPE  H16R20170   0.196   6.710   9.460 -0.1489  1.4081 -0.4062
  177SOPE  H16S20171   0.032   6.776   9.454 -1.7891 -1.8608 -0.0870
  177SOPE  C21720172   0.050   6.576   9.378 -0.5532 -0.1169 -0.4176
  177SOPE  H17R20173   0.047   6.478   9.431 -1.9172  0.8127  1.3018
  177SOPE  H17S20174   0.125   6.578   9.295  0.9352  2.7817  0.8517
  177SOPE  C21820175  -0.080   6.610   9.317  1.4516 -0.4172 -0.3675
  177SOPE  H18R20176  -0.099   6.538   9.234 -0.3444  0.7122 -0.9836
  177SOPE  H18S20177  -0.086   6.714   9.279 -0.0255 -0.6651 -0.9110
  177SOPE  H18T20178  -0.160   6.606   9.394 -0.4498 -0.8770 -2.2686
  177SOPE   C3320179   1.506   5.932  10.862 -0.1364 -0.7386  0.1866
  177SOPE   H3X20180   1.411   5.878  10.840 -0.1388 -0.0158 -1.8243
  177SOPE   H3Y20181   1.549   5.884  10.952 -1.7353 -1.0814  0.8000
  177SOPE   C3420182   1.603   5.904  10.754  0.1314 -0.4977  0.2216
  177SOPE   H4X20183   1.694   5.965  10.770 -0.3568  0.1192  0.7199
  177SOPE   H4Y20184   1.555   5.940  10.660 -2.6400 -0.6400  1.4661
  177SOPE   C3520185   1.629   5.758  10.732 -0.8405  0.4918  0.0152
  177SOPE   H5X20186   1.531   5.710  10.714 -1.0556  1.3581 -1.2644
  177SOPE   H5Y20187   1.661   5.704  10.823 -2.1049 -1.5341 -0.6752
  177SOPE   C3620188   1.726   5.728  10.615  0.6657  0.0613  0.4740
  177SOPE   H6X20189   1.812   5.797  10.625  2.5231 -2.2167  0.9605
  177SOPE   H6Y20190   1.671   5.748  10.521  2.8493  0.4553 -0.7857
  177SOPE   C3720191   1.763   5.582  10.612  0.2961  0.7586  1.0697
  177SOPE   H7X20192   1.678   5.513  10.594  2.4556 -1.5998 -0.7410
  177SOPE   H7Y20193   1.813   5.554  10.707  0.4898 -3.9722 -0.1784
  177SOPE   C3820194   1.870   5.554  10.504  0.0036  0.0021  0.1592
  177SOPE   H8X20195   1.923   5.458  10.520  3.0720  1.5551  0.1026
  177SOPE   H8Y20196   1.938   5.639  10.526  0.6048 -0.5543  0.5026
  177SOPE   C3920197   1.821   5.561  10.360  0.1517 -0.1817  0.4675
  177SOPE   H9X20198   1.781   5.665  10.351 -0.8482 -0.6154 -0.1881
  177SOPE   H9Y20199   1.746   5.484  10.336 -0.7771 -0.0300  2.6201
  177SOPE  C31020200   1.941   5.550  10.264  0.2045 -0.1379 -0.3433
  177SOPE  H10X20201   2.014   5.469  10.286  0.0407  0.1904  1.5387
  177SOPE  H10Y20202   2.001   5.641  10.285 -0.1342  0.1081 -0.4311
  177SOPE  C31120203   1.911   5.538  10.112 -0.0197 -1.0593 -0.1060
  177SOPE  H11X20204   1.808   5.578  10.097  0.0813 -1.0366 -0.7918
  177SOPE  H11Y20205   1.911   5.432  10.079 -0.7181 -0.5466 -1.9297
  177SOPE  C31220206   2.015   5.599  10.028  0.2261 -0.0128  0.1234
  177SOPE  H12X20207   2.114   5.557  10.057  0.8218  0.2719 -1.4358
  177SOPE  H12Y20208   2.022   5.710  10.040 -0.0818  0.1399 -1.0463
  177SOPE  C31320209   2.004   5.565   9.874  0.0679 -0.5235 -0.2554
  177SOPE  H13X20210   1.902   5.600   9.845  0.1082  0.5199  0.7887
  177SOPE  H13Y20211   2.019   5.455   9.870 -0.5436 -0.6026 -0.4167
  177SOPE  C31420212   2.113   5.634   9.792 -0.5011 -0.1118  0.1940
  177SOPE  H14X20213   2.215   5.612   9.831 -0.5674  1.7575  1.5247
  177SOPE  H14Y20214   2.098   5.744   9.794 -1.0196 -0.1933  1.3038
  177SOPE  C31520215   2.126   5.584   9.642 -0.0587  0.0848 -0.4757
  177SOPE  H15X20216   2.022   5.583   9.604 -0.6739 -1.1729  1.1388
  177SOPE  H15Y20217   2.169   5.482   9.640 -1.1321 -0.3761 -1.5535
  177SOPE  C31620218   2.211   5.684   9.558 -0.1443  0.7457  0.2392
  177SOPE  H16X20219   2.315   5.684   9.597  0.0831 -2.4211 -0.1219
  177SOPE  H16Y20220   2.161   5.783   9.567  0.4287  1.0982 -0.3764
  177SOPE  C31720221   2.228   5.636   9.418  0.2671  0.0630  0.1935
  177SOPE  H17X20222   2.141   5.623   9.351  0.9552  1.7380 -1.1116
  177SOPE  H17Y20223   2.277   5.536   9.418  2.8746  1.2592 -0.5643
  177SOPE  C31820224   2.327   5.732   9.342  0.4065 -0.3654  0.3195
  177SOPE  H18X20225   2.277   5.831   9.348  2.4688  0.7216  0.2661
  177SOPE  H18Y20226   2.321   5.688   9.240 -0.4303 -1.1071  0.6758
  177SOPE  H18Z20227   2.430   5.742   9.381  0.1257 -2.6895  1.8637
  178SOPE     N20228   4.011   3.577  10.896  0.0533 -0.0451  0.3534
  178SOPE   HN120229   4.098   3.526  10.924  1.7371  1.9344 -0.9422
  178SOPE   HN220230   4.032   3.671  10.857 -2.7228  0.2022 -0.7918
  178SOPE   HN320231   3.952   3.603  10.977  0.9915  1.9845  0.4242
  178SOPE   C1220232   3.930   3.494  10.800  0.6829  0.3418 -0.5737
  178SOPE  H12A20233   3.977   3.492  10.699  0.0883 -0.2545 -0.8541
  178SOPE  H12B20234   3.825   3.529  10.791  0.7449  0.7594  0.2631
  178SOPE   C1120235   3.918   3.354  10.857 -1.1111  0.1114  0.1860
  178SOPE  H11A20236   3.857   3.281  10.799 -1.2818  0.6176 -0.2785
  178SOPE  H11B20237   3.860   3.353  10.951 -0.2806 -0.2560  0.7074
  178SOPE     P20238   4.142   3.226  10.796 -0.0097  0.0779  0.3635
  178SOPE   O1320239   4.187   3.100  10.861  0.2465 -0.1045 -0.0904
  178SOPE   O1420240   4.257   3.311  10.762 -0.1505 -0.5836  0.4233
  178SOPE   O1220241   4.050   3.307  10.888  0.2841 -0.0836  0.6233
  178SOPE   O1120242   4.058   3.198  10.663  0.4095  0.4444 -0.3185
  178SOPE    C120243   4.024   3.059  10.643  0.0576  0.4330 -0.0347
  178SOPE    HA20244   3.962   3.011  10.722 -0.5341 -1.2753 -1.4442
  178SOPE    HB20245   4.119   3.002  10.637 -0.3406 -0.2004 -0.5213
  178SOPE    C220246   3.938   3.025  10.522 -0.0290  0.1776  0.1708
  178SOPE    HS20247   3.924   2.915  10.517  0.8133  0.0603  0.2054
  178SOPE   O2120248   4.012   3.071  10.401 -0.3640 -0.0056 -0.4221
  178SOPE   C2120249   3.962   3.043  10.285  0.1336 -0.1202  0.1066
  178SOPE   O2220250   3.887   2.948  10.264  0.6111 -0.0533  0.0111
  178SOPE   C2220251   3.996   3.152  10.184  0.5532 -0.3052 -0.2876
  178SOPE   H2R20252   4.054   3.232  10.236 -2.0437  1.1084  0.6198
  178SOPE   H2S20253   3.899   3.192  10.148 -0.9015 -3.1216  0.2305
  178SOPE    C320254   3.796   3.087  10.540  0.1403 -0.0764  0.4350
  178SOPE    HX20255   3.807   3.198  10.534 -3.8216  0.4258  0.1441
  178SOPE    HY20256   3.762   3.056  10.642 -1.4018  0.3477  0.0720
  178SOPE   O3120257   3.698   3.045  10.446 -0.1238  0.4852 -0.0030
  178SOPE   C3120258   3.582   3.113  10.435 -0.2129 -0.0780 -0.2194
  178SOPE   O3220259   3.544   3.200  10.507 -0.3213 -0.2390  0.1026
  178SOPE   C3220260   3.498   3.065  10.319 -0.2696  0.2943  0.4010
  178SOPE   H2X20261   3.415   3.136  10.299 -1.4451 -0.7096  1.5823
  178SOPE   H2Y20262   3.449   2.970  10.346  0.1246  0.2709  1.0699
  178SOPE   C2320263   4.084   3.103  10.070 -0.1090 -0.1283 -0.3468
  178SOPE   H3R20264   4.066   3.000  10.033  1.6613 -0.4770 -0.3219
  178SOPE   H3S20265   4.187   3.100  10.110 -0.9443 -0.0423  1.9401
  178SOPE   C2420266   4.080   3.177   9.937  0.4460 -0.8721  0.0830
  178SOPE   H4R20267   3.979   3.167   9.891  0.1453  0.1063  0.4990
  178SOPE   H4S20268   4.099   3.283   9.966 -3.0916 -1.0395  3.9376
  178SOPE   C2520269   4.189   3.133   9.838  0.4524  0.0084  0.9932
  178SOPE   H5R20270   4.288   3.175   9.866  0.7821 -0.0877  0.0021
  178SOPE   H5S20271   4.200   3.022   9.840  2.7062  0.1817  3.0305
  178SOPE   C2620272   4.168   3.180   9.696  0.3984  0.2885  0.4879
  178SOPE   H6R20273   4.265   3.170   9.644 -0.4612  1.8228 -1.5262
  178SOPE   H6S20274   4.085   3.120   9.655  1.5547 -2.1734  1.5788
  178SOPE   C2720275   4.131   3.327   9.674  0.4957  0.1048  0.5895
  178SOPE   H7R20276   4.039   3.357   9.730  0.8218 -0.4800  1.4476
  178SOPE   H7S20277   4.211   3.392   9.715 -1.1406  1.8154  1.2033
  178SOPE   C2820278   4.120   3.368   9.527  0.5684 -0.0037 -0.3188
  178SOPE   H8R20279   4.038   3.316   9.473  0.5650  0.7690 -1.0803
  178SOPE   H8S20280   4.077   3.470   9.522  1.1368  0.2284 -0.5703
  178SOPE   C2920281   4.250   3.365   9.453  0.5949 -0.4619  0.1429
  178SOPE   H9120282   4.316   3.445   9.491  0.0130 -0.9475  2.2977
  178SOPE  C21020283   4.277   3.286   9.353  0.1332 -0.2591 -0.1455
  178SOPE  H10120284   4.380   3.293   9.314 -0.0340 -0.8165 -0.7027
  178SOPE  C21120285   4.197   3.168   9.289 -0.4085 -0.6193  0.1682
  178SOPE  H11R20286   4.090   3.184   9.315 -0.9739  0.6462 -2.5644
  178SOPE  H11S20287   4.237   3.074   9.332  2.1123  1.0530  1.8154
  178SOPE  C21220288   4.226   3.181   9.137 -0.0620  0.5711 -0.1711
  178SOPE  H12R20289   4.332   3.204   9.113 -0.4602  1.3393 -1.2951
  178SOPE  H12S20290   4.162   3.256   9.087 -0.1726 -2.2727 -4.9094
  178SOPE  C21320291   4.165   3.053   9.079  0.8764  0.3172 -0.8469
  178SOPE  H13R20292   4.055   3.059   9.096  1.1412  2.8179  0.3824
  178SOPE  H13S20293   4.200   2.974   9.148 -3.2978  1.2415  2.7612
  178SOPE  C21420294   4.200   3.010   8.933  0.0291 -0.9019  0.6870
  178SOPE  H14R20295   4.309   2.990   8.939  0.0100 -1.1563  0.1960
  178SOPE  H14S20296   4.183   3.085   8.853  2.9644 -2.2218 -1.3552
  178SOPE  C21520297   4.140   2.874   8.887 -0.4790  0.5955 -0.0628
  178SOPE  H15R20298   4.031   2.871   8.902 -0.5529  0.3218 -0.6081
  178SOPE  H15S20299   4.183   2.808   8.965 -0.5176 -1.0569 -1.3734
  178SOPE  C21620300   4.187   2.846   8.749  0.1860  0.6201  0.3960
  178SOPE  H16R20301   4.298   2.835   8.746  0.2573  1.4174 -1.8085
  178SOPE  H16S20302   4.146   2.927   8.684  0.1237  0.4166  0.1812
  178SOPE  C21720303   4.138   2.708   8.690  0.1045  0.3685 -0.0853
  178SOPE  H17R20304   4.030   2.685   8.689 -0.6484  2.9601  3.2766
  178SOPE  H17S20305   4.187   2.632   8.755 -1.7593 -1.3631 -0.6258
  178SOPE  C21820306   4.184   2.669   8.548  0.0477  0.3157  0.7224
  178SOPE  H18R20307   4.155   2.568   8.513  0.1761  1.3716 -2.8797
  178SOPE  H18S20308   4.295   2.675   8.543  0.2962 -1.4530  2.6473
  178SOPE  H18T20309   4.157   2.746   8.473  0.5796  0.3748  0.5827
  178SOPE   C3320310   3.585   3.045  10.195  0.5651  0.7213  0.4319
  178SOPE   H3X20311   3.653   2.958  10.196  2.2670  1.9870  0.1125
  178SOPE   H3Y20312   3.658   3.129  10.192  0.7440  0.5631  0.3448
  178SOPE   C3420313   3.507   3.044  10.072  0.2279 -0.5146 -0.3908
  178SOPE   H4X20314   3.438   3.131  10.066 -0.4690 -1.1767 -4.2417
  178SOPE   H4Y20315   3.457   2.946  10.060 -1.2918  0.3990 -1.9020
  178SOPE   C3520316   3.589   3.068   9.946  0.2398  0.0838  0.1960
  178SOPE   H5X20317   3.643   3.164   9.956 -1.0026  1.0349 -1.5362
  178SOPE   H5Y20318   3.516   3.068   9.862 -0.3261  1.0790  0.6755
  178SOPE   C3620319   3.690   2.962   9.909 -0.0653 -1.2627 -0.1277
  178SOPE   H6X20320   3.642   2.863   9.899 -1.8399 -0.6345  1.5338
  178SOPE   H6Y20321   3.766   2.948   9.989 -1.4902 -2.2314  1.1171
  178SOPE   C3720322   3.767   3.004   9.777 -0.4022 -0.2303  0.1529
  178SOPE   H7X20323   3.837   2.918   9.767 -0.5111 -0.6932  2.7029
  178SOPE   H7Y20324   3.818   3.102   9.784 -0.5023  0.0453 -2.1923
  178SOPE   C3820325   3.685   3.015   9.650  0.2793 -0.5807 -0.5641
  178SOPE   H8X20326   3.610   3.097   9.655  1.2053  0.2812 -0.5750
  178SOPE   H8Y20327   3.608   2.936   9.638 -1.1638  0.6681  0.1573
  178SOPE   C3920328   3.769   3.028   9.530  0.2120 -0.3986  0.5606
  178SOPE   H9X20329   3.787   2.930   9.479 -3.2073 -1.0839  0.4714
  178SOPE   H9Y20330   3.871   3.058   9.564 -0.7557  3.2492  0.5853
  178SOPE  C31020331   3.707   3.122   9.422  0.1668 -0.3613 -0.4173
  178SOPE  H10X20332   3.704   3.225   9.465  0.7963 -0.1554 -0.8646
  178SOPE  H10Y20333   3.603   3.097   9.392 -0.6462 -1.2854  2.7519
  178SOPE  C31120334   3.787   3.128   9.291  0.1149  0.4394  0.2137
  178SOPE  H11X20335   3.728   3.073   9.215 -1.4831  0.6184  1.2687
  178SOPE  H11Y20336   3.887   3.081   9.307 -0.2634  0.3818  2.8942
  178SOPE  C31220337   3.796   3.277   9.250 -0.0644  0.3214  0.3132
  178SOPE  H12X20338   3.856   3.339   9.319 -3.5976  2.6532  1.5805
  178SOPE  H12Y20339   3.696   3.316   9.219 -0.5684 -1.5707 -0.5980
  178SOPE  C31320340   3.882   3.292   9.124  0.4984 -0.7379  1.2069
  178SOPE  H13X20341   3.978   3.241   9.144  1.0354  0.4236  1.6533
  178SOPE  H13Y20342   3.907   3.398   9.102 -0.9255 -0.9044 -1.8287
  178SOPE  C31420343   3.810   3.221   9.000 -0.4746 -0.2270  0.1190
  178SOPE  H14X20344   3.715   3.275   8.979 -1.4834 -1.4138  1.3810
  178SOPE  H14Y20345   3.781   3.117   9.026 -0.0359 -0.5979 -0.8424
  178SOPE  C31520346   3.898   3.214   8.873  0.0697 -0.1900 -0.3700
  178SOPE  H15X20347   4.004   3.203   8.907  0.2487  1.1591 -0.4432
  178SOPE  H15Y20348   3.904   3.314   8.825  0.1250 -1.6375 -3.6729
  178SOPE  C31620349   3.862   3.113   8.762  0.1113 -0.6933 -0.3223
  178SOPE  H16X20350   3.852   3.011   8.806 -0.2049 -0.5753 -0.1205
  178SOPE  H16Y20351   3.948   3.104   8.692  1.5443  2.9901  0.7520
  178SOPE  C31720352   3.729   3.136   8.684  0.3924  0.5350  0.0742
  178SOPE  H17X20353   3.744   3.237   8.640  3.1095  0.6482  1.0200
  178SOPE  H17Y20354   3.652   3.153   8.763  3.4245  3.3159  2.7859
  178SOPE  C31820355   3.700   3.029   8.580  0.3587 -0.7314 -0.4435
  178SOPE  H18X20356   3.690   2.937   8.642  1.6332  0.1212  1.0840
  178SOPE  H18Y20357   3.777   3.014   8.501 -1.7251  1.1967 -3.0159
  178SOPE  H18Z20358   3.609   3.057   8.522  1.1278  0.7827 -0.9820
  179SOPE     N20359   0.308   5.914   6.786 -0.2985  0.1764 -0.1525
  179SOPE   HN120360   0.210   5.894   6.815 -0.1635  0.0011  0.1868
  179SOPE   HN220361   0.337   5.845   6.713  1.9917  0.1171  0.7405
  179SOPE   HN320362   0.371   5.893   6.866 -0.6368 -1.2459 -0.2155
  179SOPE   C1220363   0.317   6.062   6.751 -0.2180  0.1410  0.5210
  179SOPE  H12A20364   0.288   6.121   6.841  1.3667  1.9580 -0.0787
  179SOPE  H12B20365   0.262   6.088   6.658  2.3008  4.0973 -0.1208
  179SOPE   C1120366   0.463   6.108   6.727  0.7446 -0.4447 -0.3670
  179SOPE  H11A20367   0.515   6.099   6.825 -0.1114 -0.3020  0.1110
  179SOPE  H11B20368   0.468   6.217   6.711  0.4963 -0.0658  1.8486
  179SOPE     P20369   0.662   6.084   6.548 -0.0524  0.0413  0.5983
  179SOPE   O1320370   0.650   6.224   6.518  0.1802  0.1478  0.1804
  179SOPE   O1420371   0.690   5.980   6.442 -0.4561 -0.0323 -0.1276
  179SOPE   O1220372   0.528   6.035   6.621 -0.8000  0.4491  0.4979
  179SOPE   O1120373   0.768   6.070   6.666 -0.4078  0.1979 -0.0740
  179SOPE    C120374   0.801   5.936   6.713  0.1294  0.2920 -0.2087
  179SOPE    HA20375   0.909   5.932   6.742  0.2583 -0.1093 -0.7280
  179SOPE    HB20376   0.789   5.866   6.628  2.5072 -1.2148  0.5762
  179SOPE    C220377   0.716   5.875   6.827  0.0733 -0.9310  0.1331
  179SOPE    HS20378   0.617   5.846   6.785 -1.1422  3.0915 -0.2209
  179SOPE   O2120379   0.711   5.968   6.930 -0.0738  0.1135 -0.3936
  179SOPE   C2120380   0.612   5.945   7.015  1.0280  0.1484 -0.3451
  179SOPE   O2220381   0.510   5.885   6.990  0.4742  0.8626 -0.4182
  179SOPE   C2220382   0.633   6.022   7.149 -1.1784  0.5806  0.1875
  179SOPE   H2R20383   0.545   5.996   7.212 -0.1284 -3.3841  0.2597
  179SOPE   H2S20384   0.640   6.130   7.122 -0.6638  0.2849 -0.9162
  179SOPE    C320385   0.784   5.742   6.875  0.3313  0.3610  0.0259
  179SOPE    HX20386   0.864   5.762   6.950 -1.2840 -1.2904  2.3224
  179SOPE    HY20387   0.827   5.700   6.782 -0.7217 -0.7075 -0.0063
  179SOPE   O3120388   0.687   5.652   6.932  0.3043  0.3853  0.3140
  179SOPE   C3120389   0.730   5.530   6.956  0.0774  0.1466  0.7099
  179SOPE   O3220390   0.847   5.502   6.973 -0.5043  0.4356  0.0535
  179SOPE   C3220391   0.613   5.426   6.956 -0.6412  0.1564  0.1592
  179SOPE   H2X20392   0.537   5.448   6.878  0.7928 -0.3149 -1.4324
  179SOPE   H2Y20393   0.560   5.439   7.053 -0.7365  1.6135 -0.0684
  179SOPE   C2320394   0.764   5.981   7.220  0.5051  0.9173 -0.5611
  179SOPE   H3R20395   0.852   5.981   7.152  0.3937  1.0139 -0.7038
  179SOPE   H3S20396   0.752   5.872   7.239 -1.7575  1.1418 -0.4191
  179SOPE   C2420397   0.804   6.063   7.341 -0.5478  0.1463  0.1598
  179SOPE   H4R20398   0.902   6.025   7.377 -0.4693 -0.1992 -0.4034
  179SOPE   H4S20399   0.822   6.168   7.309  2.7161 -1.0999 -2.7421
  179SOPE   C2520400   0.698   6.062   7.451 -0.1329  0.1693  0.1924
  179SOPE   H5R20401   0.627   6.141   7.420  1.0863  0.6544 -1.5019
  179SOPE   H5S20402   0.648   5.963   7.461  0.7846 -0.4214 -0.8834
  179SOPE   C2620403   0.746   6.103   7.591  0.2080 -0.3528 -0.4439
  179SOPE   H6R20404   0.834   6.043   7.621 -0.5971 -1.1377  0.4067
  179SOPE   H6S20405   0.774   6.211   7.592  1.3982 -0.5964  2.4838
  179SOPE   C2720406   0.633   6.092   7.694 -0.1713  0.0593  0.1402
  179SOPE   H7R20407   0.545   6.146   7.652  1.6767  2.3934 -1.0120
  179SOPE   H7S20408   0.602   5.988   7.719 -1.2914  0.2852 -0.2395
  179SOPE   C2820409   0.667   6.159   7.826 -0.0590 -0.0659  0.7109
  179SOPE   H8R20410   0.707   6.261   7.805 -0.0536  0.0199  1.1241
  179SOPE   H8S20411   0.574   6.166   7.885 -1.2636 -2.5280 -0.7394
  179SOPE   C2920412   0.779   6.087   7.896  0.9097 -0.1380  0.0765
  179SOPE   H9120413   0.879   6.088   7.852  0.6529 -1.8831 -0.5986
  179SOPE  C21020414   0.763   6.015   8.010  0.1181 -0.0327 -0.1986
  179SOPE  H10120415   0.846   5.965   8.060  1.5975  2.7437  0.3492
  179SOPE  C21120416   0.629   6.003   8.082  0.5127 -0.8044 -0.6426
  179SOPE  H11R20417   0.617   5.914   8.148 -2.5473  0.0137  0.0671
  179SOPE  H11S20418   0.545   5.996   8.010 -0.3678  1.6846  0.0481
  179SOPE  C21220419   0.596   6.124   8.174  0.0757  0.0670 -0.9174
  179SOPE  H12R20420   0.596   6.212   8.106 -0.7562  0.2336 -0.7217
  179SOPE  H12S20421   0.685   6.139   8.238  0.6820  0.2618 -1.7942
  179SOPE  C21320422   0.471   6.116   8.260  0.1412 -0.0447 -0.5860
  179SOPE  H13R20423   0.499   6.032   8.327 -0.5746 -0.7374 -1.1311
  179SOPE  H13S20424   0.381   6.094   8.199 -1.3953  4.0818 -0.0913
  179SOPE  C21420425   0.434   6.241   8.337  0.0282  0.1777  0.4790
  179SOPE  H14R20426   0.485   6.326   8.286  1.9677  0.0085  2.0264
  179SOPE  H14S20427   0.489   6.237   8.433  1.7636  0.7971 -0.4572
  179SOPE  C21520428   0.286   6.260   8.343  0.0497 -0.1864 -0.3745
  179SOPE  H15R20429   0.234   6.174   8.390 -1.1205 -0.3309 -1.8773
  179SOPE  H15S20430   0.239   6.268   8.243  1.6093  0.5859 -1.0648
  179SOPE  C21620431   0.244   6.387   8.411 -0.3591 -0.0853 -0.3470
  179SOPE  H16R20432   0.134   6.383   8.429 -0.5621  3.0038 -0.3065
  179SOPE  H16S20433   0.261   6.477   8.349 -0.8813  0.2255 -0.0464
  179SOPE  C21720434   0.301   6.410   8.549 -0.0903  0.0217 -0.7984
  179SOPE  H17R20435   0.261   6.505   8.591  0.2386 -0.4815  0.7116
  179SOPE  H17S20436   0.412   6.421   8.542 -0.1499 -0.0830 -2.2017
  179SOPE  C21820437   0.294   6.294   8.647  0.3434 -0.1024 -0.5981
  179SOPE  H18R20438   0.191   6.275   8.684  0.4799 -1.0564 -0.6711
  179SOPE  H18S20439   0.353   6.310   8.740  0.7106  2.5356 -1.2177
  179SOPE  H18T20440   0.332   6.203   8.594  0.4215  0.7730 -2.0937
  179SOPE   C3320441   0.677   5.289   6.936 -1.0716  0.4332 -0.1885
  179SOPE   H3X20442   0.750   5.275   7.018 -0.4125  0.8512 -0.6959
  179SOPE   H3Y20443   0.725   5.276   6.836  0.1248 -1.5802  0.5888
  179SOPE   C3420444   0.570   5.177   6.952  0.2550  0.0808 -0.1563
  179SOPE   H4X20445   0.615   5.075   6.953  1.2425  0.5105  0.0390
  179SOPE   H4Y20446   0.503   5.177   6.863 -0.0570 -1.0699  0.0570
  179SOPE   C3520447   0.467   5.181   7.072 -0.5312  0.1985  0.3005
  179SOPE   H5X20448   0.403   5.091   7.065  0.1776 -0.2557 -0.4775
  179SOPE   H5Y20449   0.408   5.275   7.065  0.9496  1.3802  2.6142
  179SOPE   C3620450   0.537   5.193   7.209 -0.0649 -0.1651 -0.5942
  179SOPE   H6X20451   0.599   5.285   7.210 -1.0416  0.5451 -1.8698
  179SOPE   H6Y20452   0.619   5.117   7.208  0.2162  0.1238  0.0639
  179SOPE   C3720453   0.451   5.188   7.345 -0.1499  0.3187  0.0327
  179SOPE   H7X20454   0.386   5.099   7.352 -0.1040  0.2482 -0.3798
  179SOPE   H7Y20455   0.383   5.275   7.343  1.1249  1.4320  1.6695
  179SOPE   C3820456   0.541   5.213   7.468 -0.1258 -0.3408 -0.3875
  179SOPE   H8X20457   0.602   5.305   7.452  0.3276 -0.8407 -1.6281
  179SOPE   H8Y20458   0.618   5.134   7.483 -0.4022 -0.1068  2.9467
  179SOPE   C3920459   0.471   5.204   7.606  0.3464 -0.3495  0.3462
  179SOPE   H9X20460   0.443   5.097   7.615  0.3524 -0.3636  0.1916
  179SOPE   H9Y20461   0.387   5.274   7.628  1.1006  0.4467  0.7720
  179SOPE  C31020462   0.562   5.239   7.726  0.1923  0.4275 -0.3703
  179SOPE  H10X20463   0.493   5.265   7.809  1.0026 -0.6483  0.6908
  179SOPE  H10Y20464   0.621   5.331   7.704  1.5684 -0.5445 -0.9097
  179SOPE  C31120465   0.665   5.128   7.758  0.7323  0.3244 -0.1484
  179SOPE  H11X20466   0.745   5.111   7.683  1.5651 -1.4488  1.0764
  179SOPE  H11Y20467   0.607   5.033   7.762 -0.1382  0.8573  0.1254
  179SOPE  C31220468   0.732   5.140   7.898  0.3410  0.3419  0.0797
  179SOPE  H12X20469   0.770   5.243   7.915 -2.1781  1.3951 -0.2545
  179SOPE  H12Y20470   0.819   5.072   7.884  1.2486  1.5142 -0.1719
  179SOPE  C31320471   0.650   5.096   8.017 -0.2345 -0.6533  0.1724
  179SOPE  H13X20472   0.591   5.003   8.003  1.0884 -1.4720 -0.0433
  179SOPE  H13Y20473   0.579   5.177   8.046  0.1932  0.0459 -0.6843
  179SOPE  C31420474   0.727   5.055   8.149  0.3053  0.0693  0.5713
  179SOPE  H14X20475   0.790   4.963   8.145 -0.5859 -0.5819  1.0922
  179SOPE  H14Y20476   0.647   5.027   8.221 -1.3238  0.3788 -1.0303
  179SOPE  C31520477   0.806   5.174   8.203 -1.0295 -0.0065  0.4493
  179SOPE  H15X20478   0.739   5.259   8.180 -2.5006 -1.2759 -0.1050
  179SOPE  H15Y20479   0.902   5.205   8.156 -2.0380  1.0001 -1.0165
  179SOPE  C31620480   0.837   5.179   8.354 -0.0119 -0.4249 -0.0764
  179SOPE  H16X20481   0.737   5.149   8.392 -1.4815  1.0939 -2.4730
  179SOPE  H16Y20482   0.854   5.283   8.390 -1.9434 -0.4267  1.0221
  179SOPE  C31720483   0.950   5.079   8.394  0.5000 -0.0967 -0.1642
  179SOPE  H17X20484   1.046   5.129   8.367 -0.2599  0.6676 -1.5641
  179SOPE  H17Y20485   0.933   4.993   8.326 -0.8131  0.7537 -0.9538
  179SOPE  C31820486   0.942   5.053   8.540 -0.3885  0.4393 -0.6124
  179SOPE  H18X20487   0.933   5.148   8.598 -2.7891  0.5658 -1.0997
  179SOPE  H18Y20488   1.028   4.996   8.581 -2.9556 -0.9945  3.3900
  179SOPE  H18Z20489   0.853   4.989   8.556 -0.9638  1.0116 -1.4305
  180SOPE     N20490   0.905   4.096   6.047 -0.0451 -0.5354 -0.4116
  180SOPE   HN120491   0.959   4.158   6.111 -0.6060  0.1989 -0.6379
  180SOPE   HN220492   0.942   4.000   6.055 -0.9480 -0.8741 -0.2181
  180SOPE   HN320493   0.917   4.116   5.945  0.8980  1.1838 -0.0152
  180SOPE   C1220494   0.761   4.101   6.086 -0.1138 -0.5615  0.7491
  180SOPE  H12A20495   0.708   4.029   6.020  1.2576 -0.5812 -0.3692
  180SOPE  H12B20496   0.728   4.201   6.053 -0.4066 -1.0865 -0.6232
  180SOPE   C1120497   0.739   4.074   6.233 -0.3697  0.2168 -1.2697
  180SOPE  H11A20498   0.804   4.133   6.302 -0.9791 -0.5941  0.0286
  180SOPE  H11B20499   0.778   3.971   6.246  1.6942  1.2174  1.2534
  180SOPE     P20500   0.542   4.219   6.337 -0.1762 -0.1062 -0.0588
  180SOPE   O1320501   0.393   4.219   6.316 -0.1797 -0.3470 -0.2098
  180SOPE   O1420502   0.610   4.345   6.307 -0.1425 -0.2407 -0.3738
  180SOPE   O1220503   0.600   4.089   6.260 -0.5458 -0.1454 -0.3170
  180SOPE   O1120504   0.578   4.201   6.484  0.1699  0.4235 -0.7166
  180SOPE    C120505   0.532   4.079   6.544 -0.2963 -0.4102 -0.4022
  180SOPE    HA20506   0.576   3.989   6.497  0.0751 -0.0697 -0.7133
  180SOPE    HB20507   0.422   4.069   6.530 -0.1678 -3.9209  0.1277
  180SOPE    C220508   0.564   4.065   6.699  0.1461  0.9482  0.5291
  180SOPE    HS20509   0.528   3.963   6.725 -0.9392  1.2225  0.1358
  180SOPE   O2120510   0.503   4.164   6.783  0.5714  0.2981  0.2980
  180SOPE   C2120511   0.370   4.145   6.789 -0.1836 -0.1561 -0.7190
  180SOPE   O2220512   0.307   4.052   6.747 -0.3276  0.1584  0.4967
  180SOPE   C2220513   0.312   4.262   6.881  0.4863 -0.5901  0.2490
  180SOPE   H2R20514   0.257   4.320   6.805  4.6969  1.8557 -1.2676
  180SOPE   H2S20515   0.397   4.324   6.917  1.5095  0.0581 -2.9924
  180SOPE    C320516   0.713   4.067   6.734 -0.1632 -0.4140 -0.3112
  180SOPE    HX20517   0.742   4.169   6.700 -0.6339  0.5296  1.9281
  180SOPE    HY20518   0.779   3.991   6.686  0.3475  0.3616 -0.8555
  180SOPE   O3120519   0.726   4.059   6.879  0.6863  0.2758 -0.0963
  180SOPE   C3120520   0.770   4.173   6.947 -0.0796  0.2006 -0.4297
  180SOPE   O3220521   0.805   4.275   6.889 -0.0054  0.9049  0.2126
  180SOPE   C3220522   0.787   4.158   7.092 -0.1335 -0.0940 -0.2003
  180SOPE   H2X20523   0.880   4.099   7.101  0.4889  0.9382  0.2218
  180SOPE   H2Y20524   0.695   4.105   7.126  0.3710 -0.8316  0.0325
  180SOPE   C2320525   0.213   4.201   6.991  0.2351  0.0432  0.4430
  180SOPE   H3R20526   0.131   4.140   6.949  1.9032 -1.5830 -0.6030
  180SOPE   H3S20527   0.183   4.296   7.041  3.3323  1.8697 -0.8344
  180SOPE   C2420528   0.283   4.104   7.088 -1.1154 -0.3782 -0.0704
  180SOPE   H4R20529   0.208   4.068   7.161 -0.1217  0.0892  1.2397
  180SOPE   H4S20530   0.324   4.014   7.038 -1.4900 -0.7159  0.2261
  180SOPE   C2520531   0.403   4.170   7.161  0.9727 -0.1814  0.1183
  180SOPE   H5R20532   0.447   4.081   7.211 -3.0743 -2.1287  0.6650
  180SOPE   H5S20533   0.483   4.205   7.093  1.4371  3.3803  2.2204
  180SOPE   C2620534   0.361   4.272   7.268 -0.7218 -0.1629 -0.1407
  180SOPE   H6R20535   0.346   4.369   7.217 -2.2032  1.0861  2.4408
  180SOPE   H6S20536   0.265   4.254   7.321 -0.0892  2.5361  2.2347
  180SOPE   C2720537   0.466   4.284   7.383  0.0240 -0.2165  0.0582
  180SOPE   H7R20538   0.476   4.187   7.436  0.9756 -1.3021 -1.9966
  180SOPE   H7S20539   0.560   4.320   7.336  0.2983  0.7309  1.2622
  180SOPE   C2820540   0.436   4.404   7.486  0.3371  0.1884  0.1142
  180SOPE   H8R20541   0.403   4.485   7.418 -0.9576  0.2681  0.7925
  180SOPE   H8S20542   0.358   4.369   7.557  2.0293 -0.6953  1.6103
  180SOPE   C2920543   0.554   4.454   7.559 -0.2886 -0.5735  0.6039
  180SOPE   H9120544   0.592   4.549   7.517 -0.3990 -0.7986 -0.0131
  180SOPE  C21020545   0.620   4.388   7.660 -0.8696  0.0574 -0.5585
  180SOPE  H10120546   0.708   4.440   7.701 -0.5649 -0.4964 -0.4994
  180SOPE  C21120547   0.577   4.262   7.723 -0.4055  0.0644 -0.5115
  180SOPE  H11R20548   0.641   4.175   7.696 -0.1426  0.1303 -0.1075
  180SOPE  H11S20549   0.473   4.235   7.692 -0.1874  0.2954 -1.4890
  180SOPE  C21220550   0.572   4.265   7.882  0.2113 -0.3511  0.3496
  180SOPE  H12R20551   0.500   4.184   7.910 -1.5004  0.6166 -1.0457
  180SOPE  H12S20552   0.513   4.350   7.921  0.1128 -1.9080  3.9989
  180SOPE  C21320553   0.702   4.226   7.956  0.7555 -0.0623 -0.6172
  180SOPE  H13R20554   0.783   4.297   7.929  1.5843 -0.5518  0.4798
  180SOPE  H13S20555   0.741   4.127   7.923 -0.3304 -0.5912 -0.3749
  180SOPE  C21420556   0.673   4.239   8.110 -0.2033  0.1718  0.7063
  180SOPE  H14R20557   0.650   4.342   8.144 -0.2283  0.2682  0.4052
  180SOPE  H14S20558   0.773   4.222   8.155  1.0268  2.6588 -0.8993
  180SOPE  C21520559   0.578   4.135   8.161  0.2425  0.4594 -0.3118
  180SOPE  H15R20560   0.614   4.034   8.132 -1.7525 -0.6696  0.8993
  180SOPE  H15S20561   0.482   4.149   8.106  0.8593  1.3234 -1.1962
  180SOPE  C21620562   0.557   4.139   8.315  0.0029  0.4238  0.5514
  180SOPE  H16R20563   0.502   4.233   8.337  0.0207  0.7373 -0.6942
  180SOPE  H16S20564   0.657   4.140   8.361  0.2317 -3.0432  0.3832
  180SOPE  C21720565   0.480   4.019   8.359 -0.3312 -0.4060  0.3140
  180SOPE  H17R20566   0.388   4.000   8.300 -0.8192  1.5878  0.3630
  180SOPE  H17S20567   0.457   4.028   8.467  1.3678 -0.4012  0.6952
  180SOPE  C21820568   0.557   3.887   8.352  0.2183 -0.4075 -0.0849
  180SOPE  H18R20569   0.491   3.813   8.402 -1.9513  1.9286  0.7065
  180SOPE  H18S20570   0.652   3.882   8.410 -0.7869 -1.7865  1.5401
  180SOPE  H18T20571   0.568   3.863   8.244  0.7269  2.5493 -0.7645
  180SOPE   C3320572   0.816   4.292   7.151 -1.1290  0.0959 -0.4615
  180SOPE   H3X20573   0.732   4.360   7.127 -1.0770  0.0048 -0.9061
  180SOPE   H3Y20574   0.896   4.343   7.093 -1.3742 -0.7409 -1.5783
  180SOPE   C3420575   0.848   4.273   7.297 -0.1168  0.3089  0.3178
  180SOPE   H4X20576   0.799   4.185   7.345 -1.8687  0.7566 -0.5768
  180SOPE   H4Y20577   0.807   4.355   7.359 -3.7636 -1.9109  1.1156
  180SOPE   C3520578   1.004   4.271   7.319  0.0143  0.1047 -0.6749
  180SOPE   H5X20579   1.052   4.369   7.299  2.4558 -0.8095  0.4179
  180SOPE   H5Y20580   1.047   4.195   7.251 -0.7297 -2.4176  1.4731
  180SOPE   C3620581   1.046   4.225   7.457  0.0241  0.0661  0.5815
  180SOPE   H6X20582   1.155   4.246   7.467  0.5353 -2.2517  0.4505
  180SOPE   H6Y20583   1.024   4.117   7.469 -0.7177 -0.0834 -1.6503
  180SOPE   C3720584   0.976   4.308   7.567 -0.1256 -0.4473  0.2122
  180SOPE   H7X20585   0.870   4.276   7.575  0.0690 -1.6981 -1.5161
  180SOPE   H7Y20586   0.964   4.414   7.536 -1.1648 -0.9789 -1.3437
  180SOPE   C3820587   1.039   4.284   7.705 -0.0129 -0.0302 -0.5093
  180SOPE   H8X20588   0.985   4.356   7.771 -0.2478 -0.0103 -0.7254
  180SOPE   H8Y20589   1.145   4.317   7.718  0.0100  0.4542 -1.7914
  180SOPE   C3920590   1.021   4.138   7.747 -0.6134 -0.7283  0.1648
  180SOPE   H9X20591   1.080   4.077   7.675 -1.5975 -0.6613 -0.7366
  180SOPE   H9Y20592   0.915   4.110   7.727 -0.1253 -2.3588 -0.3316
  180SOPE  C31020593   1.054   4.103   7.894 -0.1962 -0.0937 -0.3466
  180SOPE  H10X20594   0.968   4.143   7.953  2.5505  1.8069  2.7372
  180SOPE  H10Y20595   1.143   4.162   7.925 -0.6232  0.9208 -0.9667
  180SOPE  C31120596   1.086   3.959   7.940 -0.3235 -0.2998  0.6732
  180SOPE  H11X20597   1.186   3.937   7.897 -0.6927 -1.0420  0.1962
  180SOPE  H11Y20598   1.014   3.877   7.920 -1.3618  0.7825 -0.1718
  180SOPE  C31220599   1.101   3.963   8.091 -0.4051  0.3933 -0.4676
  180SOPE  H12X20600   0.998   3.957   8.133 -0.5179 -1.4614 -0.9292
  180SOPE  H12Y20601   1.148   4.056   8.128  0.5737 -0.9937  2.0629
  180SOPE  C31320602   1.181   3.839   8.137 -0.5255 -0.1658 -0.1601
  180SOPE  H13X20603   1.274   3.824   8.078  0.8873 -0.3026  2.0196
  180SOPE  H13Y20604   1.121   3.748   8.116  0.5388 -0.7488 -0.7231
  180SOPE  C31420605   1.220   3.842   8.281 -0.1791 -0.1984 -0.4747
  180SOPE  H14X20606   1.131   3.845   8.347  1.8174 -1.4280  2.4539
  180SOPE  H14Y20607   1.272   3.939   8.292  0.8482 -0.7192 -0.5822
  180SOPE  C31520608   1.307   3.720   8.312 -0.0562  0.1797  0.1030
  180SOPE  H15X20609   1.381   3.683   8.238 -0.3924 -1.3540  0.4975
  180SOPE  H15Y20610   1.236   3.634   8.323 -0.5893  0.6804  0.6517
  180SOPE  C31620611   1.400   3.740   8.434 -0.3951  0.4242  0.3922
  180SOPE  H16X20612   1.334   3.778   8.515 -1.6999 -0.5121 -0.1769
  180SOPE  H16Y20613   1.484   3.809   8.417  1.2506 -1.1437  1.7733
  180SOPE  C31720614   1.462   3.607   8.484 -0.4311  0.1284  0.1747
  180SOPE  H17X20615   1.390   3.522   8.488 -0.4948  0.1175 -0.9058
  180SOPE  H17Y20616   1.517   3.623   8.580 -1.7630 -2.2563  1.4226
  180SOPE  C31820617   1.567   3.548   8.385 -0.1460  0.0636 -0.1313
  180SOPE  H18X20618   1.633   3.631   8.352 -0.0136 -0.0431 -0.1373
  180SOPE  H18Y20619   1.506   3.515   8.298 -0.5921  0.2075  0.1271
  180SOPE  H18Z20620   1.626   3.460   8.417 -1.7228 -0.4713  1.3913
  181SOPE     N20621   6.608   2.592   6.273 -0.3758 -0.3358  0.3131
  181SOPE   HN120622   6.693   2.539   6.246  0.0847  0.7787 -0.5214
  181SOPE   HN220623   6.640   2.674   6.328  0.0799  0.9601 -1.7753
  181SOPE   HN320624   6.543   2.533   6.329 -0.5180 -0.6554 -0.1855
  181SOPE   C1220625   6.549   2.645   6.150  0.8727  0.6137 -0.1590
  181SOPE  H12A20626   6.448   2.685   6.174  0.8351 -0.8169  2.3724
  181SOPE  H12B20627   6.535   2.562   6.077 -2.0282  0.3463  0.5828
  181SOPE   C1120628   6.627   2.759   6.091  0.2927 -0.3182  0.0806
  181SOPE  H11A20629   6.638   2.837   6.169 -1.7249 -0.4381  0.5528
  181SOPE  H11B20630   6.561   2.795   6.009  2.3936 -0.1802 -1.6504
  181SOPE     P20631   6.840   2.827   5.969  0.1803 -0.3401  0.2742
  181SOPE   O1320632   6.754   2.930   5.904  0.4478  0.0832 -0.1572
  181SOPE   O1420633   6.931   2.755   5.876 -0.2316  0.5219 -0.8281
  181SOPE   O1220634   6.751   2.718   6.028 -1.1285  0.3417 -0.2034
  181SOPE   O1120635   6.923   2.880   6.094  0.3742  0.3393  0.0824
  181SOPE    C120636   7.008   2.798   6.168  0.5750  0.2619 -0.2616
  181SOPE    HA20637   7.102   2.855   6.183  0.4607  1.0682 -2.3579
  181SOPE    HB20638   7.040   2.712   6.106 -0.2601 -0.3467  0.1226
  181SOPE    C220639   6.944   2.763   6.302 -0.2895 -0.6223  0.1647
  181SOPE    HS20640   6.868   2.683   6.290  1.2920 -2.0279 -1.0714
  181SOPE   O2120641   6.899   2.886   6.366 -0.4083  0.6382  1.1689
  181SOPE   C2120642   6.798   2.876   6.445 -0.4806 -0.0009 -0.5814
  181SOPE   O2220643   6.730   2.775   6.466 -0.0406 -0.0223  1.0285
  181SOPE   C2220644   6.795   3.011   6.522 -0.2437 -0.8857  0.1252
  181SOPE   H2R20645   6.850   3.092   6.470 -0.7498 -0.8011 -0.2871
  181SOPE   H2S20646   6.846   2.989   6.618 -3.1013 -0.7086  1.8114
  181SOPE    C320647   7.051   2.699   6.399 -0.4456 -0.2553  0.0080
  181SOPE    HX20648   7.141   2.764   6.389  0.1628 -1.2821 -1.8115
  181SOPE    HY20649   7.081   2.602   6.353  0.3885  0.8562 -1.9498
  181SOPE   O3120650   7.016   2.677   6.534 -0.1718  0.1511  0.3271
  181SOPE   C3120651   7.063   2.760   6.628 -0.9422 -0.2925  0.1482
  181SOPE   O3220652   7.153   2.842   6.615  0.4872  0.3543 -0.4211
  181SOPE   C3220653   6.994   2.747   6.766  0.0833  0.5455  0.7059
  181SOPE   H2X20654   7.030   2.653   6.814  1.0953  0.1822 -0.6853
  181SOPE   H2Y20655   6.886   2.733   6.746 -0.2991  3.9792 -0.1275
  181SOPE   C2320656   6.650   3.061   6.533  0.3118 -0.2990 -0.0485
  181SOPE   H3R20657   6.583   2.977   6.560 -2.3993  1.2839 -1.4219
  181SOPE   H3S20658   6.622   3.103   6.434 -2.9105  2.5827  1.8911
  181SOPE   C2420659   6.627   3.162   6.644 -0.3108 -0.2654 -1.2018
  181SOPE   H4R20660   6.677   3.258   6.618 -2.9495  1.4058 -0.4881
  181SOPE   H4S20661   6.519   3.187   6.638 -0.3630  0.0336  0.4196
  181SOPE   C2520662   6.661   3.125   6.794  0.0608  0.0792  0.3793
  181SOPE   H5R20663   6.612   3.028   6.816 -1.1129  0.8135  1.0947
  181SOPE   H5S20664   6.771   3.113   6.782  0.0878  0.7557 -0.1538
  181SOPE   C2620665   6.615   3.223   6.905  1.0206 -0.6711 -0.3423
  181SOPE   H6R20666   6.646   3.329   6.893 -1.5106  0.5052  2.1778
  181SOPE   H6S20667   6.504   3.231   6.908  1.1533  2.0206  0.5058
  181SOPE   C2720668   6.663   3.179   7.037  0.0595  0.5112 -0.0667
  181SOPE   H7R20669   6.635   3.073   7.054  2.2498 -0.5722 -2.5323
  181SOPE   H7S20670   6.774   3.184   7.043  0.1266 -1.3430  1.1334
  181SOPE   C2820671   6.607   3.268   7.150  1.2543  0.5794 -0.0195
  181SOPE   H8R20672   6.679   3.253   7.233  0.7634  0.2974  0.3557
  181SOPE   H8S20673   6.625   3.371   7.112 -0.2396  0.3114 -1.5727
  181SOPE   C2920674   6.461   3.256   7.182  0.7712 -0.6857 -0.0890
  181SOPE   H9120675   6.392   3.267   7.097 -1.7947 -2.1589  1.6943
  181SOPE  C21020676   6.409   3.215   7.302  0.0703 -0.7200  1.0997
  181SOPE  H10120677   6.299   3.222   7.310  0.1439 -0.2030  1.8374
  181SOPE  C21120678   6.489   3.175   7.424 -0.1222 -0.1627  0.9829
  181SOPE  H11R20679   6.591   3.220   7.422  1.3513 -3.2373  1.0419
  181SOPE  H11S20680   6.498   3.065   7.424 -1.4567 -0.2968 -0.5071
  181SOPE  C21220681   6.419   3.224   7.551 -0.3078  0.5864 -0.2112
  181SOPE  H12R20682   6.327   3.167   7.578  0.3365 -0.5028 -0.2250
  181SOPE  H12S20683   6.385   3.329   7.545  0.1459  0.8539  1.3850
  181SOPE  C21320684   6.515   3.189   7.676 -0.0122  0.1088  0.8010
  181SOPE  H13R20685   6.615   3.236   7.668 -0.7590  1.5624 -0.6172
  181SOPE  H13S20686   6.532   3.079   7.675 -1.2584 -0.1141 -0.8277
  181SOPE  C21420687   6.460   3.223   7.818 -0.1297 -0.1041  0.4307
  181SOPE  H14R20688   6.363   3.171   7.834  0.3782 -0.6529  1.9171
  181SOPE  H14S20689   6.428   3.329   7.822  3.0479  0.9610  0.5092
  181SOPE  C21520690   6.562   3.196   7.929  0.3953  0.6404 -1.1229
  181SOPE  H15R20691   6.651   3.261   7.913  3.0458 -2.7411 -1.1550
  181SOPE  H15S20692   6.595   3.090   7.926 -0.1200  0.3454  1.6365
  181SOPE  C21620693   6.503   3.227   8.069 -0.4746 -0.1305 -0.3790
  181SOPE  H16R20694   6.427   3.308   8.067 -1.1143 -0.7112  0.0737
  181SOPE  H16S20695   6.593   3.249   8.131  0.3065 -0.7902 -1.2493
  181SOPE  C21720696   6.427   3.115   8.139 -0.1024  0.3460 -0.5700
  181SOPE  H17R20697   6.497   3.029   8.151  0.7138  0.7537 -2.1833
  181SOPE  H17S20698   6.349   3.078   8.069 -0.9193 -0.0818  0.5285
  181SOPE  C21820699   6.366   3.142   8.275 -0.0667  0.6267  0.4180
  181SOPE  H18R20700   6.293   3.226   8.275 -4.7205 -2.9526  2.7969
  181SOPE  H18S20701   6.453   3.172   8.337  1.9488 -1.7267 -1.0608
  181SOPE  H18T20702   6.332   3.047   8.321 -0.4676  0.7791  0.4395
  181SOPE   C3320703   7.027   2.862   6.851 -0.7014 -0.5301  0.0805
  181SOPE   H3X20704   6.999   2.956   6.801  2.0887  0.9707  1.1365
  181SOPE   H3Y20705   7.137   2.872   6.867 -0.1023 -2.5119 -2.1561
  181SOPE   C3420706   6.957   2.869   6.989  0.3439 -1.0055  0.1055
  181SOPE   H4X20707   6.975   2.774   7.044 -1.3267 -0.8804  0.9102
  181SOPE   H4Y20708   6.847   2.872   6.981  0.1171 -1.0180  2.4586
  181SOPE   C3520709   7.013   2.990   7.072  0.2207 -0.2020  0.7699
  181SOPE   H5X20710   6.974   3.078   7.018 -1.0630 -1.8289 -1.1086
  181SOPE   H5Y20711   7.124   2.984   7.075  0.5127  2.8730 -0.4759
  181SOPE   C3620712   6.953   3.007   7.211 -0.0055  0.0454  0.2593
  181SOPE   H6X20713   6.979   2.912   7.263 -0.6964  0.2469  0.9915
  181SOPE   H6Y20714   6.843   2.998   7.196 -0.1534 -2.3110  2.1316
  181SOPE   C3720715   6.985   3.138   7.281 -0.2284  0.0480 -0.0271
  181SOPE   H7X20716   6.978   3.224   7.211 -1.4257  0.0947  0.1332
  181SOPE   H7Y20717   7.090   3.119   7.311  0.4610  1.1821 -1.5626
  181SOPE   C3820718   6.906   3.156   7.412  0.1351  0.2303  0.5967
  181SOPE   H8X20719   6.798   3.156   7.386  0.4852  1.5045 -1.0156
  181SOPE   H8Y20720   6.937   3.256   7.447 -2.5975  1.6408 -0.6484
  181SOPE   C3920721   6.944   3.046   7.511  0.2118 -0.0806 -0.4394
  181SOPE   H9X20722   7.055   3.047   7.506  0.2678  0.5885  0.7226
  181SOPE   H9Y20723   6.902   2.945   7.488  0.0366 -0.6992  2.2846
  181SOPE  C31020724   6.888   3.077   7.650  0.3342  0.2771  0.1368
  181SOPE  H10X20725   6.781   3.056   7.673  0.7598 -0.0784  1.9510
  181SOPE  H10Y20726   6.897   3.187   7.653 -1.3207  0.4278  0.4659
  181SOPE  C31120727   6.973   3.030   7.764 -1.1880 -0.0935  0.0053
  181SOPE  H11X20728   7.076   3.070   7.760  0.0205 -2.7398  1.7661
  181SOPE  H11Y20729   6.985   2.920   7.752 -0.8847 -0.1558  0.7991
  181SOPE  C31220730   6.912   3.061   7.905 -0.1693  0.6272 -0.4042
  181SOPE  H12X20731   6.812   3.012   7.898  1.7533 -3.6986 -0.1975
  181SOPE  H12Y20732   6.890   3.167   7.933 -2.7701  0.2353 -0.6832
  181SOPE  C31320733   6.993   3.003   8.020  0.0904 -0.6061  0.4400
  181SOPE  H13X20734   7.087   3.060   8.031  0.2719 -0.8359  0.0748
  181SOPE  H13Y20735   7.011   2.894   8.008 -3.1577 -1.5480  2.7108
  181SOPE  C31420736   6.937   3.023   8.156 -0.0524 -0.1568 -0.4752
  181SOPE  H14X20737   6.894   3.123   8.176  0.8688  0.3652 -1.0638
  181SOPE  H14Y20738   7.021   3.017   8.229 -1.8504  0.9879  1.8102
  181SOPE  C31520739   6.830   2.915   8.190 -0.2384 -0.5543  0.0604
  181SOPE  H15X20740   6.870   2.815   8.164  0.3019  0.3203 -2.7726
  181SOPE  H15Y20741   6.735   2.932   8.136 -0.5270  0.4895  0.8580
  181SOPE  C31620742   6.788   2.919   8.341  0.2549  0.0402  0.5008
  181SOPE  H16X20743   6.754   3.021   8.367  0.2258 -0.2506  1.6661
  181SOPE  H16Y20744   6.863   2.886   8.416 -0.8269 -2.2888  0.6800
  181SOPE  C31720745   6.659   2.839   8.362  0.0221  0.3940 -0.3457
  181SOPE  H17X20746   6.694   2.735   8.344 -0.5175  0.3879 -1.4775
  181SOPE  H17Y20747   6.598   2.879   8.278  0.1584  1.3216 -0.0137
  181SOPE  C31820748   6.604   2.867   8.499  0.0037  0.0229 -0.0563
  181SOPE  H18X20749   6.661   2.837   8.589  0.2094 -2.4858 -0.9321
  181SOPE  H18Y20750   6.511   2.805   8.507  1.2310 -2.2299 -1.7858
  181SOPE  H18Z20751   6.572   2.971   8.516 -0.0823 -0.1747  1.0208
  182SOPE     N20752   1.700   5.661   6.421 -0.3562  0.1094 -0.1865
  182SOPE   HN120753   1.676   5.753   6.465 -0.9898 -0.4424  0.6521
  182SOPE   HN220754   1.799   5.652   6.392 -0.0988 -0.3052  0.7644
  182SOPE   HN320755   1.648   5.665   6.332 -1.1426 -2.6569  0.0757
  182SOPE   C1220756   1.655   5.537   6.498  0.0573  0.0010  0.1906
  182SOPE  H12A20757   1.723   5.534   6.586 -1.6820 -0.4606  1.5651
  182SOPE  H12B20758   1.678   5.449   6.435  3.0102 -0.7205  2.0784
  182SOPE   C1120759   1.506   5.529   6.529  0.9705  0.0983  0.4916
  182SOPE  H11A20760   1.468   5.608   6.597  0.5698  0.1506  0.2118
  182SOPE  H11B20761   1.487   5.441   6.594 -0.0947 -0.8115 -0.9982
  182SOPE     P20762   1.325   5.406   6.374  0.1988 -0.0124 -0.2476
  182SOPE   O1320763   1.386   5.294   6.295 -0.7232 -0.2854  0.1672
  182SOPE   O1420764   1.214   5.467   6.303  0.5914 -1.0812  0.0908
  182SOPE   O1220765   1.427   5.518   6.407 -0.3649 -0.1448 -0.5534
  182SOPE   O1120766   1.275   5.367   6.521 -0.3567  0.3998  0.1079
  182SOPE    C120767   1.154   5.424   6.578 -0.3936  0.4422 -0.2070
  182SOPE    HA20768   1.070   5.354   6.555 -0.0594  0.6192 -2.1266
  182SOPE    HB20769   1.126   5.522   6.534 -1.4465 -0.7819 -2.4514
  182SOPE    C220770   1.157   5.439   6.733  0.1257  0.4107  0.5386
  182SOPE    HS20771   1.057   5.474   6.766  0.4075  0.6662  1.1425
  182SOPE   O2120772   1.256   5.535   6.761 -0.8184 -0.4325 -0.3356
  182SOPE   C2120773   1.219   5.660   6.741  0.1086 -0.1866  0.3050
  182SOPE   O2220774   1.113   5.690   6.689  0.5564  0.2197 -0.6310
  182SOPE   C2220775   1.314   5.766   6.786 -1.1591 -0.4017 -0.1350
  182SOPE   H2R20776   1.366   5.806   6.696  0.6317 -1.5994  0.3183
  182SOPE   H2S20777   1.388   5.704   6.842  0.5479  1.1900 -0.5326
  182SOPE    C320778   1.184   5.315   6.822  0.2003  0.5837  0.0779
  182SOPE    HX20779   1.290   5.295   6.796 -0.5573  0.1387 -3.0348
  182SOPE    HY20780   1.123   5.231   6.783  1.3721 -0.3833  0.2607
  182SOPE   O3120781   1.175   5.346   6.963  0.3303  0.2913  0.0737
  182SOPE   C3120782   1.112   5.257   7.034  0.1281  0.2046  0.0572
  182SOPE   O3220783   1.080   5.143   7.008 -0.3532  0.4557 -0.2766
  182SOPE   C3220784   1.049   5.315   7.161 -0.1389 -0.7049 -0.2082
  182SOPE   H2X20785   0.968   5.386   7.134 -0.0538 -1.2783 -2.0906
  182SOPE   H2Y20786   1.121   5.371   7.225  0.2942 -0.1457 -1.1635
  182SOPE   C2320787   1.246   5.871   6.877  0.1845  0.0901  0.2184
  182SOPE   H3R20788   1.182   5.929   6.807 -0.1620 -2.5369 -1.7954
  182SOPE   H3S20789   1.331   5.932   6.915  0.5463  1.9204 -3.1709
  182SOPE   C2420790   1.179   5.816   7.005  0.1126 -0.1363  0.1706
  182SOPE   H4R20791   1.127   5.897   7.060 -0.0149  1.2067 -1.7912
  182SOPE   H4S20792   1.093   5.749   6.983 -1.9453  2.2326  0.5773
  182SOPE   C2520793   1.273   5.732   7.086 -0.0580 -0.3548 -0.7601
  182SOPE   H5R20794   1.303   5.642   7.027  2.3538  0.4691 -0.9071
  182SOPE   H5S20795   1.360   5.795   7.114 -1.4055  1.6646 -0.9097
  182SOPE   C2620796   1.203   5.686   7.214 -0.4733  0.0328  0.1051
  182SOPE   H6R20797   1.126   5.606   7.205 -0.3566 -0.5432  3.0097
  182SOPE   H6S20798   1.290   5.638   7.265 -1.5735 -0.7444  1.3262
  182SOPE   C2720799   1.152   5.792   7.314  0.4826 -0.3693  0.3356
  182SOPE   H7R20800   1.232   5.869   7.308  1.7165 -1.6979 -1.5709
  182SOPE   H7S20801   1.053   5.817   7.270  0.8098 -1.9307 -1.4422
  182SOPE   C2820802   1.150   5.733   7.459 -0.5404 -0.2597 -0.2225
  182SOPE   H8R20803   1.089   5.641   7.451 -0.4850 -0.4778  1.4761
  182SOPE   H8S20804   1.250   5.702   7.495 -1.5818 -0.8025  2.4272
  182SOPE   C2920805   1.090   5.830   7.556 -0.9007  0.0483  0.0641
  182SOPE   H9120806   1.146   5.924   7.564  0.0122 -0.1903 -2.5961
  182SOPE  C21020807   0.992   5.803   7.644  0.1362  0.0757  0.5328
  182SOPE  H10120808   0.952   5.877   7.715  1.0051 -0.0805  1.1948
  182SOPE  C21120809   0.919   5.675   7.648 -0.1438 -0.7860 -0.3989
  182SOPE  H11R20810   0.969   5.594   7.592  0.3166  0.2351 -1.5000
  182SOPE  H11S20811   0.815   5.685   7.610  0.7059  0.4174 -2.5559
  182SOPE  C21220812   0.901   5.628   7.789 -0.3204 -0.1528 -0.2763
  182SOPE  H12R20813   0.842   5.534   7.782 -0.0635 -0.2572 -1.3255
  182SOPE  H12S20814   0.835   5.709   7.826  0.3735  0.7955 -1.0727
  182SOPE  C21320815   1.030   5.606   7.871 -0.2335 -0.2430  0.7937
  182SOPE  H13R20816   1.082   5.704   7.867 -0.7628  0.0660  1.1771
  182SOPE  H13S20817   1.090   5.529   7.819  2.1689  1.8571  0.2543
  182SOPE  C21420818   0.991   5.563   8.011 -1.0563  1.0095  0.0339
  182SOPE  H14R20819   0.958   5.458   8.020  0.6149  0.5660  1.7044
  182SOPE  H14S20820   0.901   5.617   8.048 -1.3266 -0.8143  2.2268
  182SOPE  C21520821   1.108   5.561   8.113 -0.3467 -0.4689  0.7689
  182SOPE  H15R20822   1.141   5.666   8.131 -0.6132 -0.5625  1.8922
  182SOPE  H15S20823   1.195   5.523   8.055 -0.5311  2.3168 -1.5547
  182SOPE  C21620824   1.091   5.482   8.244 -0.0443 -0.1750 -0.2713
  182SOPE  H16R20825   1.094   5.374   8.218 -1.7180 -0.7694  1.7786
  182SOPE  H16S20826   0.988   5.498   8.283 -0.1815 -0.4977 -0.5017
  182SOPE  C21720827   1.198   5.503   8.346 -0.7116  0.3070 -0.2988
  182SOPE  H17R20828   1.203   5.612   8.366 -3.2538  0.4042  0.2032
  182SOPE  H17S20829   1.298   5.480   8.305 -0.4002  2.4723 -0.8875
  182SOPE  C21820830   1.171   5.443   8.483 -0.0836 -0.2271 -0.0068
  182SOPE  H18R20831   1.177   5.333   8.483 -1.9006 -0.3654 -0.9142
  182SOPE  H18S20832   1.068   5.463   8.519  0.9319  5.9887  0.5647
  182SOPE  H18T20833   1.247   5.483   8.554  0.4527 -0.8812 -0.1960
  182SOPE   C3320834   0.982   5.207   7.247 -0.1319 -0.9157 -0.8801
  182SOPE   H3X20835   1.031   5.107   7.251  0.4752 -0.7070 -2.5278
  182SOPE   H3Y20836   0.885   5.192   7.195  1.1147  1.2913 -4.1437
  182SOPE   C3420837   0.973   5.248   7.396  0.4321 -0.7006 -0.0686
  182SOPE   H4X20838   0.896   5.187   7.449 -1.0258  0.6776 -0.5151
  182SOPE   H4Y20839   0.926   5.348   7.399 -0.9580 -1.2689 -1.4429
  182SOPE   C3520840   1.103   5.240   7.486 -0.6301  0.1871  0.7911
  182SOPE   H5X20841   1.163   5.331   7.469 -0.9071  0.3892  0.8840
  182SOPE   H5Y20842   1.165   5.158   7.445  2.5369  3.0556 -0.5984
  182SOPE   C3620843   1.081   5.223   7.629  0.8181  0.0764 -0.2571
  182SOPE   H6X20844   1.017   5.133   7.641  1.8995 -0.6151  0.4560
  182SOPE   H6Y20845   1.032   5.317   7.664  1.9250  0.1031  1.3165
  182SOPE   C3720846   1.200   5.201   7.726  0.7075  0.5767  0.5949
  182SOPE   H7X20847   1.258   5.294   7.743 -0.5061  1.5188 -0.2518
  182SOPE   H7Y20848   1.254   5.111   7.691  0.5895 -0.4391  2.8255
  182SOPE   C3820849   1.162   5.175   7.876  0.3068  0.2487 -0.4812
  182SOPE   H8X20850   1.081   5.099   7.886 -1.4942  2.3395  2.7208
  182SOPE   H8Y20851   1.121   5.271   7.914 -1.1799  0.1565 -1.7281
  182SOPE   C3920852   1.285   5.151   7.966 -0.2649 -0.1350  0.3388
  182SOPE   H9X20853   1.357   5.235   7.969 -0.8449  0.3379  1.2244
  182SOPE   H9Y20854   1.323   5.059   7.916 -2.4045 -0.6067 -0.5139
  182SOPE  C31020855   1.245   5.110   8.107 -0.2054 -0.6401 -0.2532
  182SOPE  H10X20856   1.166   5.032   8.098 -1.4835  0.7685 -2.2993
  182SOPE  H10Y20857   1.196   5.200   8.150  0.3338 -0.7288  0.5672
  182SOPE  C31120858   1.358   5.076   8.196 -0.4168  0.2701 -0.0532
  182SOPE  H11X20859   1.440   5.147   8.218  1.6308 -0.5672 -4.0325
  182SOPE  H11Y20860   1.409   4.994   8.141 -0.5058  0.5468 -0.5525
  182SOPE  C31220861   1.310   5.033   8.339  0.3352 -0.3264  0.1067
  182SOPE  H12X20862   1.223   4.966   8.322  0.6267 -0.9903  1.1115
  182SOPE  H12Y20863   1.278   5.118   8.403 -3.0571 -0.1792 -1.5771
  182SOPE  C31320864   1.415   4.945   8.409 -0.1699  0.1112 -0.1785
  182SOPE  H13X20865   1.370   4.927   8.509 -1.8196 -1.8745 -1.2120
  182SOPE  H13Y20866   1.518   4.986   8.413  0.4303 -1.3685  0.1658
  182SOPE  C31420867   1.417   4.805   8.343  0.1444 -0.2348  0.2262
  182SOPE  H14X20868   1.418   4.807   8.232  1.6248 -2.0534  0.1480
  182SOPE  H14Y20869   1.325   4.745   8.362 -0.1814  0.4811  1.0077
  182SOPE  C31520870   1.542   4.723   8.390 -0.5946 -0.3740  0.3312
  182SOPE  H15X20871   1.550   4.735   8.500 -2.6774  1.0500  0.3877
  182SOPE  H15Y20872   1.628   4.775   8.343 -2.0468  0.7762 -1.1811
  182SOPE  C31620873   1.530   4.573   8.354 -0.4357  0.1279  0.1908
  182SOPE  H16X20874   1.526   4.554   8.244  1.6743 -0.8974  0.2431
  182SOPE  H16Y20875   1.424   4.547   8.376 -1.9146  0.9945 -4.6387
  182SOPE  C31720876   1.632   4.478   8.425 -0.1791  0.0327 -0.2401
  182SOPE  H17X20877   1.594   4.375   8.411  0.9493 -0.6976  1.7046
  182SOPE  H17Y20878   1.614   4.506   8.532 -4.1060  1.2314 -1.0247
  182SOPE  C31820879   1.779   4.497   8.367 -0.0069 -0.0418  0.0509
  182SOPE  H18X20880   1.837   4.402   8.364 -1.9051 -1.2287 -1.8485
  182SOPE  H18Y20881   1.842   4.573   8.418  0.4843 -0.7281  0.4911
  182SOPE  H18Z20882   1.760   4.527   8.261  1.5462  0.9715  0.0310
  183SOPE     N20883   2.386   2.883   6.448 -0.2129  0.0969 -0.2546
  183SOPE   HN120884   2.318   2.874   6.370 -0.3690 -0.2848 -0.0779
  183SOPE   HN220885   2.354   2.957   6.513  0.7134 -0.4716  0.8844
  183SOPE   HN320886   2.469   2.924   6.400  1.4833 -0.4096  2.0846
  183SOPE   C1220887   2.400   2.755   6.520 -0.1266 -0.3466  0.1914
  183SOPE  H12A20888   2.323   2.686   6.481 -0.5088 -0.5552  1.2808
  183SOPE  H12B20889   2.375   2.763   6.628  2.8562  0.1232  0.9466
  183SOPE   C1120890   2.540   2.689   6.496  0.8393  0.0487 -0.0711
  183SOPE  H11A20891   2.533   2.588   6.542 -1.5312  1.0811  2.0474
  183SOPE  H11B20892   2.619   2.741   6.554  1.5410 -1.5406  0.4449
  183SOPE     P20893   2.694   2.605   6.305 -0.1358 -0.0008  0.4179
  183SOPE   O1320894   2.719   2.683   6.181 -0.3195  0.8037  0.2230
  183SOPE   O1420895   2.683   2.455   6.291 -0.7742 -0.8385  0.3803
  183SOPE   O1220896   2.562   2.672   6.355  0.4518 -0.3915  0.3399
  183SOPE   O1120897   2.806   2.645   6.407  0.0475 -0.0789 -0.3922
  183SOPE    C120898   2.846   2.780   6.418  0.0089  0.2412  0.0466
  183SOPE    HA20899   2.763   2.854   6.417  0.3812  0.7768  2.2384
  183SOPE    HB20900   2.915   2.800   6.333 -0.6662  0.5426 -0.4449
  183SOPE    C220901   2.923   2.790   6.557  0.0725 -0.5847  0.0330
  183SOPE    HS20902   2.996   2.706   6.559  0.2962 -0.4013 -0.2456
  183SOPE   O2120903   2.835   2.786   6.673  0.4140  0.4302 -0.0793
  183SOPE   C2120904   2.881   2.733   6.786  0.3498 -0.7588 -0.3477
  183SOPE   O2220905   2.998   2.706   6.800  0.1788  0.5910 -0.3140
  183SOPE   C2220906   2.767   2.720   6.883 -0.0126 -0.0899 -0.0667
  183SOPE   H2R20907   2.781   2.627   6.942  3.1058  1.2673  1.5678
  183SOPE   H2S20908   2.674   2.714   6.824  2.0791  1.4427 -3.8588
  183SOPE    C320909   3.016   2.925   6.552  0.0716 -0.2377  0.9171
  183SOPE    HX20910   2.956   3.010   6.514 -0.8315 -1.7382 -1.2042
  183SOPE    HY20911   3.089   2.910   6.470 -2.1393  2.6581 -1.8014
  183SOPE   O3120912   3.088   2.958   6.680  0.0136  0.1603 -0.1947
  183SOPE   C3120913   3.205   2.904   6.693  0.3297 -0.9657 -0.2621
  183SOPE   O3220914   3.262   2.829   6.616  0.3446 -0.0104 -0.0300
  183SOPE   C3220915   3.271   2.954   6.823 -1.3314  0.0234 -0.7564
  183SOPE   H2X20916   3.208   3.027   6.877 -2.2045 -1.9432  1.0250
  183SOPE   H2Y20917   3.367   3.005   6.800 -0.3708 -0.9305  0.9763
  183SOPE   C2320918   2.765   2.838   6.977  0.2864  0.2073  0.1727
  183SOPE   H3R20919   2.671   2.825   7.034  0.0005 -2.1139 -0.6783
  183SOPE   H3S20920   2.770   2.937   6.927  1.6638  0.1863  0.2203
  183SOPE   C2420921   2.882   2.833   7.082 -0.4476 -0.6593 -0.2906
  183SOPE   H4R20922   2.856   2.757   7.159 -1.8773  1.4654  1.4539
  183SOPE   H4S20923   2.980   2.808   7.036 -0.6161  0.4826 -1.3226
  183SOPE   C2520924   2.909   2.973   7.143 -0.0790 -0.0351 -0.1806
  183SOPE   H5R20925   2.949   3.035   7.060  1.0691 -2.4519 -1.5288
  183SOPE   H5S20926   2.807   3.005   7.174  0.2386 -0.8775  1.9100
  183SOPE   C2620927   2.997   2.961   7.270  0.4293  0.0624  0.6393
  183SOPE   H6R20928   2.939   2.897   7.340 -1.4462  1.7073  0.6946
  183SOPE   H6S20929   3.097   2.917   7.252 -0.3477 -2.3918  1.9096
  183SOPE   C2720930   3.021   3.100   7.334 -0.3423  1.1029 -0.0408
  183SOPE   H7R20931   3.076   3.155   7.255  0.9031 -0.9647 -0.7024
  183SOPE   H7S20932   2.924   3.149   7.354 -0.5830  0.3433  0.7454
  183SOPE   C2820933   3.105   3.106   7.460 -0.6118  0.2215 -0.3735
  183SOPE   H8R20934   3.211   3.079   7.438 -0.9527 -0.7598 -0.8952
  183SOPE   H8S20935   3.098   3.205   7.509 -0.7079 -0.4851  1.0978
  183SOPE   C2920936   3.069   3.006   7.560  0.6444 -0.1267 -0.9677
  183SOPE   H9120937   3.086   2.902   7.527  2.1180 -0.1080 -0.3558
  183SOPE  C21020938   3.024   3.034   7.687 -0.0105 -0.1763 -0.4564
  183SOPE  H10120939   3.001   2.945   7.746  0.3471 -2.1837 -3.1329
  183SOPE  C21120940   2.997   3.171   7.753  0.3262  0.7703 -0.3584
  183SOPE  H11R20941   2.894   3.157   7.792 -0.1931  0.4531 -1.7854
  183SOPE  H11S20942   2.976   3.246   7.674 -2.3334 -0.7168 -1.1883
  183SOPE  C21220943   3.092   3.217   7.861 -0.4339 -0.2446  1.0531
  183SOPE  H12R20944   3.066   3.319   7.898  0.1828  0.6684 -0.8774
  183SOPE  H12S20945   3.188   3.218   7.806 -0.9673 -0.6793  0.0932
  183SOPE  C21320946   3.099   3.126   7.984  0.2170  0.4854  0.6390
  183SOPE  H13R20947   3.145   3.027   7.964  1.1118  1.1510 -0.7364
  183SOPE  H13S20948   2.992   3.099   7.999  1.0861 -3.5660  0.8558
  183SOPE  C21420949   3.160   3.194   8.102 -0.1555  0.1543  0.7724
  183SOPE  H14R20950   3.121   3.298   8.106 -0.0303  0.2532 -0.2890
  183SOPE  H14S20951   3.269   3.205   8.086 -0.1701  0.8253  1.1039
  183SOPE  C21520952   3.125   3.125   8.236 -0.1601 -0.5283  0.3404
  183SOPE  H15R20953   3.150   3.016   8.233  1.8677 -0.0991 -0.2993
  183SOPE  H15S20954   3.018   3.141   8.259  0.0134 -1.2613  1.7758
  183SOPE  C21620955   3.209   3.166   8.353 -0.7662 -0.5292 -0.4388
  183SOPE  H16R20956   3.247   3.270   8.344  0.4904 -0.5622  2.9505
  183SOPE  H16S20957   3.303   3.108   8.358  0.2370  0.9733 -1.0958
  183SOPE  C21720958   3.141   3.157   8.494  1.0525  0.4788 -0.7762
  183SOPE  H17R20959   3.139   3.048   8.519 -0.2997  0.9497  1.3925
  183SOPE  H17S20960   3.035   3.188   8.484  0.7988 -0.8313 -2.6612
  183SOPE  C21820961   3.216   3.231   8.607  0.5179 -0.0145 -0.1250
  183SOPE  H18R20962   3.325   3.213   8.595  0.3964  0.1514 -1.7846
  183SOPE  H18S20963   3.185   3.188   8.704 -0.3830  1.3185  0.1974
  183SOPE  H18T20964   3.195   3.340   8.601  0.1081 -0.0428  0.7172
  183SOPE   C3320965   3.308   2.846   6.922  0.0210  0.3214 -0.4393
  183SOPE   H3X20966   3.383   2.783   6.869 -0.2818  0.0042 -0.5013
  183SOPE   H3Y20967   3.215   2.789   6.944 -0.4243  0.6666 -1.3819
  183SOPE   C3420968   3.371   2.897   7.052 -0.0757 -0.2820 -0.9566
  183SOPE   H4X20969   3.300   2.959   7.111  0.6449  1.3814 -1.7555
  183SOPE   H4Y20970   3.440   2.981   7.027 -2.4012  2.3828  0.9868
  183SOPE   C3520971   3.438   2.786   7.132 -0.1412 -0.2668 -0.2580
  183SOPE   H5X20972   3.501   2.736   7.055 -0.5177  1.1352 -1.5209
  183SOPE   H5Y20973   3.364   2.718   7.180 -0.2809  0.3686  0.4534
  183SOPE   C3620974   3.518   2.852   7.250  0.1678  0.6280 -0.8483
  183SOPE   H6X20975   3.573   2.939   7.211 -0.5036  1.1844 -0.5743
  183SOPE   H6Y20976   3.582   2.762   7.265  1.1674  0.9103 -3.0736
  183SOPE   C3720977   3.428   2.892   7.369 -0.0159  0.0997  0.0028
  183SOPE   H7X20978   3.372   2.800   7.394 -0.2804  0.2719  0.0503
  183SOPE   H7Y20979   3.363   2.968   7.320  0.4545 -0.7314 -1.9678
  183SOPE   C3820980   3.509   2.951   7.490 -0.7429 -0.8784 -0.2565
  183SOPE   H8X20981   3.564   3.046   7.473  0.6244 -1.5988 -0.0180
  183SOPE   H8Y20982   3.585   2.873   7.512  0.3878  0.9831  3.2258
  183SOPE   C3920983   3.436   2.951   7.622 -0.3718 -0.6250  0.7665
  183SOPE   H9X20984   3.340   2.894   7.619 -0.2887 -0.8682  1.9440
  183SOPE   H9Y20985   3.421   3.060   7.640 -0.1833 -0.3674 -0.5367
  183SOPE  C31020986   3.517   2.884   7.740  0.5290  0.0271  0.0869
  183SOPE  H10X20987   3.621   2.919   7.721  2.1812 -4.7180 -1.1798
  183SOPE  H10Y20988   3.521   2.777   7.710 -1.7979  0.4618 -2.1715
  183SOPE  C31120989   3.456   2.925   7.874 -0.2837  0.3292 -0.0895
  183SOPE  H11X20990   3.347   2.907   7.878 -0.6358  2.2434 -0.3116
  183SOPE  H11Y20991   3.471   3.033   7.895  0.3788  0.5404 -1.5387
  183SOPE  C31220992   3.501   2.851   8.001 -0.1687  0.6246  0.0898
  183SOPE  H12X20993   3.497   2.744   7.972 -1.7781  0.9172 -0.8766
  183SOPE  H12Y20994   3.424   2.877   8.077 -1.5669 -2.6103 -0.0593
  183SOPE  C31320995   3.651   2.876   8.041 -0.0287 -0.3154  0.1235
  183SOPE  H13X20996   3.672   2.980   8.008 -2.7353  0.5299  0.7835
  183SOPE  H13Y20997   3.719   2.814   7.979  1.2618  0.0127  1.1501
  183SOPE  C31420998   3.667   2.868   8.194  0.2282 -0.3100 -0.6896
  183SOPE  H14X20999   3.593   2.927   8.252  3.8492  1.7266  2.2886
  183SOPE  H14Y21000   3.765   2.907   8.230 -0.8570  0.9503  1.0344
  183SOPE  C31521001   3.655   2.726   8.239  0.3850  0.0999 -0.7984
  183SOPE  H15X21002   3.719   2.653   8.185  2.2328  0.6246  0.5986
  183SOPE  H15Y21003   3.548   2.696   8.236  0.6507 -1.0085  0.2054
  183SOPE  C31621004   3.696   2.714   8.385  0.3954 -0.1082  0.1703
  183SOPE  H16X21005   3.656   2.804   8.436 -1.0992 -2.1194  2.7994
  183SOPE  H16Y21006   3.806   2.720   8.402  0.3151 -1.9374  1.7038
  183SOPE  C31721007   3.616   2.594   8.451  0.2399 -0.3128  0.0866
  183SOPE  H17X21008   3.633   2.508   8.383  1.4849  0.3546 -0.4799
  183SOPE  H17Y21009   3.508   2.621   8.456 -0.0854 -1.8047  2.5626
  183SOPE  C31821010   3.663   2.569   8.597  0.4745  0.2130  0.2852
  183SOPE  H18X21011   3.770   2.599   8.592  0.5922 -0.2915 -0.2614
  183SOPE  H18Y21012   3.634   2.468   8.633 -0.0320  0.3046  0.1422
  183SOPE  H18Z21013   3.613   2.640   8.666  0.1858  1.7058 -1.4085
  184SOPE     N21014   3.047   3.264   6.213  0.8014 -0.3819  0.0295
  184SOPE   HN121015   3.093   3.343   6.165 -2.7517  1.7218 -0.3052
  184SOPE   HN221016   3.016   3.281   6.311  2.9559 -2.3948  1.1692
  184SOPE   HN321017   3.111   3.184   6.233 -1.0124 -1.1223  3.7021
  184SOPE   C1221018   2.924   3.202   6.142 -0.0631 -0.0415 -0.9140
  184SOPE  H12A21019   2.968   3.154   6.052  0.1984 -0.0346 -0.7912
  184SOPE  H12B21020   2.857   3.285   6.114  0.1620  0.2146 -0.7018
  184SOPE   C1121021   2.869   3.087   6.236 -0.5794  0.4648 -0.2075
  184SOPE  H11A21022   2.955   3.029   6.277 -0.4752  0.4604 -0.4322
  184SOPE  H11B21023   2.815   3.009   6.178 -2.3360 -1.5032  3.6761
  184SOPE     P21024   2.633   3.147   6.340 -0.5700  0.0078 -0.4221
  184SOPE   O1321025   2.594   3.014   6.295  0.1827 -1.2035  0.0073
  184SOPE   O1421026   2.591   3.266   6.265  0.2748  0.2505 -0.2280
  184SOPE   O1221027   2.790   3.147   6.335  0.2379  0.5257 -0.3708
  184SOPE   O1121028   2.597   3.164   6.487  0.0791  0.6587  0.2724
  184SOPE    C121029   2.679   3.241   6.575 -0.7130 -0.4123 -0.6373
  184SOPE    HA21030   2.622   3.327   6.615  1.0352  0.5316 -0.0839
  184SOPE    HB21031   2.762   3.291   6.521 -1.1897  0.8134 -0.2559
  184SOPE    C221032   2.734   3.149   6.693 -0.2896 -0.8761 -0.2345
  184SOPE    HS21033   2.761   3.049   6.654  1.9543 -0.4379  0.0542
  184SOPE   O2121034   2.637   3.135   6.795  0.1230 -0.4887  0.1406
  184SOPE   C2121035   2.523   3.069   6.767 -0.5163  0.0083 -0.1080
  184SOPE   O2221036   2.504   2.994   6.675 -0.1386 -0.0299  0.5281
  184SOPE   C2221037   2.420   3.094   6.876 -0.4287 -0.4337 -0.1198
  184SOPE   H2R21038   2.332   3.133   6.820  0.0152  1.1168  0.2194
  184SOPE   H2S21039   2.445   3.164   6.959  1.3138 -1.3312  0.1455
  184SOPE    C321040   2.873   3.191   6.758 -0.0087 -0.2726 -0.4955
  184SOPE    HX21041   2.943   3.193   6.671  1.0509  1.3629  0.3362
  184SOPE    HY21042   2.901   3.113   6.832  1.9354 -0.8280 -1.7199
  184SOPE   O3121043   2.860   3.326   6.813 -0.1210  0.0538  0.1219
  184SOPE   C3121044   2.964   3.397   6.804 -0.4617 -0.3771 -0.4188
  184SOPE   O3221045   3.079   3.370   6.771 -0.1643 -0.0356 -0.0227
  184SOPE   C3221046   2.930   3.543   6.841  0.2458 -0.2254 -0.1441
  184SOPE   H2X21047   2.858   3.577   6.764  0.0024 -0.1129  0.1288
  184SOPE   H2Y21048   3.027   3.593   6.821 -0.2823 -0.3948 -3.7870
  184SOPE   C2321049   2.371   2.950   6.918 -0.2660  0.2503  0.6986
  184SOPE   H3R21050   2.456   2.884   6.945  0.2484 -0.1135 -1.6207
  184SOPE   H3S21051   2.311   2.891   6.845 -1.9891  0.1113  2.1652
  184SOPE   C2421052   2.277   2.950   7.036  0.3061 -0.0926  0.1677
  184SOPE   H4R21053   2.174   2.979   7.007  1.1305  2.8997 -0.1733
  184SOPE   H4S21054   2.264   2.843   7.061 -1.6166  0.2025  0.5943
  184SOPE   C2521055   2.315   3.024   7.172 -0.5058 -0.4619 -0.3727
  184SOPE   H5R21056   2.293   3.132   7.156 -1.3246 -0.6224 -0.3391
  184SOPE   H5S21057   2.245   2.981   7.247 -1.0611  0.5502 -0.2975
  184SOPE   C2621058   2.462   3.011   7.219 -0.1801 -0.5585 -0.3462
  184SOPE   H6R21059   2.489   2.903   7.213 -0.7264 -0.9170  2.4402
  184SOPE   H6S21060   2.528   3.068   7.150 -0.6638 -0.8946 -1.1136
  184SOPE   C2721061   2.488   3.069   7.365  0.6357 -0.0475  0.3868
  184SOPE   H7R21062   2.471   3.179   7.366 -0.3913 -0.1947  0.8564
  184SOPE   H7S21063   2.408   3.026   7.429  0.4069 -2.1576 -1.2308
  184SOPE   C2821064   2.608   3.016   7.446 -0.0339  0.1002  0.1227
  184SOPE   H8R21065   2.691   3.042   7.378  0.7425 -1.9300  0.2433
  184SOPE   H8S21066   2.623   3.082   7.535  0.3060 -0.6063  0.5998
  184SOPE   C2921067   2.613   2.873   7.498  0.0962  0.9842  0.7144
  184SOPE   H9121068   2.599   2.800   7.416  1.0443 -0.6614  1.9514
  184SOPE  C21021069   2.630   2.822   7.623 -0.6478 -0.6265 -0.0915
  184SOPE  H10121070   2.646   2.713   7.630  0.2558 -0.6033 -1.3090
  184SOPE  C21121071   2.665   2.900   7.744 -0.3347 -0.3242  0.0564
  184SOPE  H11R21072   2.646   3.009   7.738  0.9776 -0.0480  0.6748
  184SOPE  H11S21073   2.772   2.883   7.767  0.2147 -0.0446 -2.0620
  184SOPE  C21221074   2.577   2.862   7.869 -1.0568  0.2364  0.2345
  184SOPE  H12R21075   2.571   2.751   7.881  1.1052 -0.3379 -2.8167
  184SOPE  H12S21076   2.477   2.902   7.842 -0.2947  0.7471 -2.0236
  184SOPE  C21321077   2.616   2.930   8.001 -0.3186  0.2492 -0.1707
  184SOPE  H13R21078   2.526   2.932   8.066  0.8333  1.1773  1.4777
  184SOPE  H13S21079   2.634   3.037   7.976  3.4989 -0.6128 -1.7203
  184SOPE  C21421080   2.738   2.873   8.075 -0.3374  0.1880 -0.3914
  184SOPE  H14R21081   2.820   2.886   8.000 -1.0666 -0.1646 -1.2682
  184SOPE  H14S21082   2.729   2.765   8.101 -0.4016  1.1383  4.4468
  184SOPE  C21521083   2.760   2.952   8.204 -0.2977 -0.6019 -0.1362
  184SOPE  H15R21084   2.668   2.944   8.267 -0.4919  0.4056 -0.2648
  184SOPE  H15S21085   2.793   3.057   8.188  2.7855 -1.3754  0.6446
  184SOPE  C21621086   2.868   2.883   8.285 -0.2254  0.7127  0.2316
  184SOPE  H16R21087   2.969   2.891   8.238  0.0441  0.9123  0.8265
  184SOPE  H16S21088   2.844   2.776   8.297  1.7125  0.5367  4.5924
  184SOPE  C21721089   2.880   2.929   8.431 -0.5646  0.2817  0.0633
  184SOPE  H17R21090   2.887   3.040   8.443 -1.3549  0.1710  1.8370
  184SOPE  H17S21091   2.975   2.896   8.477 -0.8654  2.4596  2.4638
  184SOPE  C21821092   2.781   2.861   8.521  0.6345  0.2312 -0.0931
  184SOPE  H18R21093   2.792   2.751   8.513 -0.7019  0.0676  0.1781
  184SOPE  H18S21094   2.681   2.889   8.483 -0.2498 -1.1688  1.0901
  184SOPE  H18T21095   2.788   2.887   8.629 -1.2667 -0.4925  0.2367
  184SOPE   C3321096   2.881   3.572   6.987  0.4956 -0.1577  0.3410
  184SOPE   H3X21097   2.772   3.558   7.004  0.9460 -0.3135  3.7281
  184SOPE   H3Y21098   2.905   3.679   7.005  0.0920  0.1260 -0.6920
  184SOPE   C3421099   2.960   3.487   7.086  0.1704  0.2833 -0.2546
  184SOPE   H4X21100   3.065   3.525   7.086  0.4314 -0.3565  1.3382
  184SOPE   H4Y21101   2.957   3.379   7.060 -1.5306  0.1644  0.3067
  184SOPE   C3521102   2.908   3.499   7.230  0.7658 -0.7549  0.2457
  184SOPE   H5X21103   2.901   3.607   7.255  1.0477 -0.9304  1.1173
  184SOPE   H5Y21104   2.977   3.461   7.308  2.0960 -0.1771 -0.6212
  184SOPE   C3621105   2.771   3.423   7.250  0.5881  0.3555 -0.1216
  184SOPE   H6X21106   2.804   3.318   7.263 -0.5262  0.0681  0.4956
  184SOPE   H6Y21107   2.703   3.420   7.161 -0.2053 -0.3881  0.4930
  184SOPE   C3721108   2.693   3.464   7.381  0.3092 -0.0339  0.1712
  184SOPE   H7X21109   2.594   3.413   7.377 -0.0064  0.2799  2.5588
  184SOPE   H7Y21110   2.687   3.575   7.383 -0.2043 -0.0696  0.8460
  184SOPE   C3821111   2.755   3.413   7.506 -0.0456 -0.4899  0.2395
  184SOPE   H8X21112   2.866   3.418   7.509 -0.1309  2.9322  1.4760
  184SOPE   H8Y21113   2.734   3.305   7.520 -3.2445 -0.3239 -2.1076
  184SOPE   C3921114   2.703   3.482   7.631 -0.6021 -0.3407  0.3177
  184SOPE   H9X21115   2.596   3.511   7.617 -0.4103 -0.4772 -1.7920
  184SOPE   H9Y21116   2.744   3.584   7.646 -0.3043 -0.4212  0.0428
  184SOPE  C31021117   2.732   3.399   7.758 -0.4396  0.0672 -0.2895
  184SOPE  H10X21118   2.841   3.382   7.768 -0.7015 -3.6692 -2.1436
  184SOPE  H10Y21119   2.683   3.299   7.758 -1.6203  0.6132 -0.9985
  184SOPE  C31121120   2.678   3.472   7.883  0.0058  0.5399  0.7345
  184SOPE  H11X21121   2.570   3.448   7.887 -0.1590  0.9473 -0.8043
  184SOPE  H11Y21122   2.702   3.580   7.877  0.6060  0.3694 -0.3243
  184SOPE  C31221123   2.746   3.404   8.003  0.2858  0.2346  0.1785
  184SOPE  H12X21124   2.846   3.448   8.023  0.9948 -1.8278  1.5308
  184SOPE  H12Y21125   2.776   3.297   7.990  1.1662  0.4086  0.7124
  184SOPE  C31321126   2.650   3.423   8.124 -0.0771 -0.3122  0.4780
  184SOPE  H13X21127   2.565   3.354   8.104  1.4407 -1.9576 -0.6323
  184SOPE  H13Y21128   2.608   3.525   8.127  1.1574  0.2890 -1.1543
  184SOPE  C31421129   2.720   3.391   8.255  0.3694  0.3529 -0.3615
  184SOPE  H14X21130   2.825   3.429   8.253  0.8056 -0.8332 -0.3473
  184SOPE  H14Y21131   2.727   3.281   8.252 -1.4153  0.2246 -1.0758
  184SOPE  C31521132   2.655   3.455   8.376 -0.0909 -0.0552 -0.6166
  184SOPE  H15X21133   2.545   3.439   8.365 -0.8326  2.9821  1.0898
  184SOPE  H15Y21134   2.651   3.566   8.368 -0.0373 -0.0185 -0.1471
  184SOPE  C31621135   2.699   3.411   8.520 -0.1783  0.0041  0.5834
  184SOPE  H16X21136   2.808   3.427   8.533 -0.3065  1.3214  0.1546
  184SOPE  H16Y21137   2.700   3.300   8.512  0.3458  0.1349 -1.7764
  184SOPE  C31721138   2.614   3.471   8.636  0.8500 -0.6683  0.4461
  184SOPE  H17X21139   2.546   3.399   8.686  0.3786 -0.1439  0.5697
  184SOPE  H17Y21140   2.551   3.548   8.588  2.0702  0.6925  0.9639
  184SOPE  C31821141   2.702   3.531   8.749  0.2744 -0.3438 -0.3198
  184SOPE  H18X21142   2.757   3.621   8.712 -0.8359  0.3575 -0.3099
  184SOPE  H18Y21143   2.789   3.467   8.777 -0.1471 -1.3812 -1.3342
  184SOPE  H18Z21144   2.635   3.556   8.834 -1.3480 -0.9549 -1.3967
  185SAPI   C1221145   6.690   1.129  11.322 -0.0414  0.1411  0.6972
  185SAPI    H221146   6.772   1.059  11.297  1.0670  1.0296  1.7512
  185SAPI    O221147   6.607   1.063  11.424 -0.4032  0.4233  0.4127
  185SAPI   HO221148   6.555   1.006  11.368  0.7970 -1.1813  0.8723
  185SAPI   C1321149   6.750   1.258  11.377 -0.2394 -0.4457 -0.7231
  185SAPI    H321150   6.806   1.303  11.292 -0.4571 -3.3653 -2.5571
  185SAPI    O321151   6.834   1.239  11.490  0.0614 -0.1258 -0.3742
  185SAPI   HO321152   6.884   1.320  11.497 -1.1604  0.5016  1.6939
  185SAPI   C1421153   6.632   1.351  11.408  0.3334  0.1451 -0.2173
  185SAPI    H421154   6.565   1.303  11.483  0.2396  0.3324 -0.1792
  185SAPI    O421155   6.666   1.478  11.467 -0.0219 -0.2231  0.0579
  185SAPI   HO421156   6.642   1.476  11.560  0.0405  0.9527  0.1195
  185SAPI   C1521157   6.549   1.374  11.280 -0.2649  0.6027  0.0602
  185SAPI    H521158   6.618   1.420  11.206 -0.4598  1.4720  0.3977
  185SAPI    O521159   6.445   1.471  11.296 -0.0296  0.3995  0.4733
  185SAPI   HO521160   6.479   1.559  11.310  0.6249  0.6052 -1.9748
  185SAPI   C1621161   6.494   1.247  11.222  0.2385  0.1205 -0.7218
  185SAPI    H621162   6.421   1.201  11.292  0.4305 -0.8805 -1.1723
  185SAPI    O621163   6.416   1.262  11.098 -0.2416  0.0825 -0.7028
  185SAPI   HO621164   6.476   1.306  11.037 -1.1981  0.4769 -1.3798
  185SAPI   C1121165   6.607   1.143  11.197 -0.2787  0.3671  0.0230
  185SAPI    H121166   6.669   1.184  11.114 -2.0128  2.6008 -0.2449
  185SAPI     P21167   6.579   0.908  11.048  0.5452  0.0341  0.3581
  185SAPI   O1321168   6.547   0.778  11.109 -0.6053  0.1942 -0.2447
  185SAPI   O1421169   6.712   0.937  10.994  0.0089  0.3272 -0.6716
  185SAPI   O1221170   6.543   1.019  11.163  0.3755  0.2019 -0.1711
  185SAPI   O1121171   6.481   0.938  10.926  0.3978 -0.3659  0.0203
  185SAPI    C121172   6.376   0.857  10.877  0.2505  0.2498 -0.0445
  185SAPI    HA21173   6.351   0.768  10.938  1.7042 -1.3534 -1.6852
  185SAPI    HB21174   6.282   0.916  10.880  0.0222 -0.0561 -0.8843
  185SAPI    C221175   6.402   0.805  10.733 -0.3464 -0.2035 -0.0570
  185SAPI    HS21176   6.487   0.735  10.746  0.7796  1.1109 -0.0310
  185SAPI   O2121177   6.439   0.915  10.650 -0.1071 -0.1246  0.4441
  185SAPI   C2121178   6.527   0.891  10.555  0.1907  0.2484  0.3182
  185SAPI   O2221179   6.586   0.786  10.536 -0.2111  0.5133  0.2163
  185SAPI   C2221180   6.554   1.020  10.472  0.2903  0.1948 -0.0870
  185SAPI   H2R21181   6.503   1.109  10.514 -0.4428 -0.0024 -0.5495
  185SAPI   H2S21182   6.663   1.031  10.492  0.6251 -2.1863 -0.3434
  185SAPI    C321183   6.279   0.730  10.670  0.2848 -0.2396  0.2271
  185SAPI    HX21184   6.215   0.815  10.637  0.2869  0.8043  2.7010
  185SAPI    HY21185   6.229   0.664  10.744 -0.2244  0.2259  0.3054
  185SAPI   O3121186   6.315   0.649  10.557  0.3494 -0.1788 -0.3363
  185SAPI   C3121187   6.363   0.526  10.585  0.2580 -0.1489  0.2346
  185SAPI   O3221188   6.386   0.482  10.694 -0.6072  0.6540 -0.4613
  185SAPI   C3221189   6.398   0.455  10.456  0.0659  0.9990 -0.2403
  185SAPI   H2X21190   6.360   0.351  10.462 -1.0839  1.4725  1.7725
  185SAPI   H2Y21191   6.508   0.459  10.444  0.1124  0.4143 -0.0129
  185SAPI   C2321192   6.523   0.982  10.319 -0.5075 -0.3832  0.0434
  185SAPI   H3R21193   6.578   0.886  10.302  1.5726  0.6992  0.2922
  185SAPI   H3S21194   6.577   1.062  10.265  1.9052 -1.1606  1.1509
  185SAPI   C2421195   6.377   0.987  10.286  1.0882 -0.0747 -0.7747
  185SAPI   H4R21196   6.366   1.016  10.179 -0.6296 -0.8029 -0.8335
  185SAPI   H4S21197   6.339   1.081  10.331 -0.4306 -0.9958 -0.0321
  185SAPI   C2521198   6.279   0.880  10.326  1.1382  0.5210  0.3812
  185SAPI   H5R21199   6.266   0.849  10.431  0.1126  0.6978  0.3241
  185SAPI   C2621200   6.183   0.832  10.235 -0.3752 -0.0120 -0.1159
  185SAPI   H6R21201   6.126   0.745  10.270  0.3941 -0.9038 -1.0557
  185SAPI   C2721202   6.173   0.867  10.086 -0.1922 -0.4643  0.1936
  185SAPI   H7R21203   6.126   0.780  10.036 -0.3802  0.1065 -0.6359
  185SAPI   H7S21204   6.274   0.875  10.041 -0.5822 -1.0624 -0.8097
  185SAPI   C2821205   6.104   1.004  10.069 -0.5524 -0.2342 -0.1771
  185SAPI   H8R21206   6.072   1.059  10.159 -0.3830  0.5415 -0.5751
  185SAPI   C2921207   6.084   1.058   9.950  0.1395 -0.1005  0.0906
  185SAPI   H9R21208   6.031   1.155   9.943 -0.0965 -0.3259 -1.9198
  185SAPI  C21021209   6.130   1.010   9.823  0.0272  0.4709  1.3352
  185SAPI  H10R21210   6.049   1.020   9.748 -0.6595 -0.4206  1.9412
  185SAPI  H10S21211   6.144   0.900   9.821 -1.5276  0.2326 -1.7078
  185SAPI  C21121212   6.257   1.070   9.760  0.4026  0.5751 -0.9596
  185SAPI  H11R21213   6.332   1.116   9.826  0.5500  0.3212 -0.9468
  185SAPI  C21221214   6.295   1.055   9.635  1.0373  0.0101  0.1627
  185SAPI  H12R21215   6.390   1.100   9.602  0.4415  1.2796  0.0873
  185SAPI  C21321216   6.211   0.983   9.536 -0.3812  0.0904 -0.8176
  185SAPI  H13R21217   6.167   0.886   9.569 -1.6327  0.9296  0.0782
  185SAPI  H13S21218   6.273   0.949   9.451 -2.6308 -3.2085 -1.3610
  185SAPI  C21421219   6.102   1.073   9.473  0.2073 -0.1162 -0.7018
  185SAPI  H14R21220   6.031   1.101   9.552  1.2778  3.5531 -0.8495
  185SAPI  C21521221   6.083   1.134   9.354 -0.2741  0.0788  0.6607
  185SAPI  H15R21222   5.991   1.194   9.344 -0.7374 -0.9075 -2.0282
  185SAPI  C21621223   6.175   1.130   9.233 -1.0236  0.5314  0.5249
  185SAPI  H16R21224   6.266   1.068   9.252  0.7078  3.0534  0.9995
  185SAPI  H16S21225   6.219   1.231   9.219 -1.6724  1.0493  2.0507
  185SAPI  C21721226   6.108   1.081   9.103  0.3727  0.3272  0.2537
  185SAPI  H17R21227   6.175   1.108   9.019 -0.2471 -0.7384 -0.6118
  185SAPI  H17S21228   6.004   1.117   9.086  0.2607  0.0832  0.4068
  185SAPI  C21821229   6.088   0.929   9.096 -0.0643  1.0231 -0.4089
  185SAPI  H18R21230   6.009   0.902   9.169 -1.5140  0.8123 -1.9793
  185SAPI  H18S21231   6.183   0.882   9.130 -1.7927 -2.6344 -0.1943
  185SAPI  C21921232   6.056   0.863   8.961  0.0090  0.2753  0.3282
  185SAPI  H19R21233   6.132   0.882   8.883 -0.6891 -2.3543 -1.1073
  185SAPI  H19S21234   5.966   0.917   8.924  0.7383  0.5416 -1.1060
  185SAPI  C22021235   6.035   0.712   8.982  0.3708  0.8896  0.7913
  185SAPI  H20R21236   5.996   0.687   9.083  1.7469 -1.0327  0.9078
  185SAPI  H20S21237   6.125   0.651   8.957 -0.8761 -0.5133 -0.5530
  185SAPI  H20T21238   5.958   0.670   8.913 -0.0679  1.1256  1.1351
  185SAPI   C3321239   6.329   0.520  10.334  0.3608  0.1006 -0.2818
  185SAPI   H3X21240   6.381   0.616  10.314 -0.6079  0.4533 -1.2394
  185SAPI   H3Y21241   6.226   0.543  10.369  0.9022  2.1293  0.1199
  185SAPI   C3421242   6.331   0.441  10.202 -0.3063  1.1164  1.0685
  185SAPI   H4X21243   6.298   0.336  10.216 -0.3305  0.8830 -0.5950
  185SAPI   H4Y21244   6.435   0.437  10.164 -0.2123 -1.9298  1.4232
  185SAPI   C3521245   6.252   0.498  10.082 -0.5087 -0.3610 -0.5594
  185SAPI   H5X21246   6.288   0.601  10.059  2.7340 -1.2201  0.1008
  185SAPI   H5Y21247   6.146   0.506  10.113 -0.7790 -0.7991 -1.3327
  185SAPI   C3621248   6.243   0.414   9.960 -0.4060 -0.0603  0.4796
  185SAPI   H6X21249   6.184   0.322   9.979 -0.5431 -0.0901 -0.0934
  185SAPI   H6Y21250   6.345   0.401   9.919  0.9482  1.3302  3.1191
  185SAPI   C3721251   6.160   0.483   9.845 -0.0878 -0.7128  0.2023
  185SAPI   H7X21252   6.215   0.570   9.803 -0.8002 -0.2194  0.2619
  185SAPI   H7Y21253   6.059   0.516   9.878 -0.1794 -1.8199  1.0733
  185SAPI   C3821254   6.136   0.394   9.715 -0.6713 -0.3650 -0.2198
  185SAPI   H8X21255   6.067   0.313   9.748 -0.8217 -0.0390  0.2682
  185SAPI   H8Y21256   6.234   0.348   9.690 -1.5659 -1.7319 -1.4059
  185SAPI   C3921257   6.079   0.469   9.596 -0.6415 -0.5064  0.4185
  185SAPI   H9X21258   6.065   0.396   9.513 -0.2218  1.3962 -1.4109
  185SAPI   H9Y21259   6.159   0.533   9.555  0.5299 -2.5449 -0.6644
  185SAPI  C31021260   5.954   0.551   9.620  0.1985 -0.7102  0.5228
  185SAPI  H10X21261   5.983   0.624   9.699  3.5388 -2.0162  0.6793
  185SAPI  H10Y21262   5.872   0.482   9.648 -1.4154  0.5989 -0.7901
  185SAPI  C31121263   5.917   0.628   9.491  0.0275  0.0537  0.8528
  185SAPI  H11X21264   5.928   0.561   9.404 -1.3102 -0.3576  0.9780
  185SAPI  H11Y21265   5.995   0.704   9.468 -0.6195  0.7648  0.9517
  185SAPI  C31221266   5.781   0.709   9.492 -0.3370 -0.4726  0.6034
  185SAPI  H12X21267   5.796   0.781   9.575  0.8365  0.9826 -0.8023
  185SAPI  H12Y21268   5.699   0.643   9.529 -0.6794 -1.4095 -1.6817
  185SAPI  C31321269   5.735   0.790   9.373  0.4337 -0.7317 -0.7791
  185SAPI  H13X21270   5.822   0.844   9.330 -0.6439  2.8093  1.0830
  185SAPI  H13Y21271   5.673   0.872   9.415 -2.1832 -2.8417 -0.2669
  185SAPI  C31421272   5.655   0.711   9.278 -0.1123 -0.1329  0.3480
  185SAPI  H14X21273   5.582   0.649   9.334  1.0865 -1.4841  0.4669
  185SAPI  H14Y21274   5.722   0.634   9.234  0.1489 -1.8011  3.4039
  185SAPI  C31521275   5.607   0.802   9.163  0.4134  0.5367  0.2699
  185SAPI  H15X21276   5.683   0.876   9.131 -3.3041  4.0927 -1.1536
  185SAPI  H15Y21277   5.514   0.859   9.183 -0.3122 -0.7749  0.8104
  185SAPI  C31621278   5.592   0.721   9.034 -0.2463 -0.3820  0.4606
  185SAPI  H16X21279   5.524   0.636   9.052  1.4398 -1.8522  0.1893
  185SAPI  H16Y21280   5.694   0.683   9.010  0.3963  2.5760 -2.1730
  185SAPI  C31721281   5.551   0.793   8.898  0.4030 -0.2143 -0.2764
  185SAPI  H17X21282   5.460   0.853   8.921  0.6398  0.2787 -0.5943
  185SAPI  H17Y21283   5.525   0.729   8.811  1.1307  0.5133 -1.0501
  185SAPI  C31821284   5.665   0.890   8.855  0.2445  0.1105 -0.3220
  185SAPI  H18X21285   5.755   0.836   8.819 -0.4125 -1.8472  0.8494
  185SAPI  H18Y21286   5.689   0.959   8.940 -1.6679  0.6838 -0.2032
  185SAPI  H18Z21287   5.625   0.949   8.770  1.4956 -1.0274 -1.7499
  186SAPI   C1221288   0.704   5.802  10.949  0.6952  0.9451  0.0631
  186SAPI    H221289   0.704   5.714  11.017 -3.2705  1.9841  1.6754
  186SAPI    O221290   0.570   5.850  10.964 -0.2807  1.0569  0.1412
  186SAPI   HO221291   0.520   5.849  10.882  0.7291 -0.3251 -0.5011
  186SAPI   C1321292   0.809   5.900  10.992  0.0319  0.2799  0.0666
  186SAPI    H321293   0.907   5.849  10.986  0.3961  1.0246 -0.3363
  186SAPI    O321294   0.799   5.943  11.124 -0.9493  0.4014  0.1407
  186SAPI   HO321295   0.885   5.976  11.149  0.2285  0.6009 -3.5996
  186SAPI   C1421296   0.818   6.014  10.894 -0.4040 -0.7086  0.8313
  186SAPI    H421297   0.718   6.062  10.900 -1.8395 -3.5083  0.7035
  186SAPI    O421298   0.921   6.104  10.935  0.0724  0.4982  0.1377
  186SAPI   HO421299   1.005   6.096  10.890  1.0236  0.0325  1.8818
  186SAPI   C1521300   0.836   5.971  10.752 -0.3265  0.6306 -0.3260
  186SAPI    H521301   0.939   5.931  10.738 -0.3149 -0.0472  1.4842
  186SAPI    O521302   0.824   6.085  10.665 -0.3071  0.4342  0.6021
  186SAPI   HO521303   0.911   6.093  10.627 -1.1104  1.7528 -1.0906
  186SAPI   C1621304   0.730   5.872  10.715  0.1378  0.1190  0.0797
  186SAPI    H621305   0.635   5.928  10.722  0.5200  0.9127 -0.8280
  186SAPI    O621306   0.753   5.813  10.584 -0.3552  0.5089  0.7561
  186SAPI   HO621307   0.690   5.742  10.578 -0.4937  0.5447  1.6669
  186SAPI   C1121308   0.727   5.757  10.808  0.2713  0.6518 -0.9326
  186SAPI    H121309   0.829   5.714  10.797  0.1364  0.6151 -2.2862
  186SAPI     P21310   0.658   5.498  10.791 -0.1142  0.2133 -0.1369
  186SAPI   O1321311   0.530   5.426  10.822 -0.0251  0.2635 -0.5548
  186SAPI   O1421312   0.765   5.479  10.892 -0.2154 -0.2445  0.1164
  186SAPI   O1221313   0.631   5.657  10.770 -0.3189  0.5518 -0.0446
  186SAPI   O1121314   0.701   5.457  10.653  0.1713  0.3439 -0.1555
  186SAPI    C121315   0.808   5.376  10.623  0.0147  0.5534 -0.0759
  186SAPI    HA21316   0.847   5.321  10.711 -1.3005  0.8642  0.7312
  186SAPI    HB21317   0.772   5.298  10.552 -0.8518  1.4538 -0.6515
  186SAPI    C221318   0.930   5.452  10.551  0.4405  0.3901  0.0459
  186SAPI    HS21319   0.964   5.526  10.627  0.4904  2.5445 -1.9496
  186SAPI   O2121320   0.870   5.525  10.444 -0.1071  0.3452  0.1941
  186SAPI   C2121321   0.922   5.638  10.404  0.9851 -0.0530  0.1340
  186SAPI   O2221322   1.020   5.694  10.457  0.5289 -0.6589 -0.4853
  186SAPI   C2221323   0.866   5.670  10.268  0.1575 -0.0757  0.2430
  186SAPI   H2R21324   0.765   5.626  10.257  1.1804 -2.3001 -1.0255
  186SAPI   H2S21325   0.856   5.780  10.256 -0.3070 -0.0721  0.6436
  186SAPI    C321326   1.051   5.360  10.499 -0.2548  0.2755  0.2215
  186SAPI    HX21327   1.088   5.316  10.594  1.0828  1.0149  0.0608
  186SAPI    HY21328   1.123   5.432  10.455  1.7481 -0.9443  1.3869
  186SAPI   O3121329   0.993   5.262  10.415  0.5557 -0.7530  0.8605
  186SAPI   C3121330   1.035   5.252  10.285 -0.9385  0.3112 -0.6612
  186SAPI   O3221331   1.122   5.323  10.235  0.4197 -0.1941  0.0576
  186SAPI   C3221332   0.940   5.149  10.218  0.7567  0.1327  0.2867
  186SAPI   H2X21333   0.834   5.168  10.248  0.5631  0.6321 -0.6755
  186SAPI   H2Y21334   0.969   5.053  10.266 -2.1396 -0.8884  0.2104
  186SAPI   C2321335   0.956   5.605  10.153  0.4281 -0.3432  0.5428
  186SAPI   H3R21336   0.949   5.497  10.175 -0.8654 -0.3592  0.1172
  186SAPI   H3S21337   1.063   5.634  10.164  0.7966 -1.0877 -0.7535
  186SAPI   C2421338   0.903   5.624  10.013  0.1260  0.3780  0.5026
  186SAPI   H4R21339   0.793   5.610  10.007  0.4369 -1.6113 -2.9193
  186SAPI   H4S21340   0.947   5.549   9.945 -0.1982 -1.5131  2.2707
  186SAPI   C2521341   0.936   5.767   9.969 -0.1634  0.8091 -0.2546
  186SAPI   H5R21342   0.897   5.843  10.039 -1.9950  0.4206 -0.8165
  186SAPI   C2621343   0.999   5.804   9.854 -0.1977 -0.0016 -0.5371
  186SAPI   H6R21344   0.997   5.911   9.829 -0.1851  0.1998  0.3039
  186SAPI   C2721345   1.050   5.708   9.752 -0.2497 -0.0045  0.1390
  186SAPI   H7R21346   0.992   5.615   9.734  0.1935 -0.2799  0.1364
  186SAPI   H7S21347   1.148   5.669   9.787 -0.6055 -0.1398  1.0176
  186SAPI   C2821348   1.090   5.780   9.622 -0.7727  0.5569  0.4267
  186SAPI   H8R21349   1.014   5.854   9.589 -0.2648  0.4249 -1.0948
  186SAPI   C2921350   1.185   5.750   9.523 -0.2278  0.5701  0.7559
  186SAPI   H9R21351   1.186   5.813   9.434 -0.5102 -0.8207 -0.2761
  186SAPI  C21021352   1.297   5.642   9.511  0.1960  0.5784 -0.1606
  186SAPI  H10R21353   1.342   5.629   9.611 -0.5110 -1.3510 -0.0516
  186SAPI  H10S21354   1.383   5.673   9.448  2.3985 -2.1064  1.2877
  186SAPI  C21121355   1.242   5.506   9.470  0.0879 -0.2618  0.5162
  186SAPI  H11R21356   1.197   5.443   9.549  2.6534 -2.8176  0.1232
  186SAPI  C21221357   1.265   5.454   9.349  0.2440  0.4348  0.0107
  186SAPI  H12R21358   1.226   5.353   9.329  0.8450  0.3674 -0.8787
  186SAPI  C21321359   1.325   5.529   9.230 -0.3719 -0.2657  0.3049
  186SAPI  H13R21360   1.391   5.459   9.174 -0.9857 -0.5408 -0.0756
  186SAPI  H13S21361   1.401   5.600   9.268 -0.8146  0.2691  0.1975
  186SAPI  C21421362   1.223   5.613   9.156  0.7273  0.8203  0.4029
  186SAPI  H14R21363   1.127   5.638   9.205 -0.3869 -0.4096 -1.0277
  186SAPI  C21521364   1.242   5.660   9.032 -0.3479 -0.1536  0.4648
  186SAPI  H15R21365   1.169   5.720   8.976  2.2287  0.7078 -2.2317
  186SAPI  C21621366   1.367   5.636   8.951 -0.4360 -0.0251  0.0735
  186SAPI  H16R21367   1.378   5.526   8.938  0.3469  0.0095  0.4305
  186SAPI  H16S21368   1.460   5.676   8.995 -0.0898  0.1153 -0.7704
  186SAPI  C21721369   1.362   5.696   8.812  0.7093  0.4553 -0.3738
  186SAPI  H17R21370   1.327   5.802   8.809  2.5561  1.0807 -1.3857
  186SAPI  H17S21371   1.292   5.638   8.747 -0.0685 -0.2367  1.0410
  186SAPI  C21821372   1.503   5.682   8.746 -0.0400  0.1567 -0.3899
  186SAPI  H18R21373   1.496   5.707   8.638  0.1123  0.7321 -0.2678
  186SAPI  H18S21374   1.543   5.583   8.777 -0.1002  0.7794  1.8161
  186SAPI  C21921375   1.606   5.785   8.795 -0.4503  0.2152 -0.4492
  186SAPI  H19R21376   1.600   5.794   8.905 -0.4615 -0.6004 -0.3760
  186SAPI  H19S21377   1.581   5.885   8.755  0.8270  0.3640 -0.9324
  186SAPI  C22021378   1.749   5.752   8.768 -0.1321  0.2333 -1.1263
  186SAPI  H20R21379   1.771   5.737   8.660 -0.6429 -0.4417 -1.1470
  186SAPI  H20S21380   1.764   5.658   8.826 -0.4249  0.6486 -0.3627
  186SAPI  H20T21381   1.817   5.829   8.808 -0.1649 -1.0217  1.6078
  186SAPI   C3321382   0.948   5.130  10.063  0.2986  0.9566  0.4704
  186SAPI   H3X21383   0.881   5.043  10.045 -0.6930  1.3665  1.9999
  186SAPI   H3Y21384   1.048   5.096  10.029 -0.5862 -0.5465 -0.7527
  186SAPI   C3421385   0.909   5.246   9.970 -0.4244  0.0789  0.1347
  186SAPI   H4X21386   0.966   5.338   9.996 -1.2176  1.1216 -1.6008
  186SAPI   H4Y21387   0.799   5.260   9.974 -0.6447 -1.1701 -0.8684
  186SAPI   C3521388   0.946   5.212   9.825  0.3629 -0.6375 -0.0500
  186SAPI   H5X21389   0.880   5.131   9.788 -1.1691  1.1563 -1.4621
  186SAPI   H5Y21390   1.054   5.189   9.814  0.2561 -0.6412 -1.2601
  186SAPI   C3621391   0.920   5.335   9.729  0.7470  0.0814  0.5476
  186SAPI   H6X21392   0.993   5.416   9.753  2.0888 -0.7976 -0.3784
  186SAPI   H6Y21393   0.817   5.366   9.753 -0.7062 -2.4573 -1.8019
  186SAPI   C3721394   0.928   5.306   9.579 -0.1318  0.4948  0.1414
  186SAPI   H7X21395   1.027   5.257   9.574  0.5761  1.9970 -1.5015
  186SAPI   H7Y21396   0.955   5.404   9.536  2.1186 -0.7441 -1.4579
  186SAPI   C3821397   0.827   5.220   9.503 -0.2625  0.3876  0.4900
  186SAPI   H8X21398   0.730   5.268   9.528  0.3920  1.6613  0.6896
  186SAPI   H8Y21399   0.830   5.119   9.549 -5.2335 -0.1495  0.1273
  186SAPI   C3921400   0.849   5.220   9.352 -0.3533 -0.1486  0.1384
  186SAPI   H9X21401   0.789   5.134   9.314  1.7745 -1.9281  0.6074
  186SAPI   H9Y21402   0.956   5.193   9.341 -0.0317  1.0725  0.1921
  186SAPI  C31021403   0.828   5.356   9.281  0.3233  0.1442 -0.1946
  186SAPI  H10X21404   0.900   5.435   9.311 -0.2166  1.0307 -1.1912
  186SAPI  H10Y21405   0.726   5.389   9.311  0.6586  2.1261 -1.0755
  186SAPI  C31121406   0.845   5.360   9.126 -0.5944  0.3431 -0.3130
  186SAPI  H11X21407   0.760   5.308   9.077 -1.1213 -0.0722  1.0001
  186SAPI  H11Y21408   0.934   5.300   9.100 -0.5174  0.0506  0.6005
  186SAPI  C31221409   0.850   5.491   9.057 -0.3588  0.1154 -0.3408
  186SAPI  H12X21410   0.947   5.533   9.092 -0.4340 -0.1147  0.1557
  186SAPI  H12Y21411   0.770   5.555   9.099 -1.2673  0.0007 -1.8139
  186SAPI  C31321412   0.838   5.489   8.904  0.1582  1.1975 -0.2831
  186SAPI  H13X21413   0.848   5.586   8.850 -1.8795  0.9508 -1.1778
  186SAPI  H13Y21414   0.730   5.472   8.889 -0.0731 -0.1582  2.2703
  186SAPI  C31421415   0.910   5.373   8.827 -0.6273  0.2437 -0.4802
  186SAPI  H14X21416   0.871   5.376   8.723 -2.1080  1.4657  0.0716
  186SAPI  H14Y21417   0.898   5.278   8.884  0.6316 -0.1598 -0.8426
  186SAPI  C31521418   1.070   5.392   8.831  0.0695 -0.7875 -0.1855
  186SAPI  H15X21419   1.093   5.436   8.930 -1.5627  3.5565 -1.4649
  186SAPI  H15Y21420   1.105   5.473   8.763 -2.1220 -0.0364 -0.5088
  186SAPI  C31621421   1.147   5.265   8.803 -0.0990 -0.2173  0.7398
  186SAPI  H16X21422   1.149   5.256   8.692  1.0788  0.6005  0.6734
  186SAPI  H16Y21423   1.092   5.188   8.860 -1.5814  0.5139  0.3643
  186SAPI  C31721424   1.293   5.262   8.845  0.2227  0.2061 -0.4784
  186SAPI  H17X21425   1.307   5.289   8.952 -0.3647  0.0574 -0.3606
  186SAPI  H17Y21426   1.343   5.348   8.795 -1.3117  0.6003 -1.3789
  186SAPI  C31821427   1.363   5.129   8.812  0.3774  0.5541 -0.3029
  186SAPI  H18X21428   1.463   5.158   8.850  1.4801 -1.4912 -1.4556
  186SAPI  H18Y21429   1.365   5.100   8.704  0.1373  0.7076 -0.3508
  186SAPI  H18Z21430   1.324   5.050   8.880  3.1814 -0.6755  0.0018
  187SAPI   C1221431   1.545   0.037   6.381  0.2912  0.0975  0.1946
  187SAPI    H221432   1.580   0.083   6.476 -1.2800  0.4327  0.6453
  187SAPI    O221433   1.636   0.093   6.288 -0.5780 -0.6456 -0.0136
  187SAPI   HO221434   1.632   0.188   6.303 -1.9343 -0.6643 -0.1375
  187SAPI   C1321435   1.552  -0.118   6.388  0.9412 -0.1429 -0.1581
  187SAPI    H321436   1.484  -0.157   6.466  1.3094  0.0433  0.2568
  187SAPI    O321437   1.688  -0.169   6.401  0.4271 -0.4052  0.0753
  187SAPI   HO321438   1.687  -0.260   6.429  0.6321 -0.5708 -0.4493
  187SAPI   C1421439   1.503  -0.172   6.254  0.4148 -0.5991 -0.0082
  187SAPI    H421440   1.572  -0.141   6.173 -0.2057 -0.5286 -0.5100
  187SAPI    O421441   1.508  -0.317   6.246 -0.2443 -0.2000  0.0667
  187SAPI   HO421442   1.435  -0.356   6.295  0.2738 -2.5850 -0.9523
  187SAPI   C1521443   1.368  -0.108   6.214  0.7548 -0.3391  0.1366
  187SAPI    H521444   1.291  -0.139   6.287  0.4143 -0.3482 -0.2210
  187SAPI    O521445   1.329  -0.156   6.079  0.0068  0.0116 -0.1811
  187SAPI   HO521446   1.249  -0.207   6.090  0.7897 -0.9122  1.7281
  187SAPI   C1621447   1.361   0.042   6.223  0.0133  0.3024 -0.3383
  187SAPI    H621448   1.433   0.089   6.153  0.5628  1.4185  0.9219
  187SAPI    O621449   1.226   0.087   6.204  0.1224  0.3672  0.4276
  187SAPI   HO621450   1.190   0.105   6.291 -1.2343 -0.9804  0.1784
  187SAPI   C1121451   1.409   0.089   6.356  0.0897  0.8006  0.2351
  187SAPI    H121452   1.352   0.034   6.434  1.1831 -0.3516  0.2580
  187SAPI     P21453   1.283   0.303   6.463  0.2711  0.6033  0.0626
  187SAPI   O1321454   1.161   0.222   6.432 -0.5069  0.2424  0.1225
  187SAPI   O1421455   1.273   0.445   6.435 -0.2238 -0.2178 -0.6156
  187SAPI   O1221456   1.415   0.235   6.382  0.0652  0.0352 -0.0530
  187SAPI   O1121457   1.318   0.282   6.614 -0.1071  0.3037  0.2196
  187SAPI    C121458   1.454   0.271   6.656 -0.2133 -0.9178 -0.4286
  187SAPI    HA21459   1.470   0.161   6.656 -1.3865 -1.1015 -1.0421
  187SAPI    HB21460   1.524   0.325   6.589  0.8553 -1.5740  0.1171
  187SAPI    C221461   1.479   0.334   6.798 -0.1793  0.0565 -0.1497
  187SAPI    HS21462   1.590   0.336   6.806 -0.1425 -0.1538 -0.5867
  187SAPI   O2121463   1.421   0.254   6.901  0.1441 -0.0857  0.4285
  187SAPI   C2121464   1.484   0.141   6.926  0.8499 -0.1499 -0.3961
  187SAPI   O2221465   1.590   0.099   6.890 -0.3137  0.5995  0.1412
  187SAPI   C2221466   1.390   0.051   7.005  0.1169  0.3964 -0.2845
  187SAPI   H2R21467   1.299   0.031   6.945  0.9571 -2.1286 -0.8186
  187SAPI   H2S21468   1.450  -0.042   7.017 -0.3290 -0.1729 -2.1381
  187SAPI    C321469   1.428   0.478   6.808 -0.5909  0.2323 -0.4876
  187SAPI    HX21470   1.317   0.489   6.804 -0.4944  3.6732  1.7554
  187SAPI    HY21471   1.463   0.530   6.716  0.5654 -1.7818 -1.2520
  187SAPI   O3121472   1.466   0.544   6.937  0.1363  0.2978  0.7689
  187SAPI   C3121473   1.599   0.579   6.953  0.0927  0.8395  0.1887
  187SAPI   O3221474   1.680   0.565   6.863 -0.3172  0.3418 -0.2618
  187SAPI   C3221475   1.626   0.618   7.095  0.4167 -1.1120  0.3177
  187SAPI   H2X21476   1.552   0.699   7.114  0.9443 -0.4344 -0.4633
  187SAPI   H2Y21477   1.728   0.661   7.102  0.0207 -0.2972  1.3916
  187SAPI   C2321478   1.347   0.115   7.137 -0.5201 -0.1283  0.0593
  187SAPI   H3R21479   1.264   0.060   7.187 -0.1020 -1.7416 -0.9691
  187SAPI   H3S21480   1.303   0.212   7.105  0.4369 -0.0596 -1.1316
  187SAPI   C2421481   1.461   0.142   7.241  0.7378 -0.0983 -0.1547
  187SAPI   H4R21482   1.532   0.215   7.195  0.0700  1.5243  1.2700
  187SAPI   H4S21483   1.514   0.045   7.251  1.3968  0.2275 -0.4110
  187SAPI   C2521484   1.405   0.185   7.378  0.3572 -0.4981 -0.4997
  187SAPI   H5R21485   1.348   0.278   7.367 -1.0974 -1.1169  1.2443
  187SAPI   C2621486   1.409   0.122   7.495  0.0254  0.5890 -0.0292
  187SAPI   H6R21487   1.356   0.168   7.580 -0.8213 -0.7895  0.2050
  187SAPI   C2721488   1.474  -0.015   7.525  0.8283  0.1450 -0.1328
  187SAPI   H7R21489   1.580   0.001   7.555  0.5131  0.5855  0.7907
  187SAPI   H7S21490   1.486  -0.068   7.428 -0.4316  0.7652 -0.6440
  187SAPI   C2821491   1.398  -0.100   7.621  0.2330 -0.1574  0.2195
  187SAPI   H8R21492   1.319  -0.164   7.577 -0.9940  1.4738 -0.0383
  187SAPI   C2921493   1.430  -0.133   7.742 -0.1406 -0.9429  0.0648
  187SAPI   H9R21494   1.367  -0.206   7.795 -0.8218 -0.4657 -0.0647
  187SAPI  C21021495   1.547  -0.086   7.826 -0.4973 -0.8594 -0.1085
  187SAPI  H10R21496   1.631  -0.066   7.757 -0.7336 -0.1838 -0.2012
  187SAPI  H10S21497   1.584  -0.172   7.886  0.8762  0.4290  0.9690
  187SAPI  C21121498   1.513   0.044   7.894 -0.4579  0.0220  1.0307
  187SAPI  H11R21499   1.519   0.133   7.830 -0.1440  0.0246  1.0608
  187SAPI  C21221500   1.481   0.059   8.022 -0.4290 -0.2136  0.2957
  187SAPI  H12R21501   1.441   0.158   8.047 -0.6189  0.0579 -1.0092
  187SAPI  C21321502   1.483  -0.058   8.112  0.2715  0.5122  0.0168
  187SAPI  H13R21503   1.466  -0.156   8.064  1.4013  0.0128  0.5886
  187SAPI  H13S21504   1.408  -0.036   8.191  0.4529  1.0486  0.0441
  187SAPI  C21421505   1.617  -0.073   8.179  0.2959 -0.3022 -0.7060
  187SAPI  H14R21506   1.688  -0.144   8.133  0.9625  0.0260 -0.1909
  187SAPI  C21521507   1.653  -0.015   8.297 -0.5672  0.0232  0.4921
  187SAPI  H15R21508   1.751  -0.045   8.337 -0.8284  0.1178  1.2125
  187SAPI  C21621509   1.573   0.072   8.386  0.2825  0.0437  0.5321
  187SAPI  H16R21510   1.475   0.089   8.335  0.8542 -4.0535 -2.3570
  187SAPI  H16S21511   1.619   0.170   8.413  2.6036 -1.1975  1.3264
  187SAPI  C21721512   1.550   0.002   8.528 -0.1944 -0.3221 -0.8549
  187SAPI  H17R21513   1.508   0.082   8.593 -1.3257 -0.5662 -1.2627
  187SAPI  H17S21514   1.650  -0.010   8.575 -0.6403 -2.2394 -0.3069
  187SAPI  C21821515   1.477  -0.134   8.529 -0.1021 -0.2076 -0.6508
  187SAPI  H18R21516   1.525  -0.184   8.442  0.6018  0.3112 -0.5635
  187SAPI  H18S21517   1.368  -0.130   8.504 -0.3031 -0.9169  0.0815
  187SAPI  C21921518   1.498  -0.211   8.657  0.0442 -0.2233  0.0938
  187SAPI  H19R21519   1.603  -0.198   8.690  0.1885 -0.0983 -0.4057
  187SAPI  H19S21520   1.480  -0.318   8.636  0.6149 -0.4401  0.6941
  187SAPI  C22021521   1.418  -0.162   8.783 -0.0163 -0.3932 -0.4264
  187SAPI  H20R21522   1.438  -0.229   8.869  1.5378 -0.3017 -0.6889
  187SAPI  H20S21523   1.309  -0.145   8.770 -0.0402  0.7157  0.9098
  187SAPI  H20T21524   1.456  -0.059   8.800  0.8790 -0.8809  0.6515
  187SAPI   C3321525   1.612   0.499   7.198 -0.0425  0.6219  0.6632
  187SAPI   H3X21526   1.672   0.410   7.167 -1.7799 -1.0783  1.9621
  187SAPI   H3Y21527   1.506   0.473   7.218 -0.4475 -0.0731 -2.0183
  187SAPI   C3421528   1.663   0.547   7.330 -0.3050 -1.0748  0.0072
  187SAPI   H4X21529   1.614   0.642   7.356 -0.2041 -0.5882 -1.5029
  187SAPI   H4Y21530   1.771   0.570   7.319 -0.4400  0.0030  0.7788
  187SAPI   C3521531   1.639   0.459   7.446  0.7251  0.0275  0.3545
  187SAPI   H5X21532   1.676   0.357   7.422  0.3597  0.2928 -1.4954
  187SAPI   H5Y21533   1.529   0.462   7.462  0.8607  0.3873  1.3027
  187SAPI   C3621534   1.693   0.507   7.579 -0.6358 -0.1456  0.3505
  187SAPI   H6X21535   1.657   0.612   7.581 -0.7366 -0.1416 -0.8167
  187SAPI   H6Y21536   1.802   0.510   7.560 -0.9882  0.3084 -1.9158
  187SAPI   C3721537   1.655   0.433   7.707 -0.2710  0.4892 -0.5897
  187SAPI   H7X21538   1.688   0.328   7.692 -0.7724  0.3776 -0.9179
  187SAPI   H7Y21539   1.544   0.434   7.716 -0.5224 -2.5426 -2.0126
  187SAPI   C3821540   1.718   0.491   7.841  0.0121  0.3273 -0.1681
  187SAPI   H8X21541   1.683   0.594   7.861  0.1012  0.4420 -0.5980
  187SAPI   H8Y21542   1.828   0.494   7.825  0.2307 -1.4323  0.7406
  187SAPI   C3921543   1.703   0.406   7.969  0.5297  0.2023  0.0548
  187SAPI   H9X21544   1.736   0.300   7.960 -1.3668 -0.5254  0.9954
  187SAPI   H9Y21545   1.595   0.391   7.992  0.7393 -1.3882  0.1096
  187SAPI  C31021546   1.771   0.472   8.085 -0.1359 -0.7185  0.1065
  187SAPI  H10X21547   1.717   0.566   8.113 -0.4483 -0.5552 -0.9980
  187SAPI  H10Y21548   1.873   0.508   8.064 -0.4601  0.6241  0.7277
  187SAPI  C31121549   1.781   0.370   8.207  0.4881 -0.3333  0.5938
  187SAPI  H11X21550   1.832   0.275   8.181  1.3450  0.3552 -0.3473
  187SAPI  H11Y21551   1.677   0.349   8.240  0.5365 -1.0979  0.2749
  187SAPI  C31221552   1.851   0.433   8.326  0.6145 -0.2335 -0.3872
  187SAPI  H12X21553   1.817   0.537   8.345 -0.8594 -0.5952 -0.9662
  187SAPI  H12Y21554   1.960   0.419   8.312  0.4910 -2.3945  0.3866
  187SAPI  C31321555   1.831   0.351   8.460  0.0453  0.4166 -0.2537
  187SAPI  H13X21556   1.856   0.245   8.436 -1.9912 -0.7262  2.2308
  187SAPI  H13Y21557   1.724   0.347   8.488 -0.5956  0.7825 -2.4299
  187SAPI  C31421558   1.919   0.393   8.582  0.0136 -0.3956  0.4146
  187SAPI  H14X21559   1.897   0.498   8.608 -0.9747 -0.8306  1.4232
  187SAPI  H14Y21560   2.022   0.389   8.540 -0.9056  0.3089 -2.1160
  187SAPI  C31521561   1.903   0.303   8.702  0.8432  0.2058 -0.1758
  187SAPI  H15X21562   1.899   0.196   8.673 -1.2757 -0.2392  1.5139
  187SAPI  H15Y21563   1.807   0.331   8.750  1.4634  0.3888  0.9887
  187SAPI  C31621564   2.017   0.327   8.802  0.1977  0.8256 -0.0009
  187SAPI  H16X21565   2.097   0.257   8.770 -0.1445  0.4198  0.0138
  187SAPI  H16Y21566   1.979   0.290   8.900 -0.4273 -1.3027 -0.9704
  187SAPI  C31721567   2.063   0.469   8.825  0.2215  0.2304  0.5023
  187SAPI  H17X21568   1.977   0.514   8.879 -1.0496 -1.6943  0.2043
  187SAPI  H17Y21569   2.066   0.526   8.730 -0.7524  0.4916  0.6183
  187SAPI  C31821570   2.197   0.479   8.901 -0.0063  0.3987  0.7522
  187SAPI  H18X21571   2.182   0.425   8.997 -0.2856 -1.0645 -0.0917
  187SAPI  H18Y21572   2.225   0.586   8.913  3.5387 -0.1568 -1.1112
  187SAPI  H18Z21573   2.285   0.442   8.844 -0.8435  2.1003 -1.8238
  188SAPI   C1221574   4.207   2.573   6.700 -0.4454  0.0527  0.5578
  188SAPI    H221575   4.176   2.583   6.806 -0.2921 -1.5363  0.7783
  188SAPI    O221576   4.346   2.605   6.696  0.0280 -0.2439 -0.0060
  188SAPI   HO221577   4.363   2.686   6.744  2.7259  0.0535 -1.3045
  188SAPI   C1321578   4.177   2.433   6.659  0.5866  0.0843  0.7946
  188SAPI    H321579   4.066   2.422   6.660  0.5006  0.8726  0.7717
  188SAPI    O321580   4.242   2.350   6.752  0.1262 -0.3867 -0.1328
  188SAPI   HO321581   4.333   2.347   6.722  0.4945  1.9325  0.5340
  188SAPI   C1421582   4.208   2.396   6.512  0.5040  0.3480  0.4590
  188SAPI    H421583   4.318   2.410   6.510  1.1253 -2.9701 -3.3900
  188SAPI    O421584   4.180   2.255   6.483  0.4993 -0.4713 -0.3652
  188SAPI   HO421585   4.212   2.213   6.564 -1.0277  1.4307  1.3302
  188SAPI   C1521586   4.141   2.497   6.419  0.2447  0.1434 -0.6447
  188SAPI    H521587   4.033   2.470   6.425  0.7465 -2.0502 -0.4098
  188SAPI    O521588   4.170   2.484   6.280 -0.0712  0.3155 -0.1728
  188SAPI   HO521589   4.262   2.508   6.266  0.4616 -1.2211  0.3810
  188SAPI   C1621590   4.175   2.641   6.464 -0.1984 -0.2155 -0.7099
  188SAPI    H621591   4.286   2.650   6.458  0.1055 -1.7371  1.4537
  188SAPI    O621592   4.112   2.739   6.380 -0.3404 -0.1968  0.1197
  188SAPI   HO621593   4.066   2.806   6.432 -0.6968 -0.1432 -0.2585
  188SAPI   C1121594   4.129   2.668   6.608 -1.2358  0.0397  0.0924
  188SAPI    H121595   4.024   2.636   6.623 -0.4744 -2.7747  0.0350
  188SAPI     P21596   4.027   2.916   6.649 -0.3047 -0.0626  0.5505
  188SAPI   O1321597   3.999   2.935   6.509 -0.2822  0.0959  0.1688
  188SAPI   O1421598   4.074   3.036   6.719 -0.3054 -0.0183  0.3893
  188SAPI   O1221599   4.145   2.800   6.660 -0.4698  0.1600  0.7637
  188SAPI   O1121600   3.905   2.854   6.722  0.2176 -0.0395 -0.5003
  188SAPI    C121601   3.921   2.783   6.845  0.8204  0.0936 -0.1159
  188SAPI    HA21602   3.830   2.718   6.850  0.7649  0.2125  0.4090
  188SAPI    HB21603   4.010   2.717   6.856  0.0902 -0.5584  2.6241
  188SAPI    C221604   3.903   2.882   6.965 -0.3578  0.1756  0.4776
  188SAPI    HS21605   3.990   2.950   6.964  1.2795 -1.8229 -0.4709
  188SAPI   O2121606   3.886   2.809   7.084  0.0087  0.4754  0.3114
  188SAPI   C2121607   3.993   2.767   7.145 -0.3336  0.2374  0.2744
  188SAPI   O2221608   4.110   2.787   7.107  0.6956  0.2494 -0.4197
  188SAPI   C2221609   3.951   2.683   7.263 -0.3719  0.2889  1.0751
  188SAPI   H2R21610   3.870   2.624   7.214  1.2630  1.7748 -3.9679
  188SAPI   H2S21611   4.032   2.615   7.295  0.7841  0.8734 -0.5028
  188SAPI    C321612   3.783   2.980   6.926  0.7115 -0.4983 -0.3818
  188SAPI    HX21613   3.703   2.905   6.904 -0.2520  0.1014  0.9484
  188SAPI    HY21614   3.803   3.040   6.834  1.8482  1.0898  0.8619
  188SAPI   O3121615   3.735   3.058   7.038  0.4562  0.4806 -0.4266
  188SAPI   C3121616   3.805   3.164   7.057  0.0430  0.1277 -0.3113
  188SAPI   O3221617   3.898   3.207   6.989  0.1486  0.1266 -1.0033
  188SAPI   C3221618   3.743   3.243   7.167  1.1975  0.3179 -0.4393
  188SAPI   H2X21619   3.649   3.203   7.210  1.2275  0.4754 -0.2251
  188SAPI   H2Y21620   3.719   3.347   7.136 -0.2841  0.3460  0.7168
  188SAPI   C2321621   3.906   2.758   7.391 -0.7720  0.5514 -0.0710
  188SAPI   H3R21622   3.903   2.684   7.473  3.5883 -0.5961 -0.7368
  188SAPI   H3S21623   3.805   2.803   7.376 -1.4163 -1.2168 -1.3949
  188SAPI   C2421624   4.003   2.875   7.439  0.3129  1.2232  0.3796
  188SAPI   H4R21625   3.963   2.907   7.537 -1.9485  2.0421 -0.7550
  188SAPI   H4S21626   4.013   2.960   7.367 -0.9505  2.3097  1.4559
  188SAPI   C2521627   4.145   2.822   7.447 -0.6368  0.1351 -0.1360
  188SAPI   H5R21628   4.213   2.856   7.368  2.7074 -0.3885  2.2871
  188SAPI   C2621629   4.201   2.757   7.550  0.8400 -0.3357 -0.5765
  188SAPI   H6R21630   4.311   2.749   7.556  0.8383  0.5866  3.0268
  188SAPI   C2721631   4.126   2.714   7.679  0.1765  0.0044  0.3445
  188SAPI   H7R21632   4.016   2.724   7.673  0.0065 -2.2762 -1.3924
  188SAPI   H7S21633   4.168   2.769   7.766  2.6886 -2.3689  0.7859
  188SAPI   C2821634   4.149   2.566   7.693  0.8739  0.2661 -0.7126
  188SAPI   H8R21635   4.116   2.523   7.597 -1.5978  2.2783 -0.8976
  188SAPI   C2921636   4.202   2.498   7.795  0.9509  0.8773  0.0645
  188SAPI   H9R21637   4.217   2.389   7.789 -1.6654  0.4279  0.6347
  188SAPI  C21021638   4.248   2.557   7.923  0.1147 -0.1753  0.1154
  188SAPI  H10R21639   4.285   2.469   7.979 -0.4481 -2.1052 -2.3683
  188SAPI  H10S21640   4.158   2.597   7.974  0.5211 -1.2026  1.6986
  188SAPI  C21121641   4.355   2.663   7.922  0.4037 -0.1981 -0.0460
  188SAPI  H11R21642   4.396   2.684   7.822 -0.4605 -1.8170 -0.7779
  188SAPI  C21221643   4.387   2.740   8.028  0.3194 -0.2639  0.3056
  188SAPI  H12R21644   4.469   2.813   8.022  0.7503 -0.3285  3.5194
  188SAPI  C21321645   4.326   2.721   8.168 -0.1951 -0.7000  0.0871
  188SAPI  H13R21646   4.401   2.691   8.244 -0.2434  0.7812  0.7507
  188SAPI  H13S21647   4.252   2.638   8.165 -1.6681  0.5967 -1.9010
  188SAPI  C21421648   4.266   2.854   8.214  0.2704  0.4982  0.0045
  188SAPI  H14R21649   4.157   2.845   8.215  0.3294 -0.9905 -1.6447
  188SAPI  C21521650   4.331   2.975   8.230  0.1424  0.4661 -0.3870
  188SAPI  H15R21651   4.275   3.058   8.275  1.1734  0.7076  0.4739
  188SAPI  C21621652   4.480   2.996   8.231  0.1160 -0.6306 -0.0696
  188SAPI  H16R21653   4.501   3.063   8.145  0.2617 -1.5815 -0.7898
  188SAPI  H16S21654   4.534   2.901   8.215 -1.0079 -1.5117  1.1792
  188SAPI  C21721655   4.519   3.059   8.361 -0.5600 -0.1133 -1.3607
  188SAPI  H17R21656   4.514   2.987   8.446 -0.9951  2.2168  0.6901
  188SAPI  H17S21657   4.445   3.135   8.394 -1.1225 -0.8377 -0.9115
  188SAPI  C21821658   4.661   3.118   8.354 -0.5532 -1.2459  0.1552
  188SAPI  H18R21659   4.656   3.178   8.260 -1.3304 -0.3097  0.7769
  188SAPI  H18S21660   4.740   3.044   8.326  0.4203 -0.3354  0.4288
  188SAPI  C21921661   4.711   3.193   8.484  0.2872  0.4873  1.3928
  188SAPI  H19R21662   4.718   3.112   8.559 -1.0305 -0.3986  0.5963
  188SAPI  H19S21663   4.652   3.276   8.528  0.7780  0.1386  2.7384
  188SAPI  C22021664   4.852   3.252   8.462 -0.7347 -0.1387  0.2798
  188SAPI  H20R21665   4.899   3.295   8.552 -0.5719 -0.1957  0.2235
  188SAPI  H20S21666   4.856   3.326   8.379 -0.8968  0.4498  0.7858
  188SAPI  H20T21667   4.931   3.179   8.436  2.2096  2.8335  0.3047
  188SAPI   C3321668   3.840   3.247   7.288  0.1063 -0.1832  0.1761
  188SAPI   H3X21669   3.925   3.311   7.255 -0.5528 -0.4949 -2.3127
  188SAPI   H3Y21670   3.882   3.151   7.324  0.0647 -0.6792 -1.0332
  188SAPI   C3421671   3.773   3.316   7.402 -0.7278  0.1870  0.2482
  188SAPI   H4X21672   3.695   3.248   7.444 -0.1999  0.4076  1.6260
  188SAPI   H4Y21673   3.728   3.409   7.362  2.4191  1.8422  0.2362
  188SAPI   C3521674   3.863   3.365   7.525  0.4197 -0.0231 -0.3609
  188SAPI   H5X21675   3.799   3.424   7.593  0.5197 -0.6372  0.2766
  188SAPI   H5Y21676   3.942   3.433   7.487  0.2095  0.0218 -0.7274
  188SAPI   C3621677   3.928   3.257   7.616  0.5619  0.2561  0.7106
  188SAPI   H6X21678   3.990   3.307   7.693 -0.5438  2.1316  0.4341
  188SAPI   H6Y21679   3.991   3.192   7.552  3.1267  3.2416 -0.0642
  188SAPI   C3721680   3.820   3.165   7.671  0.1579 -0.5517  0.2103
  188SAPI   H7X21681   3.774   3.101   7.593  0.6698 -0.7030  0.0324
  188SAPI   H7Y21682   3.739   3.231   7.712 -1.2697 -2.5747  0.7972
  188SAPI   C3821683   3.871   3.075   7.782  0.9068 -0.2142 -0.9683
  188SAPI   H8X21684   3.954   3.005   7.761  2.2477  1.0498 -0.1096
  188SAPI   H8Y21685   3.785   3.019   7.825  1.4972 -0.5619 -0.2230
  188SAPI   C3921686   3.904   3.160   7.903  0.0188 -0.2098  0.0760
  188SAPI   H9X21687   3.820   3.224   7.937 -0.0698  0.3562 -1.1416
  188SAPI   H9Y21688   3.982   3.234   7.874  0.4928 -0.8852 -0.4201
  188SAPI  C31021689   3.954   3.075   8.024 -0.0251 -0.6745 -0.3255
  188SAPI  H10X21690   4.030   3.004   7.986 -0.8280 -0.5782 -2.2208
  188SAPI  H10Y21691   3.868   3.010   8.051  0.9451 -2.3808 -1.2047
  188SAPI  C31121692   3.996   3.169   8.138  0.4580  0.1977 -0.2164
  188SAPI  H11X21693   3.939   3.264   8.133  0.4003  0.0928 -2.8593
  188SAPI  H11Y21694   4.102   3.198   8.126  1.4023 -3.1160 -0.9618
  188SAPI  C31221695   3.969   3.119   8.276 -0.4215  0.3780 -0.1024
  188SAPI  H12X21696   4.029   3.033   8.312 -1.0232  0.4530  1.1271
  188SAPI  H12Y21697   3.860   3.102   8.280 -0.7328  2.0266 -0.8155
  188SAPI  C31321698   3.978   3.231   8.383 -0.2913  0.6654  0.3159
  188SAPI  H13X21699   3.955   3.186   8.482  2.7709  0.5569  1.0927
  188SAPI  H13Y21700   3.896   3.300   8.355  2.1006  3.6732  0.2922
  188SAPI  C31421701   4.117   3.302   8.394  0.3155 -0.1943  0.2591
  188SAPI  H14X21702   4.101   3.412   8.399 -1.1392 -0.3696 -0.0296
  188SAPI  H14Y21703   4.171   3.283   8.299  0.0778 -0.2167  0.1276
  188SAPI  C31521704   4.196   3.247   8.508 -0.2064 -0.1631  0.2979
  188SAPI  H15X21705   4.307   3.257   8.508 -0.3614  2.5466  0.7340
  188SAPI  H15Y21706   4.168   3.140   8.496  0.8874 -0.3592 -0.6177
  188SAPI  C31621707   4.153   3.309   8.640  0.3909 -0.0817 -0.9386
  188SAPI  H16X21708   4.198   3.249   8.722 -0.1173  1.3208  0.4215
  188SAPI  H16Y21709   4.044   3.297   8.656  0.5486 -0.1986  0.0853
  188SAPI  C31721710   4.180   3.455   8.664  0.3200  0.0348  0.4690
  188SAPI  H17X21711   4.092   3.517   8.636  1.0208  0.9243  0.2050
  188SAPI  H17Y21712   4.266   3.477   8.598 -0.2776 -2.1834 -1.1554
  188SAPI  C31821713   4.215   3.469   8.810 -0.3734 -0.9187 -0.4045
  188SAPI  H18X21714   4.140   3.421   8.875 -1.3433 -0.7983 -1.4067
  188SAPI  H18Y21715   4.219   3.577   8.838 -2.0186  0.1204 -3.6448
  188SAPI  H18Z21716   4.316   3.432   8.840 -0.9378 -1.4373  0.9298
  189POPC     N21717   5.555   4.185  11.355 -0.0794  0.0611 -0.6948
  189POPC   C1221718   5.512   4.257  11.237  0.0685 -0.1067  0.1616
  189POPC  H12A21719   5.434   4.202  11.187  0.9308  0.0729 -1.4289
  189POPC  H12B21720   5.599   4.264  11.173 -1.9833  1.6839 -2.6315
  189POPC   C1321721   5.685   4.245  11.399  0.3182  0.3401  0.4587
  189POPC  H13A21722   5.762   4.229  11.326  0.2989 -0.5144  0.6192
  189POPC  H13B21723   5.687   4.351  11.423  1.0674  0.4616 -0.1096
  189POPC  H13C21724   5.708   4.204  11.497 -0.8247 -0.4376  0.4225
  189POPC   C1421725   5.452   4.186  11.469 -0.5973 -0.0570 -0.1877
  189POPC  H14A21726   5.449   4.287  11.507 -0.2034 -0.0740 -0.1140
  189POPC  H14B21727   5.352   4.157  11.440 -0.5635  1.1767 -1.6130
  189POPC  H14C21728   5.487   4.121  11.548  0.7576 -0.4866 -1.1180
  189POPC   C1521729   5.565   4.045  11.316 -0.0648 -0.1860 -0.0401
  189POPC  H15A21730   5.654   4.035  11.255 -0.6173 -0.1415 -0.8691
  189POPC  H15B21731   5.480   4.002  11.264  0.0497 -1.2874  0.6581
  189POPC  H15C21732   5.573   3.984  11.405  0.9603  0.3848  0.2696
  189POPC   C1121733   5.449   4.394  11.263 -0.4782 -0.4026 -0.2695
  189POPC  H11A21734   5.525   4.464  11.303 -0.6962 -1.7525  2.7134
  189POPC  H11B21735   5.365   4.387  11.335 -0.8867 -1.7969 -0.8500
  189POPC     P21736   5.244   4.474  11.102  0.0019  0.3201  0.1690
  189POPC   O1321737   5.239   4.581  11.005  0.0082 -0.0477  0.1315
  189POPC   O1421738   5.162   4.487  11.224 -0.4017 -0.1709 -0.2431
  189POPC   O1221739   5.397   4.458  11.140  0.0338  0.4516 -0.4627
  189POPC   O1121740   5.202   4.333  11.028 -0.2824  0.2424  0.4105
  189POPC    C121741   5.300   4.267  10.949 -0.1360  0.0529  0.4387
  189POPC    HA21742   5.279   4.158  10.937  0.4671 -0.0169  0.0083
  189POPC    HB21743   5.403   4.274  10.990  0.7055 -3.6144 -0.6958
  189POPC    C221744   5.292   4.307  10.799 -0.2583 -1.1181  0.2219
  189POPC    HS21745   5.311   4.416  10.789 -1.6205 -0.7721  1.1093
  189POPC   O2121746   5.157   4.268  10.766  0.0548 -0.6205  0.2363
  189POPC   C2121747   5.090   4.364  10.704 -0.1084  0.0086  0.0114
  189POPC   O2221748   5.132   4.467  10.661 -0.1530 -0.9808  0.0335
  189POPC   C2221749   4.947   4.304  10.700  0.5343 -0.1101 -1.1271
  189POPC   H2R21750   4.912   4.311  10.805  0.2015 -0.7777 -1.1919
  189POPC   H2S21751   4.953   4.200  10.662 -1.7402 -0.6083 -0.2700
  189POPC    C321752   5.393   4.231  10.708 -0.6306  0.6912  0.1451
  189POPC    HX21753   5.383   4.125  10.737 -0.8762  0.3311 -1.1950
  189POPC    HY21754   5.495   4.263  10.739 -0.0390 -2.3681  1.7534
  189POPC   O3121755   5.371   4.245  10.565 -0.7463 -0.3985  0.1414
  189POPC   C3121756   5.395   4.364  10.515  0.4849  0.0764 -0.1527
  189POPC   O3221757   5.441   4.459  10.577 -0.3321 -0.1400  0.5919
  189POPC   C3221758   5.371   4.354  10.366  0.1132  0.5845  0.5639
  189POPC   H2X21759   5.266   4.383  10.343  0.0492  1.0578  1.4376
  189POPC   H2Y21760   5.386   4.248  10.336 -1.2598  0.3507  0.6260
  189POPC   C2321761   4.840   4.379  10.615 -0.7829  0.4769  0.0227
  189POPC   H3R21762   4.888   4.389  10.515 -1.1373  0.6620 -0.1333
  189POPC   H3S21763   4.809   4.480  10.650  0.0162  0.8804 -0.3818
  189POPC   C2421764   4.713   4.289  10.601 -0.8088  0.2182 -0.4100
  189POPC   H4R21765   4.621   4.352  10.600 -1.9191 -1.0230  3.7428
  189POPC   H4S21766   4.719   4.223  10.690  3.3401  2.5339  1.2978
  189POPC   C2521767   4.707   4.206  10.476 -0.1931 -0.0711  0.3701
  189POPC   H5R21768   4.640   4.122  10.502  0.2459 -0.5515 -0.0339
  189POPC   H5S21769   4.800   4.147  10.461 -0.0719 -0.3582  2.0466
  189POPC   C2621770   4.664   4.266  10.348  0.3330 -0.2479  0.1609
  189POPC   H6R21771   4.667   4.187  10.270  0.4269 -0.1097  0.0215
  189POPC   H6S21772   4.726   4.341  10.294  1.0050 -1.2769 -0.5266
  189POPC   C2721773   4.521   4.345  10.338 -0.2134 -0.2126  0.5443
  189POPC   H7R21774   4.512   4.426  10.263 -2.6234  0.3718  1.3643
  189POPC   H7S21775   4.520   4.409  10.429  0.2775  0.2270  0.2432
  189POPC   C2821776   4.409   4.244  10.338 -0.0846  0.6941  0.2898
  189POPC   H8R21777   4.454   4.162  10.398  0.1272  1.4706  1.2164
  189POPC   H8S21778   4.395   4.209  10.234  1.6428  0.6647  0.0295
  189POPC   C2921779   4.286   4.290  10.417  0.5458  0.4076 -0.1313
  189POPC   H9121780   4.289   4.311  10.525 -2.0881  1.8462 -0.2572
  189POPC  C21021781   4.166   4.308  10.357 -0.2118  0.1576 -0.0790
  189POPC  H10121782   4.088   4.371  10.401 -0.9016  1.0846 -2.4437
  189POPC  C21121783   4.130   4.269  10.219  0.4235  0.6453  0.7061
  189POPC  H11R21784   4.201   4.308  10.143  0.0599 -1.1545 -0.6305
  189POPC  H11S21785   4.030   4.309  10.192  0.3529  0.3632  0.5463
  189POPC  C21221786   4.116   4.123  10.181 -0.6997 -0.2391 -0.0978
  189POPC  H12R21787   4.036   4.068  10.236  1.4609 -2.2044  1.2612
  189POPC  H12S21788   4.205   4.065  10.214 -1.2373 -1.4374 -0.6771
  189POPC  C21321789   4.095   4.105  10.031 -0.4920 -0.2161  0.3038
  189POPC  H13R21790   4.096   3.996  10.010 -0.8575  0.1181 -1.7086
  189POPC  H13S21791   4.187   4.145   9.983  1.8200 -3.4675  1.6206
  189POPC  C21421792   3.975   4.188   9.972  0.1827 -0.3391 -0.1296
  189POPC  H14R21793   4.005   4.295   9.975 -1.6292  0.2825 -1.7173
  189POPC  H14S21794   3.890   4.155  10.035 -0.4641  0.8236 -0.3596
  189POPC  C21521795   3.945   4.146   9.826 -0.0881  0.0693  0.4146
  189POPC  H15R21796   3.853   4.200   9.794  0.4992  0.7999 -0.0576
  189POPC  H15S21797   3.924   4.037   9.814  3.5578 -0.6620 -0.4276
  189POPC  C21621798   4.048   4.190   9.723 -0.4722  0.1990  0.7303
  189POPC  H16R21799   4.139   4.127   9.732  0.0394  1.0197  1.3324
  189POPC  H16S21800   4.075   4.296   9.739 -0.5138  0.6012 -1.4740
  189POPC  C21721801   3.994   4.157   9.582  0.2373  0.0819 -0.2508
  189POPC  H17R21802   3.898   4.211   9.569  0.8901  1.1031 -0.9263
  189POPC  H17S21803   3.971   4.048   9.587 -0.5855  0.2990  0.9139
  189POPC  C21821804   4.096   4.191   9.465  0.3781  0.0966 -0.0790
  189POPC  H18R21805   4.073   4.137   9.370 -1.2997  1.1574 -0.3228
  189POPC  H18S21806   4.204   4.184   9.489  0.0420  0.1604  1.5459
  189POPC  H18T21807   4.076   4.298   9.443 -0.7932 -0.1080 -0.0735
  189POPC   C3321808   5.455   4.456  10.277  0.2586 -0.1881 -0.2099
  189POPC   H3X21809   5.556   4.410  10.266  0.9770  1.5454 -1.3812
  189POPC   H3Y21810   5.460   4.554  10.329 -0.1583  0.3571 -1.1674
  189POPC   C3421811   5.380   4.484  10.145  0.4361  0.0053 -0.4654
  189POPC   H4X21812   5.434   4.578  10.118 -1.0634  1.3763  1.1103
  189POPC   H4Y21813   5.276   4.519  10.163  1.1124  1.3587  1.0665
  189POPC   C3521814   5.397   4.367  10.039  0.4582  0.1949  0.3992
  189POPC   H5X21815   5.359   4.280  10.097  0.6099  0.1496  0.4322
  189POPC   H5Y21816   5.503   4.345  10.013 -0.0661 -0.5172 -1.2788
  189POPC   C3621817   5.319   4.385   9.908 -0.0894  0.5402 -0.2402
  189POPC   H6X21818   5.386   4.451   9.849  0.3438  0.5156  0.2104
  189POPC   H6Y21819   5.218   4.430   9.916 -0.4997 -0.6358  1.7979
  189POPC   C3721820   5.317   4.257   9.830  0.2971  0.4286  0.1900
  189POPC   H7X21821   5.250   4.181   9.877  0.1840  0.0608 -0.5626
  189POPC   H7Y21822   5.417   4.214   9.809 -0.2192  0.2990 -2.3302
  189POPC   C3821823   5.257   4.285   9.685 -0.2956 -0.6516  1.2109
  189POPC   H8X21824   5.322   4.362   9.637 -0.8430 -1.6809 -1.3773
  189POPC   H8Y21825   5.156   4.330   9.694 -0.4768 -0.5589 -0.7154
  189POPC   C3921826   5.259   4.161   9.594 -0.0273 -0.3676  0.1963
  189POPC   H9X21827   5.189   4.087   9.638  0.1472  0.0194  1.1511
  189POPC   H9Y21828   5.362   4.119   9.592  0.1888  0.0674 -2.8588
  189POPC  C31021829   5.227   4.208   9.449  0.1633  0.1663  0.2170
  189POPC  H10X21830   5.300   4.277   9.401 -0.1042  0.5242  0.3207
  189POPC  H10Y21831   5.129   4.261   9.447  0.6406  1.0500 -0.8913
  189POPC  C31121832   5.230   4.093   9.356 -0.1671  0.2475 -0.8123
  189POPC  H11X21833   5.162   4.019   9.402  1.5873  0.7935  3.0084
  189POPC  H11Y21834   5.331   4.049   9.370 -0.2867  0.4550  0.7877
  189POPC  C31221835   5.200   4.120   9.213  0.3780 -0.7311  0.6301
  189POPC  H12X21836   5.127   4.204   9.218  1.7536  0.7081 -1.6075
  189POPC  H12Y21837   5.152   4.030   9.168  1.7789 -0.9115 -0.5539
  189POPC  C31321838   5.317   4.172   9.138 -0.1413 -0.3202 -0.0228
  189POPC  H13X21839   5.406   4.110   9.165  0.0878  0.0743  0.1418
  189POPC  H13Y21840   5.339   4.277   9.167  0.9436 -0.6188  0.2755
  189POPC  C31421841   5.294   4.162   8.989  0.1597 -0.0279 -0.2437
  189POPC  H14X21842   5.369   4.224   8.935 -0.2684 -0.3178 -1.1931
  189POPC  H14Y21843   5.194   4.205   8.968 -0.5742 -0.7752  1.5247
  189POPC  C31521844   5.285   4.022   8.932 -0.4257 -0.6625 -0.0436
  189POPC  H15X21845   5.188   3.971   8.951 -0.8946  0.2751  0.1177
  189POPC  H15Y21846   5.364   3.967   8.987 -1.9136 -2.9438 -0.0474
  189POPC  C31621847   5.312   4.027   8.783 -1.0475  0.2175 -0.1814
  189POPC  H16X21848   5.220   4.041   8.721  0.7676  0.8424 -2.9382
  189POPC  H16Y21849   5.345   3.925   8.754  0.1513  0.4323  0.3676
  189POPC  H16Z21850   5.388   4.103   8.755  0.9632 -0.8991  1.9792
  190POPC     N21851   0.277   5.749  11.585  0.5314  0.1507 -0.3817
  190POPC   C1221852   0.312   5.761  11.432  0.7980  0.9606 -0.3889
  190POPC  H12A21853   0.386   5.687  11.405  0.4879  1.0778 -1.6176
  190POPC  H12B21854   0.351   5.861  11.425  1.2103  1.3517  4.2131
  190POPC   C1321855   0.203   5.617  11.611 -0.1401 -0.3481  0.1830
  190POPC  H13A21856   0.168   5.606  11.712 -1.7910 -1.8915 -0.5063
  190POPC  H13B21857   0.114   5.616  11.550  0.4215 -2.6494 -0.6913
  190POPC  H13C21858   0.260   5.532  11.576  1.8906 -0.3165  3.0748
  190POPC   C1421859   0.400   5.760  11.664  0.0085 -0.0029  0.0691
  190POPC  H14A21860   0.383   5.771  11.770 -0.8424 -0.5919  0.0004
  190POPC  H14B21861   0.469   5.678  11.651  1.7493  1.3989  0.0457
  190POPC  H14C21862   0.453   5.851  11.640 -1.2716  0.7777  0.1193
  190POPC   C1521863   0.181   5.854  11.630  0.0506 -0.3007  0.0310
  190POPC  H15A21864   0.106   5.869  11.553  0.5495 -0.9125 -0.5812
  190POPC  H15B21865   0.233   5.948  11.644 -1.1381  0.1920  1.3737
  190POPC  H15C21866   0.129   5.837  11.723 -2.2992  1.9560 -0.7386
  190POPC   C1121867   0.202   5.752  11.332  0.3044  0.1906  0.3137
  190POPC  H11A21868   0.137   5.662  11.338 -2.1208  1.8137  0.0333
  190POPC  H11B21869   0.254   5.752  11.234  0.2500 -1.0190  0.2746
  190POPC     P21870  -0.005   5.874  11.231  0.1610 -0.0803  0.2905
  190POPC   O1321871  -0.082   5.998  11.261 -0.1155  0.6385 -0.2415
  190POPC   O1421872  -0.086   5.754  11.230 -0.2726 -0.0169 -0.2802
  190POPC   O1221873   0.112   5.865  11.337  0.4240  0.3820 -0.7068
  190POPC   O1121874   0.064   5.889  11.090  0.1457  0.7043 -0.4927
  190POPC    C121875   0.156   5.991  11.065 -0.6300  0.0578  0.7685
  190POPC    HA21876   0.218   6.020  11.153 -1.1342  2.3904  0.4034
  190POPC    HB21877   0.095   6.082  11.053 -1.4097 -0.7206 -1.7727
  190POPC    C221878   0.241   5.967  10.942 -0.3652  0.0077  0.3377
  190POPC    HS21879   0.347   5.992  10.963 -0.1650 -2.6990  3.2145
  190POPC   O2121880   0.187   6.053  10.834  0.2371  0.2728 -0.6877
  190POPC   C2121881   0.258   6.143  10.782 -1.0543 -0.4790  0.4862
  190POPC   O2221882   0.379   6.147  10.784 -0.0979  0.3194 -0.1663
  190POPC   C2221883   0.171   6.247  10.717  0.1946  0.6722 -0.4183
  190POPC   H2R21884   0.234   6.337  10.700  1.3068 -0.1624 -0.8231
  190POPC   H2S21885   0.089   6.270  10.789  0.1888 -0.5590  0.0050
  190POPC    C321886   0.242   5.819  10.884  0.4311 -0.9685  0.4058
  190POPC    HX21887   0.139   5.780  10.868  0.5341 -0.8224 -0.6930
  190POPC    HY21888   0.271   5.757  10.971 -0.9897  0.1121  1.7228
  190POPC   O3121889   0.335   5.794  10.775 -0.1630 -0.4859  0.4262
  190POPC   C3121890   0.278   5.786  10.659  0.9177  0.4486  0.3923
  190POPC   O3221891   0.162   5.789  10.625  0.1891  0.3455  0.7632
  190POPC   C3221892   0.399   5.766  10.557  0.5154  0.8427 -0.4330
  190POPC   H2X21893   0.431   5.660  10.568 -1.0541  0.4316  0.4413
  190POPC   H2Y21894   0.487   5.826  10.588  1.6570 -1.5200  1.2366
  190POPC   C2321895   0.103   6.194  10.589  0.1311  0.1082 -0.1291
  190POPC   H3R21896   0.022   6.266  10.563  1.2810  1.4402 -0.1626
  190POPC   H3S21897   0.065   6.092  10.609  1.4620 -0.4707 -0.4580
  190POPC   C2421898   0.198   6.187  10.468 -0.0662  0.4479 -0.1769
  190POPC   H4R21899   0.124   6.173  10.387 -2.3792  0.9867  1.7288
  190POPC   H4S21900   0.272   6.104  10.465 -0.5263 -0.1254  2.2022
  190POPC   C2521901   0.276   6.318  10.445  0.0855 -0.0700 -0.0702
  190POPC   H5R21902   0.349   6.304  10.528 -1.1304  0.5650  1.1530
  190POPC   H5S21903   0.228   6.417  10.461  0.7282  0.3107 -0.4570
  190POPC   C2621904   0.331   6.305  10.310  0.7074  0.1166  0.3546
  190POPC   H6R21905   0.367   6.407  10.286 -0.6876  0.5496  0.0054
  190POPC   H6S21906   0.247   6.290  10.239 -0.5335 -2.5985  2.2494
  190POPC   C2721907   0.434   6.198  10.285 -0.7016  0.4059 -0.0207
  190POPC   H7R21908   0.406   6.091  10.297  0.5573  0.1386  0.6903
  190POPC   H7S21909   0.519   6.207  10.357  0.4383 -1.5618 -1.0297
  190POPC   C2821910   0.490   6.204  10.142 -0.3887 -0.1119 -0.4306
  190POPC   H8R21911   0.405   6.203  10.070 -0.8684 -0.3638  0.1268
  190POPC   H8S21912   0.543   6.111  10.114  0.4396 -0.0348  0.8244
  190POPC   C2921913   0.581   6.319  10.125 -0.3328 -0.4845 -0.1809
  190POPC   H9121914   0.656   6.327  10.205  0.1508 -0.2657 -0.6484
  190POPC  C21021915   0.567   6.430  10.048  0.3851 -0.0551 -0.3168
  190POPC  H10121916   0.640   6.512  10.061  1.2230 -0.3426 -2.6320
  190POPC  C21121917   0.452   6.450   9.953  0.0013  0.0870  0.1162
  190POPC  H11R21918   0.436   6.558   9.932 -3.5988 -0.1040  1.1130
  190POPC  H11S21919   0.352   6.416   9.988  0.2222  0.3732  1.0621
  190POPC  C21221920   0.489   6.375   9.823  0.6351  0.3179 -0.6123
  190POPC  H12R21921   0.487   6.265   9.840 -1.1720  0.3959 -0.0439
  190POPC  H12S21922   0.591   6.406   9.792  0.9519  1.3363  1.2581
  190POPC  C21321923   0.407   6.427   9.708  0.0050 -0.5818 -0.4394
  190POPC  H13R21924   0.422   6.537   9.700  1.7938 -0.5267  2.3583
  190POPC  H13S21925   0.301   6.410   9.734  0.3740  0.5951  2.1168
  190POPC  C21421926   0.462   6.361   9.580  0.2958 -0.2767  0.9431
  190POPC  H14R21927   0.465   6.251   9.598 -0.3430 -0.0481  2.6712
  190POPC  H14S21928   0.564   6.383   9.541 -0.1248 -1.8277 -1.1898
  190POPC  C21521929   0.363   6.385   9.467  0.4596  0.2618 -0.6054
  190POPC  H15R21930   0.340   6.493   9.458 -0.7389  0.0434 -0.3955
  190POPC  H15S21931   0.264   6.347   9.502  1.8015 -3.0070 -0.0299
  190POPC  C21621932   0.409   6.319   9.334 -0.6632  0.6682  0.1923
  190POPC  H16R21933   0.415   6.208   9.338 -0.1159  0.7250  2.6572
  190POPC  H16S21934   0.512   6.357   9.314 -0.2523 -0.9103 -0.9150
  190POPC  C21721935   0.322   6.369   9.217  0.0400  0.6026  0.4255
  190POPC  H17R21936   0.335   6.479   9.212 -0.1221  0.5941 -0.4176
  190POPC  H17S21937   0.215   6.349   9.236 -0.6514  2.1424 -1.5174
  190POPC  C21821938   0.364   6.314   9.079 -0.1505 -0.2727  0.6089
  190POPC  H18R21939   0.354   6.204   9.065  1.2892 -0.3857  0.3410
  190POPC  H18S21940   0.471   6.327   9.051 -0.4365  0.1139 -0.3410
  190POPC  H18T21941   0.301   6.367   9.004 -0.0897 -2.1566 -0.8796
  190POPC   C3321942   0.364   5.792  10.414  0.6311  0.8267 -0.3705
  190POPC   H3X21943   0.311   5.890  10.411  1.1241  1.0720 -2.1952
  190POPC   H3Y21944   0.292   5.713  10.385  1.8232 -0.5808  0.3663
  190POPC   C3421945   0.483   5.796  10.315 -0.2390 -0.4411 -0.0398
  190POPC   H4X21946   0.535   5.698  10.319 -0.8093 -1.0394 -3.9696
  190POPC   H4Y21947   0.562   5.873  10.330 -0.6791  0.4798 -2.0922
  190POPC   C3521948   0.434   5.807  10.172  0.3211 -0.4495  0.3609
  190POPC   H5X21949   0.358   5.887  10.158  0.6181  0.0429  1.3869
  190POPC   H5Y21950   0.378   5.712  10.159  2.0736 -1.7846  1.8698
  190POPC   C3621951   0.554   5.839  10.077 -0.5541  0.4285  0.4498
  190POPC   H6X21952   0.619   5.751  10.098  0.9615  1.4715  0.2837
  190POPC   H6Y21953   0.615   5.923  10.117  1.2269 -0.4361 -0.3353
  190POPC   C3721954   0.509   5.866   9.935  0.3179 -0.2902  0.6117
  190POPC   H7X21955   0.501   5.975   9.920 -0.7823 -0.3036  1.0517
  190POPC   H7Y21956   0.411   5.818   9.916  0.0155 -0.9226  3.3625
  190POPC   C3821957   0.622   5.833   9.830 -0.1887  0.2593 -0.1477
  190POPC   H8X21958   0.634   5.722   9.826  0.7952  0.3704 -0.5940
  190POPC   H8Y21959   0.719   5.880   9.854 -0.6009  1.3397 -0.5236
  190POPC   C3921960   0.580   5.885   9.688  0.3213  0.7098  0.1683
  190POPC   H9X21961   0.558   5.993   9.703  0.5848  0.8007 -0.0871
  190POPC   H9Y21962   0.485   5.834   9.661 -0.0166  0.6593  1.4094
  190POPC  C31021963   0.675   5.859   9.573 -0.0950  0.6009  0.2202
  190POPC  H10X21964   0.676   5.750   9.554 -2.5548  0.4514  0.6328
  190POPC  H10Y21965   0.780   5.893   9.588  0.8409 -2.2592  0.7563
  190POPC  C31121966   0.619   5.905   9.437 -0.5882  0.7852 -0.0851
  190POPC  H11X21967   0.711   5.915   9.376 -0.3320 -2.5186 -0.3892
  190POPC  H11Y21968   0.581   6.009   9.451  1.0805  1.3777  0.3439
  190POPC  C31221969   0.517   5.808   9.375 -0.2477  0.3868  0.5050
  190POPC  H12X21970   0.428   5.794   9.440 -0.2099 -0.1038  0.4519
  190POPC  H12Y21971   0.562   5.708   9.359  1.6439  0.2921  4.8342
  190POPC  C31321972   0.457   5.875   9.246  0.3208 -0.1375 -0.5288
  190POPC  H13X21973   0.433   5.982   9.264  1.0319 -0.2072  0.9952
  190POPC  H13Y21974   0.361   5.825   9.223 -0.4993 -1.1638  4.1655
  190POPC  C31421975   0.547   5.869   9.123 -0.1689 -0.4195 -0.0474
  190POPC  H14X21976   0.567   5.761   9.109  0.1326 -0.0847 -2.7053
  190POPC  H14Y21977   0.644   5.922   9.134 -0.1534  1.0609 -5.0272
  190POPC  C31521978   0.485   5.929   8.994 -0.0829 -0.2514 -0.6885
  190POPC  H15X21979   0.482   6.040   8.992  1.0062 -0.0384  2.7387
  190POPC  H15Y21980   0.382   5.890   8.985  1.0663 -3.3724 -1.6133
  190POPC  C31621981   0.554   5.881   8.862  0.5582  0.2964  0.4994
  190POPC  H16X21982   0.545   5.968   8.794  3.3716  0.1361 -0.2109
  190POPC  H16Y21983   0.499   5.794   8.822  1.3716 -0.7224  1.5272
  190POPC  H16Z21984   0.663   5.860   8.872  0.5714 -0.5940 -1.1699
  191POPC     N21985   6.715   0.245   5.793 -0.0954  0.6281 -0.1209
  191POPC   C1221986   6.714   0.176   5.929  0.1591 -0.3239  0.3148
  191POPC  H12A21987   6.756   0.077   5.913 -0.0694 -0.1661 -1.4584
  191POPC  H12B21988   6.611   0.161   5.955 -0.6637  2.0762 -1.2467
  191POPC   C1321989   6.673   0.151   5.684  0.4424  0.8541 -0.4571
  191POPC  H13A21990   6.740   0.074   5.648 -0.5827  0.7621 -2.2607
  191POPC  H13B21991   6.579   0.106   5.711  0.0721  0.6875 -1.9391
  191POPC  H13C21992   6.649   0.201   5.591  0.8651 -0.5182 -1.3370
  191POPC   C1421993   6.621   0.358   5.800  0.1693 -0.2186 -0.0521
  191POPC  H14A21994   6.520   0.326   5.822 -0.1006 -0.0640 -1.0423
  191POPC  H14B21995   6.644   0.423   5.883  2.5061  0.6120 -1.2758
  191POPC  H14C21996   6.624   0.426   5.717  3.8825 -1.3378 -1.0272
  191POPC   C1521997   6.853   0.286   5.751  0.2929 -0.0061  0.4018
  191POPC  H15A21998   6.919   0.326   5.827  2.1830  1.0201 -1.6584
  191POPC  H15B21999   6.838   0.359   5.673 -4.1904 -0.0456  0.9731
  191POPC  H15C22000   6.901   0.195   5.717  0.4525 -0.2304  1.1953
  191POPC   C1122001   6.792   0.242   6.043  0.1005  0.5273 -0.1947
  191POPC  H11A22002   6.894   0.263   6.006 -0.1989  2.3241 -0.0907
  191POPC  H11B22003   6.817   0.171   6.125 -1.3634  1.2666  0.9508
  191POPC     P22004   6.612   0.348   6.195 -0.0026 -0.0853 -0.2305
  191POPC   O1322005   6.528   0.229   6.165  0.4935 -0.2640  0.1475
  191POPC   O1422006   6.553   0.483   6.207 -0.4290  0.3039 -0.1444
  191POPC   O1222007   6.729   0.365   6.088 -0.0224 -0.2916 -0.6246
  191POPC   O1122008   6.697   0.318   6.318  0.1208 -0.3658 -0.0184
  191POPC    C122009   6.828   0.373   6.343 -0.6944  0.8759  0.0784
  191POPC    HA22010   6.853   0.459   6.277  1.1074  0.4292  0.1120
  191POPC    HB22011   6.904   0.295   6.317 -1.0799  0.2996  0.6742
  191POPC    C222012   6.848   0.417   6.491 -0.5008  0.4877  0.5654
  191POPC    HS22013   6.956   0.432   6.515 -0.7350  2.1341  0.6906
  191POPC   O2122014   6.784   0.317   6.578  0.0467 -0.0647  0.2635
  191POPC   C2122015   6.860   0.292   6.678 -0.6391  0.7746  0.0043
  191POPC   O2222016   6.966   0.345   6.706  0.2564 -0.0114 -0.1858
  191POPC   C2222017   6.793   0.183   6.766  1.7327  0.9065 -0.6883
  191POPC   H2R22018   6.872   0.138   6.830  0.5692  1.3497  1.1209
  191POPC   H2S22019   6.752   0.116   6.687  0.0415  0.2322  0.6852
  191POPC    C322020   6.781   0.553   6.513 -0.0090  0.1581  0.2103
  191POPC    HX22021   6.675   0.520   6.518 -0.3999  0.6901 -2.6449
  191POPC    HY22022   6.812   0.611   6.424  1.3235 -1.1401 -0.2273
  191POPC   O3122023   6.823   0.620   6.637 -0.1648  0.4420 -0.4515
  191POPC   C3122024   6.949   0.662   6.645 -0.7819  0.1563  0.0497
  191POPC   O3222025   7.035   0.648   6.561  0.7919  0.2545  0.3910
  191POPC   C3222026   6.981   0.740   6.775  0.0392  0.1393  1.1839
  191POPC   H2X22027   6.911   0.700   6.852 -2.2250 -2.1119 -1.8153
  191POPC   H2Y22028   6.968   0.850   6.760  0.1172  0.0620  0.5233
  191POPC   C2322029   6.671   0.239   6.848 -0.2499  0.1081 -0.3083
  191POPC   H3R22030   6.604   0.159   6.884 -1.0389  0.5071 -0.8710
  191POPC   H3S22031   6.620   0.312   6.782 -0.6809  0.2799  0.2112
  191POPC   C2422032   6.724   0.328   6.967 -0.3292 -0.0092 -0.6081
  191POPC   H4R22033   6.803   0.397   6.931  0.0538  0.9213  1.7926
  191POPC   H4S22034   6.770   0.259   7.042 -2.5188  0.8443  1.6503
  191POPC   C2522035   6.621   0.415   7.046  0.1210  0.2739  0.3704
  191POPC   H5R22036   6.570   0.358   7.126 -0.1232  0.6555  0.4860
  191POPC   H5S22037   6.553   0.453   6.966  0.0086  1.5043  1.0252
  191POPC   C2622038   6.691   0.525   7.122  0.8702 -0.1068 -0.5318
  191POPC   H6R22039   6.612   0.595   7.158 -1.1952 -2.8200  0.5144
  191POPC   H6S22040   6.750   0.582   7.047  2.7892  0.5275  1.3729
  191POPC   C2722041   6.780   0.490   7.235  0.0417  0.2207 -0.2670
  191POPC   H7R22042   6.873   0.551   7.237  0.8523 -0.9729  0.0306
  191POPC   H7S22043   6.807   0.383   7.224 -3.1051 -0.6302 -0.4078
  191POPC   C2822044   6.705   0.511   7.372 -0.3741 -0.8442 -0.6987
  191POPC   H8R22045   6.598   0.481   7.368 -1.3103  1.8091  1.5291
  191POPC   H8S22046   6.708   0.620   7.389  1.0531 -0.9430 -0.1512
  191POPC   C2922047   6.765   0.439   7.485 -0.2218 -0.4471 -0.5073
  191POPC   H9122048   6.748   0.332   7.462 -0.7342 -0.6674  0.8163
  191POPC  C21022049   6.830   0.481   7.595 -0.5838  1.0914  0.2100
  191POPC  H10122050   6.876   0.410   7.665  1.3205  2.2468  0.2065
  191POPC  C21122051   6.854   0.621   7.628  0.3859 -0.0982  0.1977
  191POPC  H11R22052   6.829   0.695   7.549  1.4439  1.3380  1.1512
  191POPC  H11S22053   6.962   0.624   7.656  1.0822 -2.1498 -1.9359
  191POPC  C21222054   6.769   0.661   7.753  0.3996  0.0137  0.2972
  191POPC  H12R22055   6.661   0.641   7.737 -0.0663  1.5572  1.2951
  191POPC  H12S22056   6.780   0.772   7.760  0.7040 -0.0274  0.4894
  191POPC  C21322057   6.799   0.590   7.877  0.7315 -0.5082 -0.8489
  191POPC  H13R22058   6.905   0.581   7.909 -0.3989 -1.9515  2.9977
  191POPC  H13S22059   6.760   0.486   7.877 -1.1104  0.1034  1.2180
  191POPC  C21422060   6.743   0.672   7.990 -0.1901  0.1711 -0.1211
  191POPC  H14R22061   6.632   0.673   7.985 -0.1489  0.9891 -1.2219
  191POPC  H14S22062   6.782   0.776   7.991 -2.3989  1.0540 -0.0090
  191POPC  C21522063   6.788   0.625   8.128 -0.7359  0.0336 -0.2848
  191POPC  H15R22064   6.899   0.625   8.126 -0.6108  0.3540  2.5899
  191POPC  H15S22065   6.763   0.519   8.151  1.1298 -0.0005  1.8885
  191POPC  C21622066   6.733   0.703   8.250 -0.2672  0.4156  0.8563
  191POPC  H16R22067   6.634   0.669   8.286 -0.7466 -0.6594 -1.3187
  191POPC  H16S22068   6.724   0.809   8.218 -0.1195 -0.0746 -0.9300
  191POPC  C21722069   6.832   0.701   8.368 -0.2141  0.5612  0.4965
  191POPC  H17R22070   6.931   0.735   8.332 -0.0567 -1.1320 -0.7816
  191POPC  H17S22071   6.851   0.596   8.398  1.8516  1.1850  1.5489
  191POPC  C21822072   6.791   0.776   8.497 -0.3090 -0.7738 -0.3792
  191POPC  H18R22073   6.864   0.750   8.577 -0.0666  0.8140 -0.0588
  191POPC  H18S22074   6.692   0.750   8.539 -0.8652  1.2366 -0.3567
  191POPC  H18T22075   6.791   0.886   8.487  0.7014 -0.4233  2.5143
  191POPC   C3322076   7.116   0.700   6.843  0.0043 -0.0727  0.0367
  191POPC   H3X22077   7.192   0.719   6.764 -0.6710 -0.0775 -0.6215
  191POPC   H3Y22078   7.110   0.595   6.879 -2.4270 -0.1848 -0.5404
  191POPC   C3422079   7.139   0.783   6.967 -0.4736 -0.0450  0.6586
  191POPC   H4X22080   7.052   0.754   7.029 -1.4791 -2.1543 -1.5414
  191POPC   H4Y22081   7.147   0.893   6.953  2.5274 -0.3367 -0.7432
  191POPC   C3522082   7.273   0.747   7.029  0.1196  0.0964  0.8196
  191POPC   H5X22083   7.356   0.774   6.960 -1.1245  2.8953  0.3021
  191POPC   H5Y22084   7.282   0.637   7.043 -1.7671 -0.3857 -1.2037
  191POPC   C3622085   7.298   0.811   7.158  0.3641 -0.4032  0.4742
  191POPC   H6X22086   7.220   0.780   7.230 -1.0418  1.8826  0.0336
  191POPC   H6Y22087   7.284   0.920   7.142  0.2023 -0.6029 -0.8087
  191POPC   C3722088   7.439   0.783   7.214 -0.1124 -0.1599 -0.1701
  191POPC   H7X22089   7.512   0.827   7.144 -1.1109  1.2657 -0.3681
  191POPC   H7Y22090   7.457   0.675   7.232  0.3959 -0.2856 -1.3739
  191POPC   C3822091   7.456   0.856   7.347  0.1250 -0.2477 -0.3381
  191POPC   H8X22092   7.365   0.831   7.406  1.0059 -1.0656  0.7311
  191POPC   H8Y22093   7.471   0.965   7.334 -2.1523  0.3460  1.3342
  191POPC   C3922094   7.574   0.803   7.422  0.1969  0.3778 -0.0190
  191POPC   H9X22095   7.651   0.802   7.342 -0.9606  0.1010 -1.1582
  191POPC   H9Y22096   7.563   0.698   7.455 -1.9555  0.6399  0.2101
  191POPC  C31022097   7.622   0.892   7.537 -0.5241  0.3809 -0.1093
  191POPC  H10X22098   7.642   0.993   7.494 -0.0583 -0.3647 -1.6890
  191POPC  H10Y22099   7.722   0.869   7.579  1.0545  1.8547 -2.8335
  191POPC  C31122100   7.526   0.883   7.653 -0.7381 -0.3898  0.0995
  191POPC  H11X22101   7.480   0.781   7.660  1.6680 -1.5536 -0.1613
  191POPC  H11Y22102   7.444   0.956   7.635 -1.1432 -1.4462 -2.7723
  191POPC  C31222103   7.587   0.931   7.784 -0.1797  0.1831 -0.4537
  191POPC  H12X22104   7.506   0.970   7.850  0.3930 -2.6931  2.1508
  191POPC  H12Y22105   7.665   1.010   7.771  0.7028 -0.5939  0.0458
  191POPC  C31322106   7.653   0.820   7.867  0.0093  0.7835 -0.5685
  191POPC  H13X22107   7.698   0.872   7.954  2.4648 -0.0677 -1.2636
  191POPC  H13Y22108   7.738   0.763   7.824 -0.6984  0.2598 -1.3041
  191POPC  C31422109   7.559   0.705   7.921  0.7933 -0.0745 -0.2540
  191POPC  H14X22110   7.542   0.627   7.844  1.1663 -0.0131 -0.4011
  191POPC  H14Y22111   7.463   0.751   7.952  0.9479 -0.8962  1.5753
  191POPC  C31522112   7.606   0.627   8.045  0.3106 -0.1748 -0.2159
  191POPC  H15X22113   7.703   0.587   8.009 -0.2973 -0.4756 -1.5862
  191POPC  H15Y22114   7.522   0.555   8.057 -0.0370  0.3160  0.3883
  191POPC  C31622115   7.639   0.708   8.172 -0.0664 -0.0739 -0.0998
  191POPC  H16X22116   7.550   0.764   8.207  0.3183  1.2210 -1.1110
  191POPC  H16Y22117   7.706   0.790   8.139 -0.4144 -0.2590 -1.3533
  191POPC  H16Z22118   7.674   0.638   8.251  0.6281  1.3754  0.9267
  192POPC     N22119   5.048   3.718   6.281 -0.1659  0.1980  0.7887
  192POPC   C1222120   5.166   3.737   6.376  0.4190  0.2447  0.7166
  192POPC  H12A22121   5.239   3.665   6.343 -2.2721 -0.9873 -3.1030
  192POPC  H12B22122   5.122   3.708   6.470 -1.0992 -0.8032 -0.2832
  192POPC   C1322123   4.934   3.780   6.341 -0.3228  0.1373 -0.2042
  192POPC  H13A22124   4.961   3.873   6.389  0.3646 -0.3365  0.3534
  192POPC  H13B22125   4.846   3.772   6.279 -1.5337 -0.7499  1.5366
  192POPC  H13C22126   4.905   3.720   6.426  1.5132 -0.7682 -0.1665
  192POPC   C1422127   5.077   3.789   6.146  0.1222  0.6160 -0.2693
  192POPC  H14A22128   5.154   3.734   6.094  0.0424 -0.3529  0.5948
  192POPC  H14B22129   4.984   3.786   6.091 -0.2673  2.1490  0.2663
  192POPC  H14C22130   5.111   3.890   6.164 -1.3582  1.7863 -3.3990
  192POPC   C1522131   5.010   3.578   6.252 -0.5135  0.1709  0.4859
  192POPC  H15A22132   5.094   3.520   6.217  0.2875  0.6620  1.5459
  192POPC  H15B22133   4.927   3.575   6.183  0.5663 -2.2121 -0.8545
  192POPC  H15C22134   4.969   3.532   6.341 -1.3090 -0.4663 -0.1888
  192POPC   C1122135   5.243   3.877   6.385  0.1653  0.4210  0.2536
  192POPC  H11A22136   5.284   3.899   6.284  1.3354  0.6861  0.7667
  192POPC  H11B22137   5.333   3.863   6.449  0.1278 -1.9878 -0.1281
  192POPC     P22138   5.135   4.107   6.358 -0.2982 -0.1688 -0.3960
  192POPC   O1322139   5.120   4.072   6.217  0.2034 -0.3574 -0.4538
  192POPC   O1422140   5.247   4.198   6.394  0.3301  0.2057  0.1722
  192POPC   O1222141   5.155   3.969   6.445  0.0259 -0.7959  0.8103
  192POPC   O1122142   5.003   4.180   6.403  0.2064  0.2514 -0.0950
  192POPC    C122143   4.926   4.140   6.517  0.5540  0.1690  0.4683
  192POPC    HA22144   4.924   4.029   6.520 -0.4311  0.1323 -0.7613
  192POPC    HB22145   4.820   4.167   6.496  0.1860 -0.2991  1.6389
  192POPC    C222146   4.985   4.213   6.645  0.0076  0.2586 -0.1909
  192POPC    HS22147   5.013   4.316   6.616 -1.3486  0.4156 -1.0529
  192POPC   O2122148   5.093   4.130   6.689  0.0600 -0.3600 -0.4069
  192POPC   C2122149   5.210   4.195   6.718 -1.0914  0.3765  0.7198
  192POPC   O2222150   5.234   4.315   6.709  0.1223  0.2439  0.6517
  192POPC   C2222151   5.324   4.109   6.771  0.4741  0.1755  0.5212
  192POPC   H2R22152   5.342   4.022   6.704  2.8154  0.4310  0.7304
  192POPC   H2S22153   5.284   4.062   6.863  0.1825  2.1638  1.4593
  192POPC    C322154   4.888   4.228   6.767  0.2251  0.0779 -0.5940
  192POPC    HX22155   4.834   4.134   6.790  0.2679  0.1892 -0.0360
  192POPC    HY22156   4.816   4.311   6.750  1.2453  0.7237 -1.9486
  192POPC   O3122157   4.961   4.247   6.884  0.1764  0.3346  0.4408
  192POPC   C3122158   4.988   4.374   6.925 -0.1544 -0.5194  0.7301
  192POPC   O3222159   4.958   4.474   6.866  0.4474  0.0120 -0.2270
  192POPC   C3222160   5.081   4.359   7.045  0.8088 -0.0039  0.0689
  192POPC   H2X22161   5.037   4.422   7.125  0.8299  1.0087 -0.7064
  192POPC   H2Y22162   5.169   4.421   7.016  0.2492  0.6518 -0.2403
  192POPC   C2322163   5.460   4.169   6.780 -0.2344  0.2300 -0.2331
  192POPC   H3R22164   5.477   4.262   6.722  1.3698 -0.2972 -0.6722
  192POPC   H3S22165   5.543   4.097   6.761  1.7868  2.0266  1.3317
  192POPC   C2422166   5.491   4.213   6.924  0.1700 -0.5893  0.7452
  192POPC   H4R22167   5.451   4.148   7.005  2.6120 -3.2710 -0.0198
  192POPC   H4S22168   5.456   4.318   6.934  0.4086 -0.1621 -2.0946
  192POPC   C2522169   5.643   4.205   6.950  0.2438 -0.2202 -0.3548
  192POPC   H5R22170   5.699   4.264   6.875 -0.8238  0.2759 -0.7900
  192POPC   H5S22171   5.680   4.102   6.963 -1.0815 -0.4602  2.5125
  192POPC   C2622172   5.672   4.278   7.082 -0.4116 -0.1490  0.2254
  192POPC   H6R22173   5.635   4.382   7.071  1.9573  0.8482  1.1217
  192POPC   H6S22174   5.782   4.291   7.080 -0.2534 -1.3468  0.4179
  192POPC   C2722175   5.635   4.207   7.212 -0.2659 -0.2071  0.0834
  192POPC   H7R22176   5.692   4.112   7.213  2.1948  1.1883 -0.5913
  192POPC   H7S22177   5.525   4.193   7.201 -0.0440 -0.5851 -2.0767
  192POPC   C2822178   5.668   4.292   7.339  0.4559  0.0470  0.0330
  192POPC   H8R22179   5.612   4.387   7.333  1.6674  0.7257 -1.3125
  192POPC   H8S22180   5.776   4.316   7.342  0.4941 -0.0186 -0.6243
  192POPC   C2922181   5.616   4.220   7.459 -0.0574 -0.0865  0.0233
  192POPC   H9122182   5.553   4.131   7.448  2.1563 -2.1601  2.7696
  192POPC  C21022183   5.673   4.231   7.579 -0.1102 -0.0806  0.2179
  192POPC  H10122184   5.626   4.167   7.655 -1.7283  0.4730 -0.2743
  192POPC  C21122185   5.794   4.310   7.620  0.5630 -0.6057  0.0194
  192POPC  H11R22186   5.762   4.417   7.626 -2.8221 -1.4954  0.1312
  192POPC  H11S22187   5.882   4.294   7.554  0.5871  0.5619 -0.2576
  192POPC  C21222188   5.842   4.264   7.760  0.4652 -0.8239  0.1517
  192POPC  H12R22189   5.926   4.332   7.785  0.2306 -0.7057  0.6358
  192POPC  H12S22190   5.865   4.155   7.763 -1.2282 -1.2176  3.2266
  192POPC  C21322191   5.739   4.293   7.868 -0.0608  0.7062 -0.5531
  192POPC  H13R22192   5.668   4.207   7.875  0.4001  0.0470 -3.0350
  192POPC  H13S22193   5.668   4.373   7.840 -3.3169 -2.1086 -0.9827
  192POPC  C21422194   5.804   4.310   8.007 -0.3021 -0.1745 -0.6686
  192POPC  H14R22195   5.738   4.368   8.076 -1.3572 -2.0949 -0.0124
  192POPC  H14S22196   5.877   4.394   8.001 -3.3319  2.5568 -2.1364
  192POPC  C21522197   5.852   4.189   8.077 -0.0979 -0.1093  0.2955
  192POPC  H15R22198   5.785   4.109   8.040 -1.4344  1.2644 -0.3724
  192POPC  H15S22199   5.831   4.195   8.186 -3.0270 -0.8411 -0.1632
  192POPC  C21622200   6.003   4.155   8.070 -0.2227 -0.8962 -0.0318
  192POPC  H16R22201   6.052   4.242   8.119 -0.9940 -1.5110  1.9360
  192POPC  H16S22202   6.040   4.156   7.965 -1.5270 -0.0635 -0.5050
  192POPC  C21722203   6.033   4.022   8.137  0.2757  0.6194 -0.0770
  192POPC  H17R22204   5.966   3.943   8.098 -0.0049  0.0244  1.5174
  192POPC  H17S22205   6.022   4.030   8.247  1.8296  2.1440  0.0058
  192POPC  C21822206   6.175   3.981   8.106 -0.0980  0.2012 -0.0920
  192POPC  H18R22207   6.209   3.907   8.182 -0.8495  1.0968  1.1536
  192POPC  H18S22208   6.246   4.065   8.114  0.3809  0.0747 -2.3629
  192POPC  H18T22209   6.177   3.939   8.003 -0.3089 -2.0950  0.7611
  192POPC   C3322210   5.115   4.224   7.103 -0.1541  0.0868 -1.3243
  192POPC   H3X22211   5.168   4.167   7.023  1.5054  0.2907 -0.4108
  192POPC   H3Y22212   5.016   4.178   7.122  0.9136 -1.8906 -0.2406
  192POPC   C3422213   5.214   4.218   7.222 -1.2299 -0.3684 -0.5083
  192POPC   H4X22214   5.309   4.273   7.206 -0.9531 -0.4978  0.6274
  192POPC   H4Y22215   5.239   4.111   7.235 -0.9334 -0.4090 -1.3712
  192POPC   C3522216   5.151   4.269   7.351  0.2286  0.0915  0.1431
  192POPC   H5X22217   5.070   4.196   7.374  0.8311 -0.2228  1.3743
  192POPC   H5Y22218   5.104   4.369   7.353  2.3682  1.1327  0.5452
  192POPC   C3622219   5.246   4.244   7.472 -1.0102  0.0599 -1.4574
  192POPC   H6X22220   5.320   4.324   7.449 -1.7846  1.7148  1.3861
  192POPC   H6Y22221   5.294   4.144   7.464 -1.2536 -0.4712  2.0335
  192POPC   C3722222   5.174   4.257   7.604  0.1916 -0.0986  0.1543
  192POPC   H7X22223   5.090   4.184   7.597  1.1558 -1.0537 -2.3362
  192POPC   H7Y22224   5.142   4.363   7.606  1.9341  0.6023 -3.2676
  192POPC   C3822225   5.254   4.209   7.728  0.5546 -0.1239 -0.3234
  192POPC   H8X22226   5.350   4.260   7.750 -0.0691  0.9866 -0.0932
  192POPC   H8Y22227   5.279   4.101   7.722  0.9338 -0.1237  0.9801
  192POPC   C3922228   5.182   4.218   7.868 -0.7755 -0.0303 -0.5286
  192POPC   H9X22229   5.085   4.163   7.867 -0.9582  0.2833 -0.2876
  192POPC   H9Y22230   5.140   4.320   7.881 -1.4589 -0.2654 -0.8396
  192POPC  C31022231   5.271   4.168   7.978 -0.2489 -0.0869  0.4205
  192POPC  H10X22232   5.316   4.071   7.948 -1.1046 -0.9683  1.9074
  192POPC  H10Y22233   5.206   4.156   8.067 -1.9805 -0.7518 -0.8529
  192POPC  C31122234   5.391   4.266   8.008  0.2195 -0.3455 -1.0664
  192POPC  H11X22235   5.358   4.370   7.987 -0.6738 -0.4537 -0.2672
  192POPC  H11Y22236   5.484   4.244   7.951 -0.4975 -1.2641 -1.9276
  192POPC  C31222237   5.435   4.263   8.161  1.2063 -0.7077 -0.0595
  192POPC  H12X22238   5.343   4.283   8.221  1.3455 -0.0813 -0.0475
  192POPC  H12Y22239   5.520   4.332   8.179  0.7925 -0.0761 -0.5006
  192POPC  C31322240   5.484   4.125   8.201  0.4803  0.5535 -0.0183
  192POPC  H13X22241   5.569   4.097   8.136  0.7617  2.2642 -0.4484
  192POPC  H13Y22242   5.409   4.047   8.177  2.5435 -1.4958 -0.0594
  192POPC  C31422243   5.526   4.121   8.351  0.0184  0.1252  0.3513
  192POPC  H14X22244   5.447   4.164   8.416 -0.4507 -1.0340  0.5764
  192POPC  H14Y22245   5.613   4.187   8.369  1.3351 -1.6660  0.8044
  192POPC  C31522246   5.570   3.981   8.396 -0.4155  1.0563  0.4466
  192POPC  H15X22247   5.644   3.949   8.321 -2.1072 -0.8830 -0.4937
  192POPC  H15Y22248   5.480   3.918   8.374  0.4992  0.5886 -2.3232
  192POPC  C31622249   5.628   3.968   8.536  0.4409  0.0432  0.0158
  192POPC  H16X22250   5.659   3.865   8.561  0.8079  0.9497  3.9468
  192POPC  H16Y22251   5.566   3.992   8.625 -1.6142 -1.9285 -0.7899
  192POPC  H16Z22252   5.721   4.029   8.543 -0.7446  1.9060  0.1092
  193SOD    SOD22253   2.435   1.568   3.058 -0.0243 -0.1047  0.5183
  194SOD    SOD22254   3.165   3.656   4.873 -0.0717 -0.3500  0.1616
  195SOD    SOD22255   1.270   2.495  10.807 -0.0516 -0.3535 -0.7397
  196SOD    SOD22256   3.802   4.812   3.977  0.1815  0.3857 -0.4012
  197SOD    SOD22257   0.527   4.952  12.070  0.2442 -0.4580 -0.3209
  198SOD    SOD22258   0.718   3.151   4.986 -0.3427 -0.0457  0.4308
  199SOD    SOD22259   4.227   5.190   6.149 -0.5464  0.5763 -0.6083
  200SOD    SOD22260   4.523   6.374  14.656 -0.1297 -0.2149 -0.3440
  201SOD    SOD22261   4.314   5.955   5.103 -0.2175 -0.2252  0.0587
  202SOD    SOD22262   4.984   4.726   6.091  0.2357  0.4804  0.1686
  203SOD    SOD22263   0.115   1.169  14.652  0.3646 -0.4188  0.1905
  204SOD    SOD22264   2.171   6.382   6.439 -0.4197  0.2793  0.0074
  205SOD    SOD22265   2.773   5.218   1.017 -0.0279  0.3072 -0.2036
  206SOD    SOD22266   2.223   3.105   5.449  0.3239  0.4882  0.3126
  207SOD    SOD22267   4.893   0.305   6.067  0.1745 -0.5581  0.4650
  208SOD    SOD22268   5.980   5.149  16.747  0.1728 -0.1215 -0.2848
  209SOD    SOD22269   6.127   0.225  13.260 -0.2418 -0.0065  0.0596
  210SOD    SOD22270   0.551   3.150  12.870  0.3214 -0.1363 -0.1259
  211SOD    SOD22271   6.232   4.544   5.862 -0.2017  0.5175  0.5404
  212SOD    SOD22272   1.651   0.775   6.466  0.1253 -0.2451  0.1475
  213SOD    SOD22273   3.650   1.539  13.615  0.3244 -0.1611 -0.5395
  214SOD    SOD22274   5.532   0.451   3.178 -0.1446 -0.4254  0.0604
  215SOD    SOD22275   1.386   1.377   4.407  0.2803 -0.0445  0.0607
  216SOD    SOD22276   3.771   1.912   5.625  0.2122  0.3242 -0.6316
  217SOD    SOD22277   4.484   5.764  12.687  0.7323  0.0258 -0.1661
  218SOD    SOD22278   1.943   5.586  13.020  0.3055 -0.4516  0.1368
  219SOD    SOD22279   4.481   4.676   2.419  0.0187  0.3116 -0.1859
  220SOD    SOD22280   4.396   3.193   1.517  0.2907 -0.2372 -0.1695
  221SOD    SOD22281   5.126   2.517  11.236  0.6453 -0.3425  0.4101
  222SOD    SOD22282   6.073   0.242   6.316  0.6596 -0.1127  0.1118
  223SOD    SOD22283   3.238   1.184  16.160  0.2327  0.2687 -0.3975
  224SOD    SOD22284   3.434   5.911  10.575  0.1608  0.4079 -0.0271
  225SOD    SOD22285   2.927   2.026  11.370  0.0944  0.3924 -0.1585
  226SOD    SOD22286   5.250   5.097  12.798 -0.0744 -0.0179  0.1616
  227SOD    SOD22287   2.803   2.996   5.762 -0.5081 -0.0565  0.1429
  228SOD    SOD22288   1.531   5.774  11.636 -0.1946  0.0271  0.1977
  229SOD    SOD22289   3.925   6.646   2.031 -0.5419 -0.1747  0.3825
  230SOD    SOD22290   2.339   1.635  12.706 -0.3707  0.2071 -0.2767
  231SOD    SOD22291   0.515   3.997   0.432  0.1641 -0.8015 -0.2189
  232SOD    SOD22292   5.279   3.250  11.515  0.2601  0.5510  0.4427
  233SOD    SOD22293   0.815   5.902   5.497 -0.2700 -0.0278  0.3422
  234SOD    SOD22294   0.878   4.867   4.722  0.2042  0.1143  0.2992
  235SOD    SOD22295   2.124   5.969  15.249  0.2523 -0.1486 -0.2694
  236SOD    SOD22296   1.431   0.572  12.408 -0.3076  0.1457 -0.0145
  237SOD    SOD22297   1.361   2.897   4.828  0.1066 -0.2708  0.1158
  238SOD    SOD22298   0.668   4.358  16.179  0.3494  0.0464  0.0162
  239SOD    SOD22299   6.164   0.563   0.476 -0.5106 -0.1336  0.1848
  240SOD    SOD22300   3.782   5.004  12.843 -0.1509 -0.2158 -0.4127
  241SOD    SOD22301   5.791   6.027  11.762 -0.3477  0.2279 -0.1695
  242SOD    SOD22302   0.543   5.227   2.824  0.0219 -0.3774  0.0913
  243SOD    SOD22303   0.515   5.128   1.184 -0.2425 -0.1417  0.2486
  244SOD    SOD22304   4.153   3.728   0.816 -0.0576 -0.0622  0.2594
  245SOD    SOD22305   0.469   3.690   2.521 -0.0543 -0.3366 -0.1577
  246SOD    SOD22306   1.340   4.677   2.254 -0.3328 -0.2684  0.4580
  247SOD    SOD22307   4.197   0.507   2.315 -0.4158 -0.1578 -0.0435
  248SOD    SOD22308   3.552   5.301   3.392 -0.0578 -0.0803  0.0737
  249SOD    SOD22309   2.663   2.862  15.573 -0.5781  0.0252 -0.1084
  250SOD    SOD22310   1.573   4.150   3.483  0.3049  0.0174  0.0366
  251SOD    SOD22311   2.254   1.104  16.348 -0.0219  0.5302  0.3241
  252SOD    SOD22312   0.095   2.985   2.131 -0.1932  0.3712 -0.2668
  253SOD    SOD22313   0.801   0.110  14.359  0.0415  0.0139 -0.2671
  254SOD    SOD22314   1.990   6.351  12.888 -0.0111 -0.0592  0.4041
  255SOD    SOD22315   4.015   0.716  15.582 -0.0454  0.2342  0.1566
  256SOD    SOD22316   4.242   2.140   1.882  0.3886  0.3420  0.2386
  257SOD    SOD22317   2.538   1.191  11.001 -0.1983  0.5930  0.2648
  258SOD    SOD22318   2.518   3.054  17.233  0.2771  0.1811 -0.3468
  259SOD    SOD22319   1.295   4.463  11.979  0.3250  0.0033  0.4702
  260SOD    SOD22320   4.286   6.293   1.178 -0.3649  0.2181  0.0210
  261SOD    SOD22321   1.861   4.638  16.864  0.2241 -0.1364  0.2337
  262SOD    SOD22322   3.713   1.603  15.161  0.2090  0.0378 -0.2578
  263SOD    SOD22323   4.140   5.029   0.835  0.2914  0.3223 -0.1537
  264SOD    SOD22324   4.929   4.400  16.526 -0.2531  0.0096 -0.0510
  265SOD    SOD22325   4.971   0.201  13.344 -0.1362  0.4308  0.1036
  266SOD    SOD22326   0.215   4.512  15.102 -0.1120  0.2679 -0.0006
  267SOD    SOD22327   1.474   6.722   0.496  0.1796  0.0428 -0.4088
  268SOD    SOD22328   3.486   4.930  13.526 -0.2787  0.1654 -0.0168
  269SOD    SOD22329   6.156   2.407   6.108 -0.1179  0.2554  0.0953
  270CLA    CLA22330   2.845   3.295  15.638  0.1481 -0.1702 -0.0078
  271CLA    CLA22331   1.231   1.644  15.786  0.3423  0.0262 -0.4059
  272CLA    CLA22332   6.163   2.982  11.471  0.0006 -0.0106 -0.0278
  273CLA    CLA22333   0.155   1.172   3.007  0.0887 -0.2694 -0.2416
  274CLA    CLA22334   3.552   4.876   0.225 -0.1342  0.0253  0.0952
  275CLA    CLA22335   2.128   0.066  12.031 -0.2864 -0.6223 -0.1466
  276CLA    CLA22336   6.721   2.810   3.115  0.0792  0.0104 -0.0121
  277CLA    CLA22337   0.759   5.437  13.075 -0.0571  0.1723  0.5063
  278CLA    CLA22338   0.824   4.394   1.461  0.0823  0.1918 -0.0319
  279CLA    CLA22339   1.680   0.863   4.327 -0.1786  0.2710 -0.4167
  280CLA    CLA22340   0.509   4.074   2.873  0.2308 -0.2912  0.1926
  281CLA    CLA22341   6.718   6.140  14.259  0.1830  0.1807 -0.0127
  282CLA    CLA22342   6.702   0.294   4.885 -0.4166  0.1502  0.2319
  283CLA    CLA22343   3.863   4.413   1.586  0.0661 -0.2223  0.6996
  284CLA    CLA22344   0.869   4.847   0.241  0.2452 -0.0915 -0.4854
  285CLA    CLA22345   3.760   4.268  15.014  0.1235 -0.0195  0.3154
  286CLA    CLA22346   5.925   3.028  14.869  0.0412 -0.2866 -0.0280
  287CLA    CLA22347   2.792   5.376   4.060 -0.0222  0.1926  0.0797
  288CLA    CLA22348   1.640   6.132  15.401  0.3210  0.1054  0.2868
  289CLA    CLA22349   2.804   3.288  13.216  0.2002 -0.0988  0.0887
  290CLA    CLA22350   1.530   6.267  12.994  0.1342  0.0731 -0.3585
  291CLA    CLA22351   6.052   3.675   4.874 -0.2274 -0.0835 -0.5113
  292CLA    CLA22352   1.557   4.513  12.375  0.2807  0.2665  0.2283
  293CLA    CLA22353   1.395   0.868  14.588 -0.3162 -0.3147  0.0609
  294CLA    CLA22354   1.931   5.858  16.467  0.0973 -0.4332 -0.1236
  295CLA    CLA22355   6.168   3.355   3.358 -0.5464  0.3797  0.2369
  296CLA    CLA22356   5.051   2.324   1.854 -0.1549 -0.0099  0.4930
  297CLA    CLA22357   2.579   1.211   0.699  0.6394 -0.1420  0.0148
  298CLA    CLA22358   1.221   5.230   1.233  0.1984  0.2449 -0.2917
  299CLA    CLA22359   3.637   6.515  14.162 -0.0197 -0.1919  0.5793
  300CLA    CLA22360   4.233   3.591   4.816  0.0326  0.3240 -0.3572
  301CLA    CLA22361   0.628   4.302  11.774 -0.0447  0.4684 -0.1331
  302CLA    CLA22362   4.098   0.388   2.539  0.7860  0.1729  0.2796
  303CLA    CLA22363   3.054   0.141   2.350 -0.5093  0.2867  0.0892
  304CLA    CLA22364   3.892   4.985  15.615 -0.2911  0.4497  0.0667
  305CLA    CLA22365   4.798   6.730  15.364 -0.1841  0.1013  0.1270
  306CLA    CLA22366   1.723   1.167  16.429  0.0124  0.1230 -0.2596
  307CLA    CLA22367   5.149   6.408   3.288 -0.3772 -0.2178 -0.0698
  308CLA    CLA22368   5.932   1.820  15.707 -0.0281 -0.0688  0.0639
  309CLA    CLA22369   4.476   3.473   2.213  0.0893 -0.5921  0.0316
  310CLA    CLA22370   2.423   3.896   5.638 -0.0175  0.7700 -0.2446
  311CLA    CLA22371   2.221   4.347   5.415 -0.0025  0.2862  0.0370
  312CLA    CLA22372   0.460   3.441   0.138  0.5345  0.2309  0.0613
  313CLA    CLA22373   3.156   4.927   5.094  0.0762 -0.0157  0.1342
  314CLA    CLA22374   5.267   6.191  12.269 -0.1188  0.2669  0.3624
  315CLA    CLA22375   1.000   2.635  16.258 -0.2042  0.1709 -0.1933
  316CLA    CLA22376   4.761   1.595  17.125 -0.0628 -0.4235  0.0865
  317CLA    CLA22377   2.472   0.665  16.880  0.2934 -0.3382  0.0401
  318CLA    CLA22378   3.505   6.071   0.933  0.1968  0.0771 -0.3091
  319CLA    CLA22379   6.326   5.029  17.133 -0.0078  0.3897 -0.0852
  320CLA    CLA22380   2.845   1.817   5.945 -0.3120  0.2231  0.0716
  321CLA    CLA22381   4.529   3.854  12.437  0.0950 -0.0086  0.1772
  322CLA    CLA22382   5.133   1.425  15.637  0.1145  0.2120 -0.2727
  323TIP3   OH222383   5.063   5.311   5.302  0.5180 -0.2451 -0.2732
  323TIP3    H122384   5.023   5.395   5.281  0.7029  0.2882  1.3378
  323TIP3    H222385   5.016   5.247   5.249 -0.8385  0.6546 -0.1910
  324TIP3   OH222386   4.726   0.839   3.699 -0.0904 -0.5112 -0.0158
  324TIP3    H122387   4.710   0.918   3.751 -0.6498 -1.2142  0.9068
  324TIP3    H222388   4.660   0.843   3.629  1.3184  0.9576 -1.3303
  325TIP3   OH222389   2.721   0.130   6.433  0.0797  0.0623 -0.6513
  325TIP3    H122390   2.678   0.083   6.504 -0.5215  1.5987  0.0409
  325TIP3    H222391   2.773   0.197   6.477  0.3022  0.5524 -1.6438
  326TIP3   OH222392   5.106   1.368  17.041 -0.3150  0.0162  0.2758
  326TIP3    H122393   5.102   1.464  17.042 -0.4185  0.0142  1.2802
  326TIP3    H222394   5.074   1.343  16.954  1.1572  0.9317 -0.5702
  327TIP3   OH222395   4.838   3.413   3.591  0.4726 -0.3570  0.1630
  327TIP3    H122396   4.868   3.375   3.509 -2.3619  0.6667 -1.5051
  327TIP3    H222397   4.873   3.502   3.590 -0.5622  0.0674 -0.6245
  328TIP3   OH222398   0.278   6.407   3.635 -0.2284 -0.1016 -0.2773
  328TIP3    H122399   0.356   6.401   3.579 -0.7112  0.0955 -0.9811
  328TIP3    H222400   0.224   6.474   3.594 -0.2836  0.5473  0.8257
  329TIP3   OH222401   5.545   2.577  16.321  0.7935 -0.6486 -0.5131
  329TIP3    H122402   5.468   2.524  16.300 -0.7175  0.6443  1.4243
  329TIP3    H222403   5.513   2.667  16.320  2.0069 -0.1408  1.2647
  330TIP3   OH222404   4.860   2.525   4.557 -0.3398  1.3002  0.3699
  330TIP3    H122405   4.891   2.526   4.647  0.7748  0.9903  0.0043
  330TIP3    H222406   4.765   2.521   4.565 -0.3082  2.1445  1.5247
  331TIP3   OH222407   1.683   5.882   4.162  0.0649  0.2835  0.2496
  331TIP3    H122408   1.717   5.911   4.078  1.2844 -1.1008  0.2288
  331TIP3    H222409   1.613   5.945   4.182 -0.9986  0.0426 -2.2788
  332TIP3   OH222410   0.135   4.136  14.848 -0.1184 -0.6280  0.0793
  332TIP3    H122411   0.175   4.197  14.786 -0.5402 -0.8666 -0.4359
  332TIP3    H222412   0.209   4.093  14.891  0.2208  1.0412  1.2702
  333TIP3   OH222413   5.475   6.489   3.701  0.0656 -0.7547  0.5178
  333TIP3    H122414   5.447   6.566   3.752 -1.3647 -0.2851 -0.9022
  333TIP3    H222415   5.395   6.458   3.659  0.8462 -2.3597  0.1609
  334TIP3   OH222416   2.373   0.116   2.212 -0.2092 -0.3693 -0.4942
  334TIP3    H122417   2.319   0.191   2.236  1.1070  0.6082 -0.4525
  334TIP3    H222418   2.404   0.081   2.295  0.2354 -0.1408 -0.5612
  335TIP3   OH222419   1.577   3.012   4.002  0.0563 -0.3856  0.0562
  335TIP3    H122420   1.630   3.075   4.051  0.2305 -1.1840  0.9317
  335TIP3    H222421   1.625   2.998   3.921  0.3370  0.1325  0.1280
  336TIP3   OH222422   3.597   3.073   6.086  0.0329 -0.1474  0.8659
  336TIP3    H122423   3.537   3.000   6.100 -0.2033 -0.3106 -0.7958
  336TIP3    H222424   3.623   3.100   6.174 -0.2911 -1.8801  1.5423
  337TIP3   OH222425   4.028   6.613  16.354  0.4366  0.6206  0.3427
  337TIP3    H122426   4.081   6.646  16.281  1.1098 -0.7796  0.1697
  337TIP3    H222427   4.070   6.530  16.379 -0.4115  0.5474  1.6299
  338TIP3   OH222428   3.750   5.142   0.628 -0.0191 -0.2025  0.4368
  338TIP3    H122429   3.753   5.120   0.535 -1.2661  0.0715  0.3140
  338TIP3    H222430   3.719   5.063   0.670 -0.7744  0.0993  0.4538
  339TIP3   OH222431   6.021   3.291   4.733  0.1193 -0.1696 -0.7393
  339TIP3    H122432   5.932   3.310   4.704  0.3863 -0.2313 -1.6305
  339TIP3    H222433   6.061   3.378   4.744  0.2702 -0.1441 -1.4057
  340TIP3   OH222434   4.138   5.665  11.022  0.3202 -0.4124 -0.3330
  340TIP3    H122435   4.219   5.661  10.971  2.3827  1.5040  2.4814
  340TIP3    H222436   4.081   5.722  10.972  0.8220 -1.4391 -2.1700
  341TIP3   OH222437   5.481   4.439   1.711 -0.1039 -0.0973  0.0070
  341TIP3    H122438   5.523   4.445   1.797 -2.3375 -0.6743  1.2255
  341TIP3    H222439   5.396   4.398   1.729 -0.0994 -1.4995 -2.6903
  342TIP3   OH222440   5.460   6.424   0.545  0.0885 -0.3796 -0.3220
  342TIP3    H122441   5.522   6.496   0.557 -0.3351 -0.3380  1.9698
  342TIP3    H222442   5.515   6.346   0.542  0.3630 -0.2111  0.2000
  343TIP3   OH222443   4.590   2.271  14.012  0.0386 -0.1835 -0.4456
  343TIP3    H122444   4.685   2.266  14.003  0.0029  0.6172 -1.4279
  343TIP3    H222445   4.556   2.245  13.926 -0.5982  0.2429 -0.3330
  344TIP3   OH222446   4.707   2.087  15.775  0.2533  0.4562  0.0056
  344TIP3    H122447   4.764   2.017  15.742 -1.1345 -0.8947  0.3174
  344TIP3    H222448   4.702   2.071  15.869 -1.5370 -0.2330 -0.1548
  345TIP3   OH222449   6.123   3.012   1.446  0.0740  0.1479 -0.1275
  345TIP3    H122450   6.129   3.040   1.537  0.3231  2.2577 -0.7400
  345TIP3    H222451   6.035   2.973   1.439 -0.5348  1.3333  0.6649
  346TIP3   OH222452   1.732   2.365  13.584 -0.5639  0.3125 -0.0770
  346TIP3    H122453   1.669   2.419  13.536  0.8020  0.4570 -1.8564
  346TIP3    H222454   1.786   2.428  13.632 -1.3796  0.2281  0.9772
  347TIP3   OH222455   2.106   0.898  12.552  0.0152  0.4968 -0.2148
  347TIP3    H122456   2.023   0.855  12.575  0.1251  0.9552  1.1510
  347TIP3    H222457   2.087   0.943  12.470 -0.5965 -0.7352 -0.7881
  348TIP3   OH222458   2.600   4.989   5.794  0.0107  0.1630  0.3363
  348TIP3    H122459   2.655   5.019   5.867  0.8409 -0.3744 -0.0567
  348TIP3    H222460   2.529   4.940   5.836 -0.5387  1.3728  0.8895
  349TIP3   OH222461   5.657   2.399   1.491 -0.2253 -0.0452 -0.2405
  349TIP3    H122462   5.673   2.349   1.411  2.7764 -0.3908  0.4551
  349TIP3    H222463   5.618   2.336   1.552  1.1448 -0.8695 -0.1945
  350TIP3   OH222464   2.273   2.713   0.972  0.2377 -0.1446  0.3592
  350TIP3    H122465   2.313   2.797   0.947  0.9735 -0.3836  0.7041
  350TIP3    H222466   2.284   2.708   1.067 -2.4482  0.7108  0.8019
  351TIP3   OH222467   3.884   6.445   1.266 -0.1029 -0.2229 -0.8050
  351TIP3    H122468   3.860   6.537   1.268  0.4899 -0.0764 -0.2614
  351TIP3    H222469   3.802   6.399   1.247 -0.4442  0.3962 -0.8400
  352TIP3   OH222470   0.981   1.788  15.536 -0.3423 -0.4748  0.5348
  352TIP3    H122471   1.053   1.801  15.598 -1.9104 -0.2135  2.3968
  352TIP3    H222472   0.954   1.877  15.511  0.7593 -0.5708 -1.2048
  353TIP3   OH222473   0.441   5.941   6.084 -0.2799 -0.5372 -0.0081
  353TIP3    H122474   0.475   5.907   6.167  0.0454 -0.8978 -0.2884
  353TIP3    H222475   0.347   5.922   6.088 -0.2433 -0.6837  0.2167
  354TIP3   OH222476   1.751   2.756  13.129  0.4370  0.3014  0.4315
  354TIP3    H122477   1.691   2.687  13.102  0.0314  1.4039 -1.7259
  354TIP3    H222478   1.767   2.739  13.222  1.6419 -3.6324 -0.2893
  355TIP3   OH222479   0.182   3.972   1.306  0.0235 -0.0564 -0.4249
  355TIP3    H122480   0.255   3.983   1.245 -0.1413  1.7660 -0.3509
  355TIP3    H222481   0.136   4.056   1.302 -1.2741 -0.7067  0.5519
  356TIP3   OH222482   2.189   0.352   1.095 -0.3281  0.7600  1.1271
  356TIP3    H122483   2.251   0.363   1.023  1.8971  0.0509  2.8201
  356TIP3    H222484   2.151   0.439   1.107 -0.5008  0.9739 -0.6354
  357TIP3   OH222485   2.206   2.134   5.254 -0.1653 -0.0326  0.0507
  357TIP3    H122486   2.274   2.163   5.194 -0.6063  0.9552  0.0002
  357TIP3    H222487   2.208   2.039   5.248  0.2632  0.0231 -1.0129
  358TIP3   OH222488   2.277   1.085  16.113 -0.6504 -0.5543  0.1530
  358TIP3    H122489   2.363   1.056  16.083  0.0139  1.9468 -0.6070
  358TIP3    H222490   2.221   1.078  16.035 -0.1837  1.1856 -0.3856
  359TIP3   OH222491   3.066   1.560   5.921  0.2443  0.0676 -0.0007
  359TIP3    H122492   2.992   1.608   5.959  0.4605 -1.7904  3.1155
  359TIP3    H222493   3.143   1.595   5.966  0.5445 -2.0528  1.2767
  360TIP3   OH222494   3.614   4.929  14.050  0.4489 -0.4182  0.1344
  360TIP3    H122495   3.647   4.874  13.979  2.3552 -1.0706  1.4399
  360TIP3    H222496   3.693   4.963  14.093 -0.6261  3.0694 -0.3383
  361TIP3   OH222497   1.468   6.008   3.914 -0.1107 -0.1579  0.1139
  361TIP3    H122498   1.426   5.925   3.894  1.1728 -0.6790 -0.5143
  361TIP3    H222499   1.474   6.010   4.010  0.5895 -1.1704  0.1032
  362TIP3   OH222500   5.836   0.195   3.308  0.9732 -0.2741  0.4606
  362TIP3    H122501   5.751   0.198   3.351  0.5941  0.2136 -0.2982
  362TIP3    H222502   5.868   0.286   3.310  1.7548 -0.5501  1.2670
  363TIP3   OH222503   5.911   4.185   1.247  0.4785  0.4931 -0.1151
  363TIP3    H122504   5.923   4.267   1.295 -0.3773  0.5274  0.0700
  363TIP3    H222505   5.999   4.152   1.232  0.9107  1.9969 -1.1468
  364TIP3   OH222506   0.043   3.323  14.250 -0.0356 -0.2643  0.1014
  364TIP3    H122507  -0.013   3.251  14.221  0.8414 -1.6789  1.6994
  364TIP3    H222508   0.098   3.344  14.174 -0.2036 -1.3992 -0.3472
  365TIP3   OH222509   3.454   0.852  13.541  0.5717  0.3097  0.2409
  365TIP3    H122510   3.407   0.897  13.611  0.3211 -0.4268  0.5515
  365TIP3    H222511   3.400   0.864  13.463  0.9516  1.3066  0.1122
  366TIP3   OH222512   2.151   1.413   2.801 -0.2759 -0.0237  0.2137
  366TIP3    H122513   2.075   1.434   2.856 -0.3283 -0.4922  0.3259
  366TIP3    H222514   2.180   1.498   2.767 -0.7069  0.1872  0.3574
  367TIP3   OH222515   5.536   4.832  13.105 -0.3472 -0.4578  0.1307
  367TIP3    H122516   5.540   4.742  13.138 -1.9947 -0.6859 -0.2126
  367TIP3    H222517   5.573   4.827  13.017  0.0232 -0.7056  0.3003
  368TIP3   OH222518   6.503   6.668   1.786 -0.1526 -0.1473  0.2783
  368TIP3    H122519   6.418   6.697   1.755  0.4920  1.1756 -0.3394
  368TIP3    H222520   6.513   6.579   1.751 -0.3522  0.5170 -1.5589
  369TIP3   OH222521   2.748   6.100  17.362  0.0458  1.0831  0.3758
  369TIP3    H122522   2.760   6.104  17.457  0.6606 -0.4145  0.3918
  369TIP3    H222523   2.656   6.124  17.348 -0.4086  0.0870  1.4770
  370TIP3   OH222524   3.894   1.131   3.508 -0.9553  0.3413 -0.5751
  370TIP3    H122525   3.878   1.170   3.594 -0.4244 -1.5296  0.4076
  370TIP3    H222526   3.844   1.187   3.447 -1.4758  1.5993  0.9371
  371TIP3   OH222527   5.028   2.367   2.168  0.1016  0.4719  0.1170
  371TIP3    H122528   5.122   2.357   2.154  0.2533  1.1215  0.6605
  371TIP3    H222529   4.989   2.345   2.083  0.4868 -2.9400  0.6669
  372TIP3   OH222530   1.060   0.157   0.092  0.5012  0.0841  0.2583
  372TIP3    H122531   1.066   0.094   0.164  0.0793 -0.4628 -0.1662
  372TIP3    H222532   1.088   0.107   0.015 -1.0400  0.0206 -0.2985
  373TIP3   OH222533   3.530   4.666  17.354  0.4414 -0.6204  0.4105
  373TIP3    H122534   3.557   4.748  17.395 -0.9066  0.5422 -0.9358
  373TIP3    H222535   3.520   4.606  17.428  1.2537  0.4543  1.4478
  374TIP3   OH222536   1.598   5.775  15.381 -0.1894  0.2859 -0.6928
  374TIP3    H122537   1.671   5.742  15.329  0.6794 -0.8143  1.1434
  374TIP3    H222538   1.594   5.869  15.360  1.5556  0.3049 -1.0260
  375TIP3   OH222539   0.501   3.016   4.628 -0.6187  0.2241 -0.2976
  375TIP3    H122540   0.522   2.934   4.583 -1.2462  0.6606 -1.4142
  375TIP3    H222541   0.560   3.081   4.589  1.4879 -0.0561  2.1418
  376TIP3   OH222542   3.970   2.059   6.001 -0.4353 -0.2453 -0.0503
  376TIP3    H122543   3.996   2.125   6.065  1.5467 -1.0581  0.0640
  376TIP3    H222544   3.993   1.976   6.042 -1.7925 -0.9623 -0.6793
  377TIP3   OH222545   1.618   2.028  16.425 -0.2634 -0.0852 -0.1547
  377TIP3    H122546   1.634   2.051  16.517 -0.8493  2.1514 -0.5607
  377TIP3    H222547   1.522   2.028  16.417 -0.2049  0.0649 -0.8542
  378TIP3   OH222548   5.358   4.360   2.167 -0.4079 -0.0132  0.9957
  378TIP3    H122549   5.315   4.286   2.211  0.2926 -1.5344 -0.7649
  378TIP3    H222550   5.343   4.434   2.226 -1.4814 -1.4503  2.6463
  379TIP3   OH222551   0.435   1.345   1.442 -0.2176  0.2626 -0.5955
  379TIP3    H122552   0.366   1.282   1.459  0.9434 -0.7742  0.4511
  379TIP3    H222553   0.427   1.364   1.348 -1.0281 -0.8922 -0.7795
  380TIP3   OH222554   0.845   3.884  15.147 -0.3226  0.0669  0.0460
  380TIP3    H122555   0.918   3.869  15.086 -1.1578 -0.7832 -0.7686
  380TIP3    H222556   0.817   3.796  15.172 -0.6740  0.4048  0.8413
  381TIP3   OH222557   6.453   2.726  10.851  0.4392 -0.1220 -0.6478
  381TIP3    H122558   6.452   2.724  10.755 -0.7640 -2.0199 -0.6446
  381TIP3    H222559   6.442   2.635  10.877  0.9544  0.3247  1.3193
  382TIP3   OH222560   4.085   0.383   4.091  0.6246  0.5587 -0.1085
  382TIP3    H122561   4.087   0.436   4.011  0.5261 -1.5569 -1.5821
  382TIP3    H222562   4.169   0.337   4.092 -0.5485 -1.7460 -0.6936
  383TIP3   OH222563   4.765   0.391  15.124  0.1690 -0.5226  0.1973
  383TIP3    H122564   4.808   0.343  15.194  0.6894  0.1664  0.3565
  383TIP3    H222565   4.812   0.474  15.119 -0.5553 -0.1271 -0.2391
  384TIP3   OH222566   6.336   2.641  16.812 -0.2857 -0.4176 -0.3331
  384TIP3    H122567   6.419   2.595  16.817 -0.9489 -1.6811 -0.6229
  384TIP3    H222568   6.349   2.707  16.744  0.4172 -0.6925 -0.4689
  385TIP3   OH222569   3.706   3.771  15.263  0.1800 -0.4726  0.2595
  385TIP3    H122570   3.768   3.814  15.323 -1.3701  1.0367  0.8548
  385TIP3    H222571   3.696   3.833  15.191  0.6447 -1.4830 -0.7077
  386TIP3   OH222572   6.388   2.960   5.537  0.0789  0.2909 -0.0606
  386TIP3    H122573   6.467   2.912   5.512 -0.3942 -1.0201  0.8421
  386TIP3    H222574   6.383   2.950   5.632 -1.6377 -0.4425 -0.1866
  387TIP3   OH222575   2.772   2.796   1.086  0.0759  0.8040 -0.2143
  387TIP3    H122576   2.810   2.790   1.174  1.0378 -0.1566 -0.6719
  387TIP3    H222577   2.677   2.797   1.101  0.2395  2.7389  0.9228
  388TIP3   OH222578   6.026   5.552  14.546 -0.1713 -0.3320  0.0068
  388TIP3    H122579   6.041   5.551  14.641 -0.1643 -0.2240  0.0068
  388TIP3    H222580   6.051   5.465  14.517 -0.4145 -0.4469  0.1423
  389TIP3   OH222581   1.841   6.463   2.953 -0.3096 -0.4663  0.7872
  389TIP3    H122582   1.935   6.447   2.943 -0.4247 -1.3678  1.0691
  389TIP3    H222583   1.803   6.376   2.967 -1.2579 -0.1766  0.1084
  390TIP3   OH222584   0.091   1.317  12.232  0.3867  0.1043 -0.3558
  390TIP3    H122585   0.111   1.226  12.207  0.7330  0.7910 -2.8419
  390TIP3    H222586   0.093   1.365  12.150  1.0380  2.5554  1.0011
  391TIP3   OH222587   6.652   6.258  15.175 -0.0434 -0.5417 -0.7352
  391TIP3    H122588   6.703   6.328  15.134 -1.4888  0.1905 -1.3577
  391TIP3    H222589   6.574   6.302  15.209 -0.0145 -1.5345  0.6979
  392TIP3   OH222590   4.119   5.213  12.271  0.4297 -0.5460  0.0405
  392TIP3    H122591   4.197   5.235  12.221  0.5952 -1.6410 -0.2186
  392TIP3    H222592   4.087   5.132  12.231 -0.6332 -0.3094  0.3751
  393TIP3   OH222593   1.269   4.643   6.214  0.6001 -0.0397 -0.6211
  393TIP3    H122594   1.270   4.548   6.219 -1.4831 -0.0735 -0.3297
  393TIP3    H222595   1.264   4.663   6.120 -1.1987 -0.2973 -0.6094
  394TIP3   OH222596   5.465   5.329  11.058  0.0603  0.2965 -0.4816
  394TIP3    H122597   5.543   5.320  11.003 -0.3394 -0.5095 -0.9271
  394TIP3    H222598   5.406   5.385  11.008  0.2593  0.7187 -0.2457
  395TIP3   OH222599   6.164   4.987  15.062  0.0523  0.1220 -0.5639
  395TIP3    H122600   6.231   4.921  15.083  0.1810  0.8065  1.3892
  395TIP3    H222601   6.107   4.988  15.138 -0.8481  1.1854 -1.2275
  396TIP3   OH222602   2.297   5.651   3.462  0.2244  0.2477  0.0358
  396TIP3    H122603   2.303   5.629   3.555  2.3453  0.4034  0.0017
  396TIP3    H222604   2.373   5.707   3.446  0.3358 -0.3915 -1.9414
  397TIP3   OH222605   4.737   6.272   2.352 -0.1306 -0.7740  0.2381
  397TIP3    H122606   4.746   6.341   2.286 -0.9069 -1.0011 -0.1186
  397TIP3    H222607   4.827   6.250   2.376  0.1666 -0.6849 -0.7486
  398TIP3   OH222608   3.215   6.605   3.728  0.4136  0.7273 -0.0571
  398TIP3    H122609   3.264   6.683   3.752  0.0280  1.0191 -0.2221
  398TIP3    H222610   3.137   6.637   3.684  0.0422  0.2688  0.2480
  399TIP3   OH222611   4.538   4.215  12.916  0.4852 -0.7993 -0.2792
  399TIP3    H122612   4.507   4.124  12.909  0.3706 -0.7067 -1.0725
  399TIP3    H222613   4.564   4.238  12.827 -1.4748  0.6372 -0.5509
  400TIP3   OH222614   2.674   1.258  16.510  0.1719  0.6318 -0.2406
  400TIP3    H122615   2.749   1.215  16.468  0.0780 -0.7242  0.9100
  400TIP3    H222616   2.711   1.303  16.585 -0.2007 -0.5576  0.6949
  401TIP3   OH222617   2.698   2.806   2.818  0.1612  0.0835  0.1358
  401TIP3    H122618   2.778   2.753   2.819 -0.6630 -1.2499  2.0889
  401TIP3    H222619   2.714   2.876   2.882 -0.5390 -0.7731  1.2957
  402TIP3   OH222620   4.868   4.513   6.131  0.0557 -0.1770 -0.1079
  402TIP3    H122621   4.899   4.502   6.221  1.1764 -1.1943 -0.5855
  402TIP3    H222622   4.914   4.444   6.082  0.3764  1.0966 -1.6624
  403TIP3   OH222623   3.894   6.287  12.257 -0.6375  0.2173  0.5448
  403TIP3    H122624   3.984   6.277  12.288 -0.2893  1.1764 -0.1009
  403TIP3    H222625   3.900   6.280  12.162 -1.0761  1.3470  0.4180
  404TIP3   OH222626   1.216   1.138  11.737  0.0763  0.5517  0.3824
  404TIP3    H122627   1.162   1.081  11.791 -2.2063  0.5293 -1.7615
  404TIP3    H222628   1.179   1.130  11.649  2.7452  1.6324 -0.9542
  405TIP3   OH222629   4.975   4.754   2.304 -1.1021 -0.0912 -0.4605
  405TIP3    H122630   4.941   4.682   2.357 -1.1531 -0.4179 -0.9339
  405TIP3    H222631   4.995   4.823   2.368 -0.6664 -0.6701  0.0377
  406TIP3   OH222632   2.565   0.146  12.931  0.6170  0.1207 -0.2123
  406TIP3    H122633   2.629   0.187  12.989  3.0424 -1.5802 -1.5132
  406TIP3    H222634   2.602   0.061  12.910 -0.5421  0.2983 -3.5509
  407TIP3   OH222635   2.900   5.200   6.818 -0.4383 -0.0316  0.6615
  407TIP3    H122636   2.994   5.187   6.807 -0.3407  1.2541 -0.2445
  407TIP3    H222637   2.873   5.130   6.877  1.1728 -0.1238  1.3423
  408TIP3   OH222638   0.387   4.058   1.909 -0.4180  0.4513 -0.4963
  408TIP3    H122639   0.423   4.143   1.884 -0.3483 -0.1073 -2.4128
  408TIP3    H222640   0.347   4.024   1.829 -1.6595 -0.7263  0.5850
  409TIP3   OH222641   5.089   5.081   1.784  0.2161  0.0901 -0.3012
  409TIP3    H122642   5.027   5.123   1.725  0.3638  0.5643 -0.1236
  409TIP3    H222643   5.049   4.997   1.805 -0.5222  0.5200  0.0615
  410TIP3   OH222644   6.459   6.430   6.213 -0.2095 -0.1096 -0.1792
  410TIP3    H122645   6.489   6.453   6.302  0.6751 -2.0568  0.0696
  410TIP3    H222646   6.463   6.513   6.165 -0.1661  0.8780  1.4453
  411TIP3   OH222647   2.298   1.020   0.903  1.1261  0.4692 -0.1202
  411TIP3    H122648   2.382   1.054   0.933  1.4084  0.2570 -0.6638
  411TIP3    H222649   2.308   1.009   0.809  0.0259  1.7529 -0.4195
  412TIP3   OH222650   1.381   4.897   0.130 -0.2250  0.5679 -0.1202
  412TIP3    H122651   1.296   4.853   0.133  1.0308 -2.0508  0.1399
  412TIP3    H222652   1.442   4.830   0.098  1.9914  1.8996  1.0283
  413TIP3   OH222653   2.974   0.100  15.413  0.0208  0.2213 -0.0552
  413TIP3    H122654   3.068   0.116  15.412 -0.0905  1.0699 -1.8609
  413TIP3    H222655   2.951   0.088  15.320 -0.9811 -4.3589  0.5519
  414TIP3   OH222656   5.152   3.079   5.152 -0.4355 -0.5025 -0.2802
  414TIP3    H122657   5.176   3.011   5.090  0.0438 -0.4303 -0.1779
  414TIP3    H222658   5.233   3.130   5.164  0.1268 -1.8026  2.0426
  415TIP3   OH222659   3.314   2.503   4.074 -0.4291 -0.9691 -0.2187
  415TIP3    H122660   3.393   2.483   4.024 -0.1371 -1.1013  0.2876
  415TIP3    H222661   3.292   2.592   4.050  0.8873 -0.2873  0.9468
  416TIP3   OH222662   1.263   4.835  14.335  0.3817 -0.5422  0.3798
  416TIP3    H122663   1.324   4.774  14.376  1.4415 -0.4586 -1.0161
  416TIP3    H222664   1.290   4.921  14.367  0.8755 -0.5272 -0.0607
  417TIP3   OH222665   4.545   2.569  12.556 -0.1575 -0.3880 -0.3666
  417TIP3    H122666   4.498   2.561  12.473 -1.6140 -1.3641  0.5115
  417TIP3    H222667   4.516   2.493  12.607  0.2163  0.5379  1.2717
  418TIP3   OH222668   1.324   3.041   5.008 -0.1711  0.4848 -0.3753
  418TIP3    H122669   1.345   3.127   5.043  1.3874  0.2235 -0.6190
  418TIP3    H222670   1.248   3.012   5.060 -0.1928  1.6386  0.2597
  419TIP3   OH222671   1.029   2.870  14.517  0.8565  0.1666  0.4868
  419TIP3    H122672   1.078   2.860  14.434  0.4902  1.5205  0.0896
  419TIP3    H222673   0.940   2.892  14.490  0.7156  0.5537  1.2425
  420TIP3   OH222674   5.251   3.498   6.022 -0.1573  0.3012 -0.4305
  420TIP3    H122675   5.250   3.553   5.944 -0.0215  0.9876  0.0372
  420TIP3    H222676   5.199   3.422   5.999 -1.8173  1.4235 -0.5491
  421TIP3   OH222677   5.960   2.583  16.387  0.9445  0.1213  0.5333
  421TIP3    H122678   5.987   2.630  16.309  0.3125  0.2983  0.4182
  421TIP3    H222679   6.037   2.533  16.413  0.7286 -1.1224 -1.0627
  422TIP3   OH222680   6.247   0.279   2.365  0.4636  0.2371 -0.3464
  422TIP3    H122681   6.167   0.275   2.417  0.4706 -1.2270 -0.4038
  422TIP3    H222682   6.217   0.275   2.274  0.5953 -1.2519 -0.3606
  423TIP3   OH222683   4.375   1.315  11.257 -0.4051 -0.1215  0.0363
  423TIP3    H122684   4.367   1.399  11.210 -1.9302 -0.7755 -0.9522
  423TIP3    H222685   4.426   1.259  11.198  0.1762 -0.0740  0.4771
  424TIP3   OH222686   5.153   3.405  14.592  0.3703 -0.0720 -0.1207
  424TIP3    H122687   5.174   3.324  14.546 -0.2167 -0.2683 -0.0489
  424TIP3    H222688   5.079   3.383  14.649  0.4816  0.4045  0.2188
  425TIP3   OH222689   0.990   1.074  15.695  0.6298  0.3597  0.2165
  425TIP3    H122690   1.077   1.056  15.661  0.5343  0.2837  0.0142
  425TIP3    H222691   0.978   1.010  15.766  1.2260  1.1677  1.0706
  426TIP3   OH222692   3.717   3.514  15.364 -0.0432  0.2678 -0.0164
  426TIP3    H122693   3.723   3.603  15.329 -1.6284  0.9452  1.2861
  426TIP3    H222694   3.633   3.512  15.410 -0.8850 -2.4570 -1.4678
  427TIP3   OH222695   2.043   2.939   0.300 -0.2836 -0.2905  0.1513
  427TIP3    H122696   2.093   2.978   0.372  0.1895 -1.8259  0.6933
  427TIP3    H222697   1.961   2.912   0.341  0.4577 -2.2477  0.4336
  428TIP3   OH222698   4.758   0.600  12.090 -0.0507 -0.2342 -0.8086
  428TIP3    H122699   4.848   0.578  12.114 -0.0327  0.5285 -0.1479
  428TIP3    H222700   4.740   0.547  12.013  1.3029  0.3457 -1.5441
  429TIP3   OH222701   4.406   2.044  13.542 -0.4342  0.2681  0.0755
  429TIP3    H122702   4.454   1.965  13.566 -0.2373  0.2908 -0.2419
  429TIP3    H222703   4.328   2.012  13.497 -0.2630  0.2567 -0.2172
  430TIP3   OH222704   2.902   6.176  16.157 -0.1196  0.3670  0.0560
  430TIP3    H122705   2.970   6.194  16.221  0.1692 -0.0704 -0.1179
  430TIP3    H222706   2.874   6.086  16.176  0.0645  0.1856 -0.5117
  431TIP3   OH222707   0.277   2.766   4.627 -0.3226 -0.0429  0.1733
  431TIP3    H122708   0.290   2.860   4.641  0.4517 -0.0223 -0.5968
  431TIP3    H222709   0.198   2.761   4.574 -1.1667  0.0835  1.3935
  432TIP3   OH222710   3.146   0.432   2.810 -0.1097 -0.4912  0.2012
  432TIP3    H122711   3.130   0.512   2.860  0.7621 -0.6145  0.6953
  432TIP3    H222712   3.066   0.380   2.821 -0.0724 -0.3571  1.1745
  433TIP3   OH222713   5.999   5.585  16.900 -0.1607 -0.0504 -0.2716
  433TIP3    H122714   5.957   5.500  16.887 -1.7313  0.5457  0.6357
  433TIP3    H222715   5.971   5.637  16.825  1.8308 -0.6455 -1.5182
  434TIP3   OH222716   1.190   5.173  14.082 -0.0189 -0.4253 -0.2589
  434TIP3    H122717   1.098   5.158  14.102  0.0571 -1.8741 -0.8974
  434TIP3    H222718   1.235   5.158  14.165 -0.2606 -0.8062 -0.1935
  435TIP3   OH222719   5.784   1.240  12.601 -0.2793  0.7565  0.2968
  435TIP3    H122720   5.768   1.147  12.584  0.8207  0.8072 -1.2391
  435TIP3    H222721   5.818   1.273  12.518 -1.6164  2.7734  0.4947
  436TIP3   OH222722   0.146   1.535   5.043 -0.1517  0.4460 -0.1076
  436TIP3    H122723   0.064   1.513   5.086  0.3511 -0.7831  0.2471
  436TIP3    H222724   0.122   1.601   4.978 -1.2227  0.9541  0.7753
  437TIP3   OH222725   1.734   5.824   6.709  0.7755  0.2589  0.5146
  437TIP3    H122726   1.707   5.882   6.780 -0.6478  0.3747 -0.0966
  437TIP3    H222727   1.697   5.864   6.630  0.4468 -1.0493 -0.0094
  438TIP3   OH222728   2.834   0.739  16.327 -0.2395 -0.7391 -0.3558
  438TIP3    H122729   2.761   0.695  16.283  0.1325 -0.4536 -1.2828
  438TIP3    H222730   2.827   0.830  16.299 -0.4401 -0.3759  0.7975
  439TIP3   OH222731   1.107   5.082   5.593  0.2038  0.0356 -0.4940
  439TIP3    H122732   1.117   5.044   5.680  0.4348 -1.0504 -0.9723
  439TIP3    H222733   1.090   5.007   5.536 -0.0561  0.7368 -1.3700
  440TIP3   OH222734   2.985   0.802   4.891  0.1529 -0.2386  0.7591
  440TIP3    H122735   2.908   0.855   4.908 -0.2538 -0.8862  0.9505
  440TIP3    H222736   2.993   0.745   4.967  1.0032  0.0374  0.8885
  441TIP3   OH222737   1.793   3.161   0.620 -0.0100  0.4629  0.1417
  441TIP3    H122738   1.726   3.222   0.590  0.1977  1.2825  1.2720
  441TIP3    H222739   1.861   3.164   0.552 -0.2564  1.0686 -0.0855
  442TIP3   OH222740   4.637   0.917  16.926  0.1830 -0.1472  0.3797
  442TIP3    H122741   4.714   0.955  16.970 -0.2112  1.1548 -0.0095
  442TIP3    H222742   4.665   0.905  16.835 -0.6089  2.1054 -0.2258
  443TIP3   OH222743   6.576   2.127  14.664  0.0402  0.2149 -0.1384
  443TIP3    H122744   6.559   2.158  14.753  0.1807  2.2401 -0.7549
  443TIP3    H222745   6.655   2.175  14.637  0.5396 -1.0702 -1.0319
  444TIP3   OH222746   6.194   3.195  15.453 -0.5063 -0.7630 -0.8058
  444TIP3    H122747   6.132   3.265  15.432 -0.7118 -0.9223 -0.7432
  444TIP3    H222748   6.139   3.116  15.461 -0.3394 -0.8456 -0.4171
  445TIP3   OH222749   6.256   1.293  17.260 -0.0526  0.2867  0.0557
  445TIP3    H122750   6.351   1.286  17.265 -0.1620 -0.7525  1.0194
  445TIP3    H222751   6.230   1.227  17.195 -0.1720  0.0117  0.3804
  446TIP3   OH222752   1.217   1.896   1.069 -0.0849  0.6961  0.4982
  446TIP3    H122753   1.196   1.803   1.070  3.2748 -0.2918 -2.0837
  446TIP3    H222754   1.249   1.915   1.157 -0.8318 -0.5295  1.0644
  447TIP3   OH222755   4.951   4.619   4.247  0.3189  0.2178  0.3334
  447TIP3    H122756   4.874   4.647   4.198  0.2629 -1.5829 -0.6630
  447TIP3    H222757   4.990   4.550   4.194  1.0939 -0.7847  2.1320
  448TIP3   OH222758   2.345   4.839   3.546 -0.0049  0.0139  0.0768
  448TIP3    H122759   2.432   4.869   3.521  0.1012  0.2311  0.6762
  448TIP3    H222760   2.320   4.777   3.477  0.5701  0.0374 -0.1628
  449TIP3   OH222761   5.608   0.621   5.530 -0.0836  0.1424  0.0605
  449TIP3    H122762   5.596   0.641   5.437  3.5987  0.0421 -0.6135
  449TIP3    H222763   5.633   0.704   5.569  0.3959 -0.2000  0.4958
  450TIP3   OH222764   4.298   5.771  16.683  0.1932  0.8067  0.2121
  450TIP3    H122765   4.369   5.804  16.737 -0.6180  1.0752  1.1350
  450TIP3    H222766   4.242   5.847  16.667 -0.7567  0.2586  0.8805
  451TIP3   OH222767   5.274   5.993   5.034  0.6481 -0.6421 -0.6121
  451TIP3    H122768   5.304   5.982   5.124 -1.2027  1.8173  0.3982
  451TIP3    H222769   5.239   5.907   5.009  0.4400 -1.1516  1.3030
  452TIP3   OH222770   3.068   4.366  15.859 -0.3218  0.2644 -0.1827
  452TIP3    H122771   3.014   4.400  15.788  0.1001 -0.9627 -1.1222
  452TIP3    H222772   3.078   4.440  15.919  0.1409  1.6529 -1.8817
  453TIP3   OH222773   1.365   5.910  17.256 -0.3368 -0.0217 -0.1962
  453TIP3    H122774   1.376   5.815  17.250  0.9879  0.1034 -0.0381
  453TIP3    H222775   1.273   5.922  17.277  0.1070 -1.4555  3.2040
  454TIP3   OH222776   0.876   4.585  16.486  0.3641  0.2093  1.0309
  454TIP3    H122777   0.831   4.563  16.405  2.8571  0.7821 -0.6170
  454TIP3    H222778   0.850   4.675  16.504  0.6253  0.4379  0.2753
  455TIP3   OH222779   5.861   5.014  16.565 -0.5941  0.1425 -0.1894
  455TIP3    H122780   5.829   4.939  16.615 -2.0616  1.6913  1.3303
  455TIP3    H222781   5.882   4.978  16.479 -0.9786 -2.0425  0.5519
  456TIP3   OH222782   3.134   1.936   0.919 -0.0073 -0.7460  0.2268
  456TIP3    H122783   3.158   1.853   0.879  2.1115 -0.7747  1.4004
  456TIP3    H222784   3.063   1.915   0.979 -0.3480 -1.4579 -0.4171
  457TIP3   OH222785   4.579   1.358  12.020  0.3113 -0.2470  0.0628
  457TIP3    H122786   4.663   1.321  12.047  1.3535  1.2393 -0.9833
  457TIP3    H222787   4.599   1.409  11.941 -1.7419 -0.5720 -0.7257
  458TIP3   OH222788   3.932   1.429   6.796 -0.0228 -0.1332  0.3944
  458TIP3    H122789   3.979   1.356   6.756 -1.1296 -0.2976 -0.6449
  458TIP3    H222790   4.001   1.485   6.832  0.9087 -0.9127 -0.1460
  459TIP3   OH222791   6.494   1.414   0.842 -0.0739 -0.2109  0.4393
  459TIP3    H122792   6.405   1.438   0.815 -0.1329 -1.4651 -0.6087
  459TIP3    H222793   6.481   1.356   0.917 -0.2539 -1.4375 -0.4962
  460TIP3   OH222794   3.748   3.700   3.799 -0.0152 -1.1347  0.0947
  460TIP3    H122795   3.756   3.773   3.737  0.5506 -2.7787 -1.8422
  460TIP3    H222796   3.695   3.635   3.754 -0.5850 -1.9463  1.8193
  461TIP3   OH222797   0.691   5.857  14.592 -0.4080  0.2651  0.4739
  461TIP3    H122798   0.724   5.944  14.572 -1.0882  1.1679  2.9536
  461TIP3    H222799   0.758   5.798  14.557  0.4771  1.7668 -0.5118
  462TIP3   OH222800   5.422   1.876   0.417  0.0889 -0.3197 -0.0509
  462TIP3    H122801   5.338   1.839   0.391  0.0083 -0.4828  0.4339
  462TIP3    H222802   5.426   1.960   0.370 -0.3114 -0.3406 -0.1313
  463TIP3   OH222803   5.083   1.373  16.404 -0.0387 -0.3781  0.0447
  463TIP3    H122804   5.157   1.432  16.419  0.0456 -0.4597 -0.0449
  463TIP3    H222805   5.011   1.431  16.378 -0.4668 -0.1227  1.6509
  464TIP3   OH222806   5.165   3.528  15.663  0.0136 -0.0539  0.2118
  464TIP3    H122807   5.245   3.580  15.666  0.4400 -0.7368  2.3652
  464TIP3    H222808   5.180   3.457  15.726 -1.1128 -1.9757 -1.5431
  465TIP3   OH222809   6.213   5.880   4.262 -0.0174  0.3586  0.3088
  465TIP3    H122810   6.147   5.889   4.331 -1.0590 -0.7197 -0.5041
  465TIP3    H222811   6.174   5.820   4.199  2.2533 -1.3223  0.3917
  466TIP3   OH222812   2.993   6.136   1.874 -0.2319 -0.2634 -0.4003
  466TIP3    H122813   2.942   6.217   1.884 -1.3470 -0.9180 -0.6788
  466TIP3    H222814   2.992   6.096   1.961 -1.4435 -0.9868 -0.7231
  467TIP3   OH222815   3.530   5.151   4.243  0.3211  0.3140 -1.1586
  467TIP3    H122816   3.604   5.123   4.189  1.7970 -0.7807  1.2335
  467TIP3    H222817   3.518   5.080   4.306 -0.1879  2.1415  0.9655
  468TIP3   OH222818   0.953   1.439  17.199  0.6720  0.1121  0.0211
  468TIP3    H122819   0.898   1.505  17.242 -0.4485 -0.4446 -0.5339
  468TIP3    H222820   0.940   1.359  17.250  0.1434 -0.2865 -0.7217
  469TIP3   OH222821   2.597   3.061  13.236  0.2601  0.0679  0.6353
  469TIP3    H122822   2.666   3.128  13.235  0.2684  0.0624 -0.6642
  469TIP3    H222823   2.564   3.062  13.326  2.4579 -0.4413  1.5127
  470TIP3   OH222824   2.989   3.426  12.794  0.4409  0.0539 -0.1152
  470TIP3    H122825   2.904   3.432  12.751 -0.1214 -0.4968  0.8644
  470TIP3    H222826   2.975   3.362  12.864  2.2062 -1.6571 -1.2081
  471TIP3   OH222827   4.679   3.598  14.193  0.5228  0.4067 -0.3679
  471TIP3    H122828   4.686   3.628  14.283  2.7276 -1.3529  0.1321
  471TIP3    H222829   4.752   3.640  14.147  0.2628  0.1789 -1.0132
  472TIP3   OH222830   2.832   0.430  11.626 -0.1300  0.2838  0.1736
  472TIP3    H122831   2.758   0.397  11.677  1.1294  0.1327  1.9692
  472TIP3    H222832   2.824   0.525  11.628 -1.8095  0.2786 -2.0690
  473TIP3   OH222833   0.961   3.419  16.565  0.5500 -0.7747 -0.8432
  473TIP3    H122834   0.928   3.425  16.655  0.1533  0.3709 -1.0505
  473TIP3    H222835   1.044   3.373  16.573 -0.3378 -2.3457 -0.1167
  474TIP3   OH222836   3.417   1.345   5.630  0.2820  0.0282 -0.0994
  474TIP3    H122837   3.335   1.296   5.622  0.9161 -1.1509  0.4392
  474TIP3    H222838   3.439   1.369   5.540 -0.0006 -0.7615 -0.3917
  475TIP3   OH222839   5.604   3.486  16.362 -0.1896  0.2393 -0.0960
  475TIP3    H122840   5.699   3.478  16.351  0.0008 -0.3570  1.6319
  475TIP3    H222841   5.568   3.410  16.317  0.4427 -1.4958  2.1493
  476TIP3   OH222842   3.569   5.362   6.326 -0.2465 -0.1360  0.3694
  476TIP3    H122843   3.559   5.268   6.311  0.5988 -0.0704 -0.8393
  476TIP3    H222844   3.661   5.380   6.303 -0.1381  0.8435  1.4395
  477TIP3   OH222845   2.848   6.344  12.609  0.3447  0.3885  0.2223
  477TIP3    H122846   2.910   6.336  12.681 -0.8345 -1.5921  1.0970
  477TIP3    H222847   2.857   6.262  12.560 -3.3267 -1.3086  1.9416
  478TIP3   OH222848   0.782   2.589   0.816  0.1064  0.4388  0.7457
  478TIP3    H122849   0.791   2.547   0.731  2.3900  0.0777  1.0867
  478TIP3    H222850   0.728   2.529   0.867 -0.1252 -0.0152 -0.0153
  479TIP3   OH222851   3.579   5.626  16.990 -0.2328  0.3882  0.0188
  479TIP3    H122852   3.652   5.565  16.992  0.1018  0.7435 -1.0055
  479TIP3    H222853   3.601   5.693  17.055 -0.8565 -0.8198  1.5589
  480TIP3   OH222854   3.804   3.470   2.567  0.1835  0.1052  0.1381
  480TIP3    H122855   3.846   3.554   2.584  0.9110 -0.3419  0.6371
  480TIP3    H222856   3.857   3.406   2.616 -1.5525 -0.3975  1.5047
  481TIP3   OH222857   5.846   4.454   2.818 -0.0430  0.1437  0.3505
  481TIP3    H122858   5.751   4.445   2.819 -0.1364  0.7886 -0.7143
  481TIP3    H222859   5.878   4.368   2.791 -0.4255  0.3854 -0.9232
  482TIP3   OH222860   0.972   4.148  13.181  0.1015 -0.3610  0.4035
  482TIP3    H122861   1.005   4.174  13.267 -0.9278 -0.2804  0.7845
  482TIP3    H222862   0.921   4.224  13.151  1.7860  0.2995 -1.0398
  483TIP3   OH222863   1.216   0.776   2.801 -0.3834  0.0040  0.0495
  483TIP3    H122864   1.222   0.844   2.869 -1.8929 -0.7123  0.9590
  483TIP3    H222865   1.236   0.695   2.846  1.9012 -0.1676 -1.1455
  484TIP3   OH222866   1.073   2.112   0.246  0.1732 -0.2991  0.1559
  484TIP3    H122867   1.089   2.115   0.152 -1.0009 -0.6426 -0.0661
  484TIP3    H222868   1.004   2.047   0.257 -1.8068  1.7850  0.9214
  485TIP3   OH222869   3.910   3.122   1.395 -0.2922  0.1097  0.2865
  485TIP3    H122870   3.835   3.170   1.361 -0.9416 -0.2333  1.2118
  485TIP3    H222871   3.912   3.142   1.488 -0.1534 -1.0912  0.5552
  486TIP3   OH222872   1.829   3.038   2.682 -0.3359  0.1961 -0.4034
  486TIP3    H122873   1.878   2.961   2.712 -1.2367 -0.1199  0.2987
  486TIP3    H222874   1.868   3.060   2.598  1.1445  0.0654  0.2085
  487TIP3   OH222875   4.452   2.533   3.601 -0.9630 -1.1165 -0.2635
  487TIP3    H122876   4.510   2.503   3.672  0.8835  0.7019 -0.8907
  487TIP3    H222877   4.418   2.617   3.632 -1.2733 -0.9868 -0.9360
  488TIP3   OH222878   1.565   0.691  12.581 -0.1051 -0.1569  0.4993
  488TIP3    H122879   1.523   0.744  12.649  1.6086  0.8806  0.8120
  488TIP3    H222880   1.599   0.615  12.627  2.1724  1.1467  1.1628
  489TIP3   OH222881   1.985   3.897  16.265  0.4215  0.1559  0.1932
  489TIP3    H122882   1.926   3.940  16.327  2.2645  0.6633  1.6942
  489TIP3    H222883   1.962   3.804  16.271  2.0901 -0.1750  3.5660
  490TIP3   OH222884   2.219   2.518   2.324  0.6477  0.0220  0.1383
  490TIP3    H122885   2.129   2.543   2.304  0.2116 -1.0887  0.6310
  490TIP3    H222886   2.235   2.552   2.412  1.4113  1.9350 -0.6784
  491TIP3   OH222887   6.747   1.529   0.715  0.0344 -0.3602  0.1065
  491TIP3    H122888   6.752   1.625   0.719 -0.4067 -0.3220 -0.1832
  491TIP3    H222889   6.661   1.508   0.752  0.7026 -0.7460  1.5328
  492TIP3   OH222890   6.362   1.292  14.902 -0.9486  0.4248  0.4010
  492TIP3    H122891   6.280   1.267  14.944 -0.9063 -0.5116 -0.0399
  492TIP3    H222892   6.413   1.334  14.971 -1.5225  0.3765  0.8556
  493TIP3   OH222893   0.867   2.865   3.681 -0.2491  0.3737  0.0600
  493TIP3    H122894   0.911   2.789   3.719 -0.3333  0.3344  0.0793
  493TIP3    H222895   0.928   2.937   3.693  0.5808 -0.0288 -1.4774
  494TIP3   OH222896   4.024   2.199   2.294  0.1078 -0.0253 -0.2018
  494TIP3    H122897   3.959   2.141   2.334  0.3346  0.7708  1.4323
  494TIP3    H222898   3.996   2.208   2.203 -1.9316  0.1035  0.3936
  495TIP3   OH222899   2.373   0.672   2.530 -0.6706 -0.7596 -0.0597
  495TIP3    H122900   2.291   0.630   2.507 -0.7021 -1.2611  0.9248
  495TIP3    H222901   2.405   0.624   2.607  0.4349 -0.4386 -0.2935
  496TIP3   OH222902   0.618   4.035   5.499 -0.1639  0.4171 -0.5051
  496TIP3    H122903   0.590   4.077   5.418  0.5549 -1.4524 -1.7798
  496TIP3    H222904   0.575   3.950   5.498 -1.3901  0.9139  1.8946
  497TIP3   OH222905   1.041   6.605   5.393 -0.6133  0.2927  0.1412
  497TIP3    H122906   1.119   6.621   5.341 -0.7990 -0.2724 -0.3231
  497TIP3    H222907   1.069   6.617   5.484  0.1735 -0.5586  0.0225
  498TIP3   OH222908   4.870   0.945  15.410 -0.0975 -0.4014  0.1608
  498TIP3    H122909   4.939   1.010  15.424  0.5118 -1.1830  0.8760
  498TIP3    H222910   4.914   0.861  15.421 -1.0205 -0.9295 -0.0824
  499TIP3   OH222911   2.983   1.700   5.678  0.2683  0.1545  0.2972
  499TIP3    H122912   3.042   1.666   5.746  0.7114  1.6934  0.7282
  499TIP3    H222913   2.914   1.744   5.726  1.2542  2.3673 -0.1830
  500TIP3   OH222914   2.586   3.863  12.518  0.1036  0.2229 -0.2912
  500TIP3    H122915   2.541   3.793  12.565  0.2731 -0.4140 -1.0510
  500TIP3    H222916   2.647   3.899  12.582 -1.4628  1.1225  0.7684
  501TIP3   OH222917   6.401   1.093   0.100 -0.3114  0.5776  0.0795
  501TIP3    H122918   6.387   1.000   0.115  2.0470  0.4018  1.8093
  501TIP3    H222919   6.324   1.136   0.137  0.0884 -0.5703  2.4319
  502TIP3   OH222920   2.074   5.271   1.072 -0.2638  0.2083 -0.1323
  502TIP3    H122921   2.135   5.265   1.146 -1.4038  2.9829  1.1536
  502TIP3    H222922   1.994   5.229   1.102 -0.3136  0.1694 -0.3132
  503TIP3   OH222923   3.873   2.172   1.054  0.1896 -0.2456  0.1389
  503TIP3    H122924   3.820   2.228   0.997  1.8749  2.5774  1.1206
  503TIP3    H222925   3.869   2.215   1.139  1.2599 -1.9000  1.0760
  504TIP3   OH222926   3.275   1.385   3.624  0.2190  0.0088  0.2198
  504TIP3    H122927   3.287   1.295   3.596  0.2765 -0.2048  0.9175
  504TIP3    H222928   3.360   1.411   3.660 -0.2130 -0.1607  1.4030
  505TIP3   OH222929   5.341   0.949  14.824 -0.0566  0.3904 -0.1562
  505TIP3    H122930   5.427   0.907  14.826 -0.5259 -0.6132 -0.4518
  505TIP3    H222931   5.317   0.950  14.731 -1.0218 -0.7315  0.0584
  506TIP3   OH222932   6.610   3.534  12.326 -0.1889  1.1031 -0.0818
  506TIP3    H122933   6.671   3.594  12.369 -0.7158  1.0480  0.7715
  506TIP3    H222934   6.626   3.546  12.232  1.3352  0.8741  0.1160
  507TIP3   OH222935   5.737   2.262  13.332 -0.0661 -0.2782 -0.4258
  507TIP3    H122936   5.674   2.230  13.268 -0.2364  0.7050 -0.7690
  507TIP3    H222937   5.706   2.228  13.416  0.4811 -2.0549 -0.9121
  508TIP3   OH222938   2.129   5.772   5.247 -0.3003  0.8048 -0.0877
  508TIP3    H122939   2.181   5.797   5.324  0.7856 -0.1636 -0.4757
  508TIP3    H222940   2.045   5.816   5.260  0.2067  1.4780  1.1460
  509TIP3   OH222941   5.926   4.277  15.169  0.2722  0.2169 -0.3766
  509TIP3    H122942   5.964   4.299  15.084  1.5892  0.3993  0.2349
  509TIP3    H222943   5.848   4.227  15.148  1.1644 -0.6920 -1.7110
  510TIP3   OH222944   3.570   5.028  17.333  0.2852 -0.7712 -0.3712
  510TIP3    H122945   3.491   5.060  17.291 -0.7462  0.4565  2.3372
  510TIP3    H222946   3.539   4.980  17.410  2.1253 -1.6595 -0.1282
  511TIP3   OH222947   0.499   5.685  17.157 -0.1363  0.4247  0.0401
  511TIP3    H122948   0.561   5.627  17.113 -1.3335 -0.3506 -0.6846
  511TIP3    H222949   0.434   5.626  17.196 -1.0329  1.2401 -0.1645
  512TIP3   OH222950   1.878   4.419   0.523 -0.1673 -0.1387 -0.2223
  512TIP3    H122951   1.835   4.484   0.468 -2.1517 -0.7121  0.5534
  512TIP3    H222952   1.967   4.451   0.534 -0.1575  0.7679 -2.4764
  513TIP3   OH222953   0.976   2.165  11.340  0.1656  0.5068  0.0830
  513TIP3    H122954   0.965   2.142  11.248  1.7503 -0.3050  0.0588
  513TIP3    H222955   0.944   2.254  11.347 -4.1739 -0.7918 -0.3032
  514TIP3   OH222956   4.241   3.607   0.124 -0.2966 -0.2809  0.4868
  514TIP3    H122957   4.291   3.601   0.043 -2.1042  2.7816 -1.0490
  514TIP3    H222958   4.160   3.652   0.099 -1.1981  0.2746  3.8795
  515TIP3   OH222959   4.662   0.671  11.516  0.5142  0.0764 -0.3402
  515TIP3    H122960   4.711   0.663  11.435  0.9672 -2.3707  0.1107
  515TIP3    H222961   4.605   0.594  11.518  1.4255 -0.6331  2.2253
  516TIP3   OH222962   0.130   3.294  11.871  0.0123 -0.1289 -0.3545
  516TIP3    H122963   0.050   3.339  11.844 -0.4404 -0.8537 -0.2506
  516TIP3    H222964   0.107   3.201  11.868  0.0526 -0.2879  2.0857
  517TIP3   OH222965   3.184   2.479  13.372 -0.3478  0.2456 -0.2479
  517TIP3    H122966   3.154   2.543  13.437  0.3228  1.0821 -0.7371
  517TIP3    H222967   3.244   2.528  13.316  0.1109 -0.7973 -0.7007
  518TIP3   OH222968   5.117   4.905   6.053  0.4781  0.5553  0.7126
  518TIP3    H122969   5.168   4.960   6.113  0.4019  1.2279  0.1758
  518TIP3    H222970   5.177   4.883   5.983  0.1730  0.9615  0.3148
  519TIP3   OH222971   3.659   4.345   2.103  0.0344  0.2560  0.4945
  519TIP3    H122972   3.750   4.369   2.087 -0.1081  1.2775  1.1316
  519TIP3    H222973   3.619   4.344   2.016  0.1957  1.8214  0.3604
  520TIP3   OH222974   3.391   2.806   0.078 -0.2045 -0.1729  0.4829
  520TIP3    H122975   3.330   2.847   0.138  1.1678  2.0650  0.4609
  520TIP3    H222976   3.472   2.797   0.128  0.7190  0.9766 -0.7091
  521TIP3   OH222977   1.723   0.835   0.997 -0.3490 -0.0240  0.1478
  521TIP3    H122978   1.656   0.772   1.022  1.8801 -1.8111  2.1081
  521TIP3    H222979   1.774   0.789   0.930  1.1212 -0.2444  1.3744
  522TIP3   OH222980   2.772   1.422  11.819 -0.1011  0.1767  0.0632
  522TIP3    H122981   2.782   1.456  11.731 -0.9058  0.6015  0.1282
  522TIP3    H222982   2.711   1.482  11.862 -0.7754 -0.7706  0.4871
  523TIP3   OH222983   0.638   1.935   0.230 -0.2579  0.0198 -0.2652
  523TIP3    H122984   0.732   1.953   0.236 -0.2344 -0.4670  3.1777
  523TIP3    H222985   0.628   1.848   0.268 -2.2412  0.8111  1.1813
  524TIP3   OH222986   4.079   4.255  13.774 -0.3399  0.1662  0.0746
  524TIP3    H122987   4.118   4.232  13.689 -1.9624 -3.2808  0.0838
  524TIP3    H222988   3.994   4.293  13.752 -0.7006 -0.5965  0.1229
  525TIP3   OH222989   5.430   0.051  13.859 -0.1454  0.0318 -0.1849
  525TIP3    H122990   5.391   0.129  13.821  1.9400  0.7000 -1.1113
  525TIP3    H222991   5.460   0.079  13.946  2.1356  0.8675 -1.1523
  526TIP3   OH222992   4.562   5.518   2.255 -0.1905  0.1536  0.1898
  526TIP3    H122993   4.487   5.458   2.247 -0.1560  0.1978 -0.6273
  526TIP3    H222994   4.637   5.461   2.266 -0.4543  0.1352  2.2994
  527TIP3   OH222995   6.724   5.272   2.745 -0.1510  0.6629  0.3990
  527TIP3    H122996   6.704   5.200   2.805 -0.6868 -0.2131 -0.8003
  527TIP3    H222997   6.742   5.346   2.803 -3.6344  0.6816  1.6920
  528TIP3   OH222998   2.857   6.050  14.503  0.4378 -0.4747 -0.2336
  528TIP3    H122999   2.877   5.982  14.568  1.4854 -0.0474 -0.0792
  528TIP3    H223000   2.907   6.126  14.533  0.2936 -0.0273 -1.1035
  529TIP3   OH223001   6.310   6.572   6.778  0.0180  0.1743 -0.2341
  529TIP3    H123002   6.283   6.504   6.840 -1.9316  0.7638 -0.3844
  529TIP3    H223003   6.295   6.654   6.825 -2.5096  0.6922 -1.7642
  530TIP3   OH223004   1.108   2.288   1.221  0.6646  0.4109 -0.6515
  530TIP3    H123005   1.195   2.328   1.232  1.1263 -0.1748 -1.9933
  530TIP3    H223006   1.058   2.355   1.173  0.0916  1.0812  0.8224
  531TIP3   OH223007   3.480   1.107   5.471 -0.1533  0.3793 -0.6087
  531TIP3    H123008   3.393   1.072   5.492 -0.8093  0.8956 -2.3073
  531TIP3    H223009   3.486   1.098   5.376  1.5964  0.5250 -0.5315
  532TIP3   OH223010   3.490   1.516   3.348 -0.5540  0.7160 -0.6067
  532TIP3    H123011   3.539   1.459   3.408 -1.1882 -0.5603 -1.2716
  532TIP3    H223012   3.454   1.584   3.405  1.9218  1.7198 -0.0817
  533TIP3   OH223013   0.437   1.803  14.501  0.6777  0.2089 -0.0019
  533TIP3    H123014   0.388   1.885  14.496  1.7281  0.8640  0.1367
  533TIP3    H223015   0.416   1.766  14.587 -0.3918 -0.0624 -0.3718
  534TIP3   OH223016   4.539   1.323   5.535 -0.6936 -0.3360  0.1114
  534TIP3    H123017   4.579   1.318   5.449 -3.7110 -2.7961 -1.3282
  534TIP3    H223018   4.450   1.356   5.519 -0.7018  1.1218  2.5995
  535TIP3   OH223019   1.388   3.046   0.376  0.0925 -0.0062  0.7285
  535TIP3    H123020   1.363   3.010   0.290 -1.2060  0.4692  0.8918
  535TIP3    H223021   1.305   3.075   0.415  0.5228 -1.0897  2.5599
  536TIP3   OH223022   4.055   5.647  16.816 -0.1011 -0.1349 -0.2593
  536TIP3    H123023   4.125   5.702  16.853  0.6980 -1.8544  0.8768
  536TIP3    H223024   4.069   5.652  16.721 -0.3032  1.9023 -0.2336
  537TIP3   OH223025   0.328   2.406   0.801  0.4255 -0.3193  0.2522
  537TIP3    H123026   0.413   2.405   0.845  0.6156 -0.1951 -0.1046
  537TIP3    H223027   0.266   2.432   0.869  0.4918 -1.5586  0.8070
  538TIP3   OH223028   4.453   3.871  10.544  0.5431 -0.4324 -0.1086
  538TIP3    H123029   4.398   3.795  10.522  0.2651 -0.1153 -0.5032
  538TIP3    H223030   4.393   3.945  10.545  0.9520 -0.0907 -0.4795
  539TIP3   OH223031   4.785   0.620  14.049 -0.1883 -0.6198  0.3327
  539TIP3    H123032   4.818   0.565  14.120 -0.8350 -0.5551  0.6940
  539TIP3    H223033   4.756   0.700  14.093 -0.1844 -0.4012 -0.0611
  540TIP3   OH223034   2.535   1.311   6.678  0.5232  0.6235  0.4159
  540TIP3    H123035   2.546   1.397   6.720 -0.2156  0.9329 -0.0105
  540TIP3    H223036   2.623   1.289   6.648  0.7111  1.2683  0.4605
  541TIP3   OH223037   1.852   0.374   2.425 -0.5330  0.2011  0.4683
  541TIP3    H123038   1.795   0.407   2.356 -0.2443  2.1943  1.1277
  541TIP3    H223039   1.857   0.279   2.409  0.4407  0.7156 -2.8889
  542TIP3   OH223040   3.314   6.049   3.593  0.0692 -0.4027 -0.0388
  542TIP3    H123041   3.277   6.020   3.676 -1.6516 -0.0537 -0.6350
  542TIP3    H223042   3.330   6.143   3.605  2.1920 -0.8094  0.6848
  543TIP3   OH223043   0.847   1.185  13.743 -0.3005  0.1943 -0.3774
  543TIP3    H123044   0.839   1.246  13.671  0.1795 -1.3158 -1.7693
  543TIP3    H223045   0.928   1.211  13.788 -0.0845  0.5551 -0.9745
  544TIP3   OH223046   0.994   6.010  16.903  0.4219 -0.0084 -0.0832
  544TIP3    H123047   0.971   6.095  16.864  2.5566  0.0716 -1.3265
  544TIP3    H223048   0.998   5.950  16.829 -0.2331 -1.0144  0.6808
  545TIP3   OH223049   0.816   5.284   2.517 -0.0511  0.8932  0.7419
  545TIP3    H123050   0.803   5.316   2.606 -0.7176  1.4409  0.4576
  545TIP3    H223051   0.745   5.324   2.467 -0.1768 -0.0729  0.1316
  546TIP3   OH223052   1.410   2.862  11.175  0.0475  0.1088 -0.3664
  546TIP3    H123053   1.497   2.822  11.178 -0.1863 -0.3474  1.2103
  546TIP3    H223054   1.358   2.811  11.235 -1.2283  0.6310 -0.9939
  547TIP3   OH223055   1.811   1.645  16.841 -0.4740 -0.0390  0.0547
  547TIP3    H123056   1.878   1.632  16.909 -0.9432  1.9745  0.9724
  547TIP3    H223057   1.857   1.691  16.771 -0.9248  1.7498  0.8742
  548TIP3   OH223058   5.718   0.030  16.338 -0.0069  0.2439  0.7456
  548TIP3    H123059   5.784   0.095  16.316 -0.5382  0.6012  0.1948
  548TIP3    H223060   5.655   0.077  16.393 -1.1445  0.6052 -0.8010
  549TIP3   OH223061   3.415   2.838  11.425 -0.4071 -0.1958 -0.7046
  549TIP3    H123062   3.454   2.758  11.459  1.1672  0.9700  0.3845
  549TIP3    H223063   3.360   2.871  11.496  0.8114  0.8725 -0.2102
  550TIP3   OH223064   6.109   4.782  15.519 -0.1288 -0.6104  0.0919
  550TIP3    H123065   6.126   4.854  15.579 -0.2138 -1.7436  1.5202
  550TIP3    H223066   6.140   4.704  15.565 -0.0715 -1.5067 -1.3983
  551TIP3   OH223067   1.471   4.049  15.355 -0.4290 -0.3619 -0.0239
  551TIP3    H123068   1.426   4.093  15.283  0.3840  1.9997  0.8441
  551TIP3    H223069   1.531   3.987  15.312  0.7479  1.6876 -1.4739
  552TIP3   OH223070   1.073   1.220   5.980 -0.1904 -0.7145  0.2530
  552TIP3    H123071   1.113   1.139   6.012  0.4757  0.0234  1.3740
  552TIP3    H223072   1.136   1.254   5.917 -0.9409 -1.5564 -0.9882
  553TIP3   OH223073   2.615   1.451   4.539  0.0423 -0.4235 -0.0496
  553TIP3    H123074   2.704   1.425   4.517  0.4417 -0.0192  1.0335
  553TIP3    H223075   2.624   1.510   4.613 -1.1242 -0.3091  0.0293
  554TIP3   OH223076   5.607   1.009   6.353  0.4745 -0.0169  0.2196
  554TIP3    H123077   5.598   0.974   6.264 -0.9878 -0.1444  0.4040
  554TIP3    H223078   5.520   1.002   6.391  0.7913  1.2233  1.2353
  555TIP3   OH223079   3.001   4.720   1.717 -0.1424  0.1723  0.2177
  555TIP3    H123080   2.957   4.682   1.793 -0.4144 -0.5704 -0.2975
  555TIP3    H223081   3.095   4.709   1.736 -0.2031 -1.8233 -0.3943
  556TIP3   OH223082   4.837   5.302   0.495 -0.0916  0.4057 -0.5526
  556TIP3    H123083   4.929   5.327   0.488  0.0241 -0.2369 -1.4680
  556TIP3    H223084   4.789   5.377   0.459  0.1115  0.4433 -0.7485
  557TIP3   OH223085   2.041   3.828   1.866 -0.4759 -0.5316 -0.0701
  557TIP3    H123086   2.032   3.852   1.959 -1.5283  0.7950 -0.4745
  557TIP3    H223087   1.964   3.868   1.824  2.8130  4.1792 -2.5410
  558TIP3   OH223088   1.233   1.962   2.625  0.0249  0.0338  0.2541
  558TIP3    H123089   1.237   2.056   2.643  0.5487  0.0349  0.1690
  558TIP3    H223090   1.141   1.944   2.607 -0.0967  0.5078  0.3981
  559TIP3   OH223091   0.486   3.504   1.797 -0.6561  0.2479  0.4117
  559TIP3    H123092   0.485   3.531   1.706  0.6908 -0.6658  0.0950
  559TIP3    H223093   0.532   3.420   1.797 -0.7384  0.1663  1.9091
  560TIP3   OH223094   4.993   2.950  14.861 -0.0358 -0.5795  0.3491
  560TIP3    H123095   5.034   3.031  14.833 -0.1964 -0.1771  1.2196
  560TIP3    H223096   4.914   2.943  14.807 -1.4692  1.2766  2.0518
  561TIP3   OH223097   3.002   1.385  14.379 -0.4837 -0.5316  0.8604
  561TIP3    H123098   2.980   1.351  14.292 -0.3668 -0.9693  0.9981
  561TIP3    H223099   2.918   1.408  14.418 -0.5163 -0.0681  0.5266
  562TIP3   OH223100   6.033   6.213  17.224  0.1228 -0.5261  0.3453
  562TIP3    H123101   6.062   6.148  17.287  1.8995 -0.1290 -0.0158
  562TIP3    H223102   5.979   6.273  17.275  0.8810 -0.6576  1.3266
  563TIP3   OH223103   0.907   5.218  14.084  0.3573 -0.1360  0.6767
  563TIP3    H123104   0.910   5.309  14.053  0.3658 -0.7493 -1.2416
  563TIP3    H223105   0.819   5.189  14.062  0.3021 -0.5728  1.4346
  564TIP3   OH223106   2.397   5.298   3.605 -0.2237 -0.3039 -0.0892
  564TIP3    H123107   2.463   5.257   3.661 -0.7601 -1.4350 -0.2613
  564TIP3    H223108   2.326   5.322   3.665  0.1270  0.4966  0.0256
  565TIP3   OH223109   3.100   0.301  16.860 -0.2330  0.1746  0.1358
  565TIP3    H123110   3.153   0.270  16.786  1.3657 -1.1670  1.7347
  565TIP3    H223111   3.021   0.337  16.819  1.6753  1.9011 -2.3595
  566TIP3   OH223112   6.655   5.097   1.869 -0.1710 -0.3751  0.0887
  566TIP3    H123113   6.600   5.018   1.872 -0.0176 -0.5419 -1.2369
  566TIP3    H223114   6.615   5.152   1.802  1.0529 -0.3370 -0.6439
  567TIP3   OH223115   2.519   1.437  15.943 -0.1536 -0.0023  0.5024
  567TIP3    H123116   2.463   1.406  15.872 -0.2452  0.6665  0.2739
  567TIP3    H223117   2.463   1.434  16.020 -0.7771  1.4047  0.1406
  568TIP3   OH223118   5.717   5.221   0.239 -0.2032 -0.2193 -0.0386
  568TIP3    H123119   5.664   5.300   0.239  0.2595  0.0949 -0.4108
  568TIP3    H223120   5.759   5.220   0.153  0.4173 -0.4468  0.2601
  569TIP3   OH223121   6.661   4.402   4.853 -0.0980 -0.1355 -0.0946
  569TIP3    H123122   6.692   4.450   4.930  0.6171 -0.1263 -0.3795
  569TIP3    H223123   6.565   4.404   4.860 -0.0441  0.1622  0.6088
  570TIP3   OH223124   4.705   2.517   5.394 -0.0420 -0.3782 -0.0677
  570TIP3    H123125   4.722   2.423   5.406  0.7550 -0.2840 -0.4020
  570TIP3    H223126   4.785   2.551   5.355 -0.6544  0.2873 -0.7742
  571TIP3   OH223127   0.369   4.995   0.641 -0.2658  0.3168  0.8252
  571TIP3    H123128   0.445   4.964   0.592 -0.6900 -0.4118  0.6143
  571TIP3    H223129   0.382   5.090   0.648  0.4320  0.2576  0.4007
  572TIP3   OH223130   4.790   4.619  13.362  0.4623  0.7045 -0.6879
  572TIP3    H123131   4.727   4.572  13.308  0.8610 -1.8383  0.8746
  572TIP3    H223132   4.740   4.649  13.438  0.4943  1.6485 -1.0276
  573TIP3   OH223133   0.264   3.787   6.782  0.7182  0.0295 -0.6736
  573TIP3    H123134   0.268   3.880   6.762 -0.2147  0.3920  0.7301
  573TIP3    H223135   0.175   3.761   6.758 -0.4459  0.4731  2.7037
  574TIP3   OH223136   3.671   2.411  12.366 -0.4971  0.0027  0.5476
  574TIP3    H123137   3.601   2.437  12.306 -0.0730  0.1064  0.0939
  574TIP3    H223138   3.721   2.492  12.381 -0.3295 -0.1232  0.6783
  575TIP3   OH223139   5.202   5.533  12.893 -0.0117 -0.1979  0.2036
  575TIP3    H123140   5.237   5.514  12.806 -0.9814  0.3389 -0.3236
  575TIP3    H223141   5.278   5.562  12.943  0.2675  1.3036 -1.0116
  576TIP3   OH223142   2.599   4.672   3.897 -0.3072  0.1344 -0.4091
  576TIP3    H123143   2.592   4.691   3.803  0.9085 -0.8822 -0.7322
  576TIP3    H223144   2.676   4.720   3.926 -0.9737  0.8567  0.2019
  577TIP3   OH223145   0.147   4.366   2.555  0.0784  0.2120 -0.3369
  577TIP3    H123146   0.055   4.385   2.576 -0.4285 -0.2592 -2.0276
  577TIP3    H223147   0.196   4.411   2.624 -1.4317 -0.4348  1.2609
  578TIP3   OH223148   0.442   3.270  11.539 -0.4122 -0.0204 -0.3287
  578TIP3    H123149   0.418   3.212  11.611 -0.2305 -0.8240 -0.8936
  578TIP3    H223150   0.438   3.358  11.576  0.1052 -0.4460  0.7843
  579TIP3   OH223151   6.631   4.639  13.822  0.4125 -0.6513  0.6532
  579TIP3    H123152   6.671   4.668  13.904 -0.6046 -0.0327  0.9475
  579TIP3    H223153   6.564   4.704  13.804 -0.3247 -1.5459  0.0638
  580TIP3   OH223154   4.837   1.656  13.442 -0.0414 -0.3422  0.1085
  580TIP3    H123155   4.758   1.706  13.419 -1.4285 -1.3026  2.4033
  580TIP3    H223156   4.854   1.679  13.533 -0.9923 -4.1965  1.4392
  581TIP3   OH223157   0.948   5.383  12.184  0.0916 -0.1507 -0.0576
  581TIP3    H123158   0.894   5.348  12.254 -0.6381 -1.4385 -1.2136
  581TIP3    H223159   1.038   5.365  12.211 -0.2165 -1.5966  0.0836
  582TIP3   OH223160   6.161   3.441  16.390  0.2132 -0.2217  0.7456
  582TIP3    H123161   6.087   3.446  16.451  1.3184  0.5263  2.1009
  582TIP3    H223162   6.124   3.406  16.309 -1.6936  0.4725  1.2660
  583TIP3   OH223163   0.287   0.447   4.587  0.0706  0.2276  0.5867
  583TIP3    H123164   0.212   0.387   4.590 -0.1171  0.3878 -0.5411
  583TIP3    H223165   0.361   0.393   4.615 -0.0699 -0.6046 -0.5651
  584TIP3   OH223166   5.621   2.187   3.513  0.2603 -0.4926  0.0165
  584TIP3    H123167   5.614   2.178   3.608 -0.0226 -1.2727 -0.0680
  584TIP3    H223168   5.645   2.100   3.482  3.3146  0.3839 -0.4058
  585TIP3   OH223169   5.999   5.005  11.402 -0.1628  0.2068 -0.7429
  585TIP3    H123170   5.910   4.987  11.372 -0.6275  0.4875  0.4150
  585TIP3    H223171   6.055   4.975  11.331 -1.2258  1.0503 -1.9755
  586TIP3   OH223172   3.181   2.492  11.690  0.1384  0.8319  0.0596
  586TIP3    H123173   3.134   2.409  11.698  2.4628 -0.5146  0.6095
  586TIP3    H223174   3.183   2.510  11.596 -0.1893  0.1662 -0.0789
  587TIP3   OH223175   4.675   3.623  15.797  0.3170 -0.1165 -0.2411
  587TIP3    H123176   4.603   3.575  15.754 -0.6184  0.2012  0.8963
  587TIP3    H223177   4.741   3.634  15.729 -0.3693 -1.1369 -1.1083
  588TIP3   OH223178   0.707   1.291   1.441 -0.1804 -0.1090 -0.2027
  588TIP3    H123179   0.618   1.324   1.459 -0.0017  0.7657 -0.8559
  588TIP3    H223180   0.705   1.201   1.472 -1.2591 -0.0595 -0.0643
  589TIP3   OH223181   4.108   0.061   5.143  0.7918 -0.1653  0.1144
  589TIP3    H123182   4.048   0.008   5.091 -0.1714  0.3167  0.7040
  589TIP3    H223183   4.193   0.018   5.132  1.0380  0.9397 -3.2968
  590TIP3   OH223184   2.239   0.970  11.152 -0.1458 -0.5837  0.0688
  590TIP3    H123185   2.236   0.957  11.246  0.7673 -0.0418  0.1871
  590TIP3    H223186   2.149   0.956  11.122 -0.0109 -3.2925  0.6691
  591TIP3   OH223187   4.369   0.043   3.430 -0.1412  0.5339 -0.1796
  591TIP3    H123188   4.298   0.026   3.368 -1.6005  0.2660  1.5170
  591TIP3    H223189   4.345   0.126   3.471 -1.1388 -0.9919  2.5608
  592TIP3   OH223190   2.776   6.497  11.429 -0.2554 -0.2552  0.4563
  592TIP3    H123191   2.841   6.468  11.365  0.8406 -0.5855  1.6729
  592TIP3    H223192   2.820   6.565  11.479 -2.4631  3.0685 -1.7154
  593TIP3   OH223193   5.722   6.485   2.389 -0.2456 -0.3997  0.7230
  593TIP3    H123194   5.718   6.428   2.465 -1.9630 -0.5749  0.5445
  593TIP3    H223195   5.678   6.566   2.417 -2.6597 -1.1503 -0.5742
  594TIP3   OH223196   0.995   0.064  12.131  0.2483 -0.5041 -0.1396
  594TIP3    H123197   0.976   0.158  12.126  0.5884 -0.4282 -0.0418
  594TIP3    H223198   1.087   0.060  12.158  0.6542 -0.8527 -1.5174
  595TIP3   OH223199   4.993   1.476  14.247  0.2381 -0.1944  0.2093
  595TIP3    H123200   4.905   1.500  14.217  0.2892  1.8127  1.4692
  595TIP3    H223201   5.050   1.493  14.172 -0.2554 -0.0471 -0.1346
  596TIP3   OH223202   6.485   3.407   2.282 -0.2973 -0.1752  0.2409
  596TIP3    H123203   6.396   3.375   2.266 -0.8746  1.6467 -0.4632
  596TIP3    H223204   6.506   3.459   2.204  1.0064  0.2350  0.8355
  597TIP3   OH223205   4.184   2.319   0.430  0.8991  0.4828  0.6901
  597TIP3    H123206   4.179   2.412   0.452  0.0706  0.6479 -0.0771
  597TIP3    H223207   4.166   2.273   0.512  0.3230  1.0246  0.8782
  598TIP3   OH223208   5.162   3.704  14.763  0.4876 -0.5004 -0.0704
  598TIP3    H123209   5.203   3.630  14.718  0.3292 -1.0591  0.6913
  598TIP3    H223210   5.233   3.769  14.770  0.2877  0.0008 -1.9279
  599TIP3   OH223211   0.979   3.622  13.118 -0.8084 -0.3559  0.3224
  599TIP3    H123212   1.059   3.611  13.170 -1.6135  0.3989  1.8057
  599TIP3    H223213   0.914   3.650  13.182 -1.9646  0.2082 -1.0664
  600TIP3   OH223214   1.490   3.729  14.986  0.0984 -0.4044  0.1325
  600TIP3    H123215   1.406   3.690  14.963  0.9917 -2.4374  0.0961
  600TIP3    H223216   1.503   3.799  14.921 -2.2902  1.1396  1.1767
  601TIP3   OH223217   4.587   1.731   5.128  0.0433  0.0743  0.1511
  601TIP3    H123218   4.564   1.670   5.058  0.1164  1.2487 -0.9278
  601TIP3    H223219   4.558   1.688   5.208 -2.6214 -0.1159 -0.8176
  602TIP3   OH223220   5.656   1.484  16.519 -0.5968 -0.3172  0.9257
  602TIP3    H123221   5.653   1.579  16.513 -0.3455 -0.3105  0.9204
  602TIP3    H223222   5.697   1.465  16.603 -0.9605 -0.4234  1.0836
  603TIP3   OH223223   3.610   3.303  15.743  0.2753  0.0718  0.0074
  603TIP3    H123224   3.660   3.222  15.729 -1.2514 -0.6624 -1.5493
  603TIP3    H223225   3.673   3.364  15.782  1.7804 -1.4767  0.0929
  604TIP3   OH223226   5.729   5.978  14.780 -0.1148 -0.1959  0.3061
  604TIP3    H123227   5.724   6.070  14.807 -2.8047 -0.6178  1.6388
  604TIP3    H223228   5.765   5.932  14.856 -1.9955 -0.6108  1.0079
  605TIP3   OH223229   6.453   0.615   3.589  0.1901 -0.6226  0.0805
  605TIP3    H123230   6.407   0.669   3.524  0.9567 -1.2408 -0.9892
  605TIP3    H223231   6.521   0.673   3.623 -0.2268 -0.2896  0.3655
  606TIP3   OH223232   3.097   4.579   4.634  0.1029 -0.2075  0.1806
  606TIP3    H123233   3.088   4.521   4.710 -0.8381  0.3647  0.5173
  606TIP3    H223234   3.008   4.586   4.599  0.3230  0.5254 -0.2397
  607TIP3   OH223235   1.850   2.172  17.355 -0.1307  0.7347 -0.1401
  607TIP3    H123236   1.818   2.083  17.337 -2.3558  1.4698 -0.1730
  607TIP3    H223237   1.942   2.160  17.377 -1.0778 -2.0398  3.3548
  608TIP3   OH223238   2.101   2.290   1.519 -0.4060 -0.2806  0.1547
  608TIP3    H123239   2.169   2.297   1.586 -0.6924 -0.8178  0.5124
  608TIP3    H223240   2.142   2.240   1.449 -0.5615 -1.0025  0.5629
  609TIP3   OH223241   0.835   5.519   6.438  0.1303 -0.0348 -0.6648
  609TIP3    H123242   0.860   5.429   6.458 -0.6576 -0.0621  0.2603
  609TIP3    H223243   0.758   5.535   6.493  0.8535  1.5255 -0.0585
  610TIP3   OH223244   2.314   0.332   2.672  0.2669  0.8445 -0.6232
  610TIP3    H123245   2.254   0.291   2.735  1.4617 -0.4234 -0.2530
  610TIP3    H223246   2.356   0.258   2.627  1.2267  1.6962 -1.1672
  611TIP3   OH223247   4.662   1.313  13.289  0.3931  0.1642 -0.1464
  611TIP3    H123248   4.667   1.276  13.200 -0.4812  0.8501 -0.4950
  611TIP3    H223249   4.745   1.288  13.330  1.1898  0.5623 -1.4471
  612TIP3   OH223250   5.636   3.076   3.525 -0.1228  0.3183  0.0461
  612TIP3    H123251   5.711   3.131   3.501  0.2933 -0.1469  0.2729
  612TIP3    H223252   5.632   3.010   3.457  1.5784 -1.5212  1.6053
  613TIP3   OH223253   4.416   0.166   1.543 -0.1586  0.1742 -0.6328
  613TIP3    H123254   4.410   0.234   1.475 -0.4978  1.0797  0.2779
  613TIP3    H223255   4.436   0.214   1.623 -0.3981 -0.8071  0.0296
  614TIP3   OH223256   1.372   4.566   1.811  0.4634  0.3478 -0.0663
  614TIP3    H123257   1.377   4.500   1.742  0.8052 -1.0577  1.2486
  614TIP3    H223258   1.304   4.533   1.871 -1.5215  2.7049 -0.8523
  615TIP3   OH223259   0.039   4.854   0.018  0.1248 -0.0226 -0.1649
  615TIP3    H123260   0.051   4.949   0.018 -0.6948  0.1182 -1.3790
  615TIP3    H223261   0.067   4.826   0.105 -0.9752  1.5136  0.7437
  616TIP3   OH223262   4.280   1.205   5.001  0.3918 -0.0684 -0.6419
  616TIP3    H123263   4.218   1.221   4.930  0.7407 -0.1433 -0.9691
  616TIP3    H223264   4.242   1.134   5.052  0.2486 -0.1671 -0.8871
  617TIP3   OH223265   3.589   1.747  11.023 -0.6168 -0.8696  0.2987
  617TIP3    H123266   3.628   1.737  11.110  1.9045  0.5375 -0.5533
  617TIP3    H223267   3.603   1.663  10.981  0.8246 -0.6747  0.3271
  618TIP3   OH223268   1.719   2.546  15.514 -0.1320  0.2696  0.5117
  618TIP3    H123269   1.805   2.544  15.556 -0.5707  1.6353  1.5494
  618TIP3    H223270   1.662   2.590  15.577 -0.9737  1.8263 -1.2237
  619TIP3   OH223271   5.540   6.029  11.387  0.5097  0.1864 -0.4848
  619TIP3    H123272   5.493   6.100  11.344  0.5859 -0.0967 -1.0458
  619TIP3    H223273   5.590   5.987  11.317 -0.7456 -1.4098 -0.4663
  620TIP3   OH223274   2.242   6.223   3.493  0.2168 -0.3265 -0.6560
  620TIP3    H123275   2.192   6.294   3.452  0.7476  1.1838  1.1349
  620TIP3    H223276   2.186   6.195   3.566  0.2010 -1.4934 -1.1044
  621TIP3   OH223277   2.274   2.204  12.933 -0.6579  0.2431  0.1947
  621TIP3    H123278   2.250   2.135  12.872  1.1726 -1.0877  0.8668
  621TIP3    H223279   2.322   2.158  13.003 -0.3199  2.0564  1.2109
  622TIP3   OH223280   0.159   1.004  13.819  0.0741 -0.5121 -0.0159
  622TIP3    H123281   0.208   1.034  13.743 -0.9216  3.9647  0.7901
  622TIP3    H223282   0.221   1.011  13.892 -0.1971 -0.4147  0.2065
  623TIP3   OH223283   3.299   6.070   0.052  0.0701 -0.9098 -0.3501
  623TIP3    H123284   3.316   6.128   0.127 -0.1500  1.4737 -2.0383
  623TIP3    H223285   3.219   6.024   0.076 -0.7506  0.7874  0.3953
  624TIP3   OH223286   4.147   5.660  10.588  0.1290  0.1038 -0.3874
  624TIP3    H123287   4.064   5.709  10.593  0.9240  1.6055 -1.1151
  624TIP3    H223288   4.203   5.704  10.652 -0.0845 -1.9130  1.2678
  625TIP3   OH223289   1.178   1.013   0.040  0.2496 -0.8270  0.5011
  625TIP3    H123290   1.183   1.050  -0.048 -1.4564 -1.1817  0.2259
  625TIP3    H223291   1.261   0.968   0.052  1.5565  1.3134  0.0526
  626TIP3   OH223292   2.887   5.838  16.731  0.0182  0.0137 -0.1121
  626TIP3    H123293   2.796   5.845  16.703  0.5140 -0.7034 -2.0830
  626TIP3    H223294   2.904   5.744  16.737  0.5369  0.1386  0.6159
  627TIP3   OH223295   2.017   0.626  13.609 -0.0777 -0.0334 -0.4423
  627TIP3    H123296   1.985   0.539  13.635 -0.3031 -0.1026 -0.9324
  627TIP3    H223297   1.988   0.684  13.680 -1.7028 -0.0197 -1.0671
  628TIP3   OH223298   3.441   3.550  15.472 -0.5042 -0.7005 -0.3602
  628TIP3    H123299   3.373   3.585  15.413 -0.5503 -0.2262 -0.0268
  628TIP3    H223300   3.423   3.592  15.556 -1.6959 -2.8823  0.5565
  629TIP3   OH223301   0.735   4.047  10.807  0.3276  0.1251  0.1662
  629TIP3    H123302   0.820   4.089  10.792  0.7476 -0.4153  0.9282
  629TIP3    H223303   0.739   3.966  10.757  1.0682 -0.8640  1.7544
  630TIP3   OH223304   2.771   2.153  11.252 -0.1814  0.0422 -0.0490
  630TIP3    H123305   2.682   2.119  11.254 -0.4028  0.6294  0.5934
  630TIP3    H223306   2.761   2.245  11.226  0.1194  0.3895  0.9797
  631TIP3   OH223307   6.043   5.856   4.706  0.0591  0.3241  0.0228
  631TIP3    H123308   6.038   5.836   4.612 -1.9803 -3.4828  0.7749
  631TIP3    H223309   6.000   5.941   4.714  0.0892  0.6432 -2.4316
  632TIP3   OH223310   4.754   3.600  10.785 -0.1607  0.3953  0.3100
  632TIP3    H123311   4.774   3.506  10.787  0.0527  0.4493  0.6515
  632TIP3    H223312   4.691   3.612  10.856  0.1915  0.6014  0.5877
  633TIP3   OH223313   2.699   3.074   0.034 -0.4505  0.1160 -0.0338
  633TIP3    H123314   2.664   3.109   0.116 -1.8230 -1.4672  0.0916
  633TIP3    H223315   2.760   3.005   0.061 -0.8132 -0.3282 -0.3375
  634TIP3   OH223316   2.854   4.523   0.756 -0.1777  0.0324  0.0616
  634TIP3    H123317   2.818   4.554   0.673  0.5343 -0.5938 -0.4816
  634TIP3    H223318   2.873   4.431   0.742  1.9068  0.3860  0.2391
  635TIP3   OH223319   4.723   3.704  11.166  0.0895 -0.4092 -0.2460
  635TIP3    H123320   4.630   3.728  11.161  0.1584 -0.1909 -0.5276
  635TIP3    H223321   4.728   3.618  11.125  0.1991  0.1181 -1.3607
  636TIP3   OH223322   2.439   6.108  14.262  0.4178 -0.7204  0.4000
  636TIP3    H123323   2.501   6.180  14.257 -0.9811  0.8084  2.9249
  636TIP3    H223324   2.386   6.116  14.183  1.9036 -0.6584 -0.6442
  637TIP3   OH223325   4.418   1.105  15.229  0.0679 -0.2202 -0.2549
  637TIP3    H123326   4.398   1.048  15.304 -0.8613 -0.3749 -0.6022
  637TIP3    H223327   4.500   1.070  15.194 -0.0625 -0.8398  0.0325
  638TIP3   OH223328   4.386   0.232  13.228 -0.1918 -0.0097 -0.4966
  638TIP3    H123329   4.328   0.291  13.180  0.2610  0.5182 -0.4033
  638TIP3    H223330   4.366   0.145  13.193 -0.9020  0.1879 -0.5970
  639TIP3   OH223331   1.981   2.069   3.906  0.0842 -0.1039  0.3038
  639TIP3    H123332   1.986   2.107   3.994  2.6174  0.4475  0.0002
  639TIP3    H223333   2.040   1.995   3.908  0.6024  0.2441 -1.0780
  640TIP3   OH223334   3.105   0.529   1.429 -0.8849  0.1386 -0.4779
  640TIP3    H123335   3.119   0.525   1.335  1.6946  1.7992 -0.2680
  640TIP3    H223336   3.093   0.622   1.448 -3.5362 -0.3392  0.6533
  641TIP3   OH223337   5.655   3.775  11.989  0.1541 -0.0263  0.5618
  641TIP3    H123338   5.685   3.815  11.908 -0.2236 -0.8186  0.0132
  641TIP3    H223339   5.735   3.742  12.030  0.1967 -1.0641 -0.3022
  642TIP3   OH223340   6.687   1.995  14.143  0.3826 -0.3086 -0.4188
  642TIP3    H123341   6.714   2.069  14.089  0.9858 -0.1729  0.0556
  642TIP3    H223342   6.630   2.033  14.209  0.5271 -0.3019 -0.2983
  643TIP3   OH223343   2.208   6.410  12.932 -0.6713 -0.4759  0.2801
  643TIP3    H123344   2.270   6.342  12.905 -0.6279 -0.3121 -0.0338
  643TIP3    H223345   2.241   6.440  13.017  0.4105  0.4942 -0.4433
  644TIP3   OH223346   1.973   3.145  14.441 -0.3265  0.4968  0.1372
  644TIP3    H123347   1.879   3.141  14.460 -0.2762  0.8535  0.4591
  644TIP3    H223348   2.015   3.151  14.527 -0.0408  0.9618 -0.0306
  645TIP3   OH223349   6.549   2.100  16.001 -0.2165  0.2406  0.2506
  645TIP3    H123350   6.519   2.170  15.943 -3.2444 -1.7167 -0.7648
  645TIP3    H223351   6.469   2.064  16.039  1.3382 -1.7286  1.9077
  646TIP3   OH223352   5.662   3.835   4.506  0.0930  0.0797 -0.1189
  646TIP3    H123353   5.644   3.751   4.548  2.1766 -0.0940  0.5655
  646TIP3    H223354   5.655   3.818   4.412 -1.4142 -0.3424  0.0438
  647TIP3   OH223355   5.228   0.336  11.106 -0.4961 -0.1460 -0.5019
  647TIP3    H123356   5.300   0.303  11.052 -0.4294 -0.4421 -0.2411
  647TIP3    H223357   5.259   0.422  11.136 -0.4492 -0.0694 -0.7691
  648TIP3   OH223358   0.809   2.377  16.248 -0.0981  0.5194  0.6591
  648TIP3    H123359   0.861   2.457  16.241  0.5555 -0.0166 -1.4110
  648TIP3    H223360   0.805   2.343  16.159 -1.4338 -1.1065  1.2720
  649TIP3   OH223361   3.791   0.588  12.680 -0.7153 -0.1701  0.7610
  649TIP3    H123362   3.784   0.496  12.653  1.9055 -0.2692  0.1751
  649TIP3    H223363   3.736   0.636  12.618 -0.4781 -1.1447 -0.2242
  650TIP3   OH223364   1.758   2.231  16.186  0.0690 -0.4517 -0.1437
  650TIP3    H123365   1.668   2.239  16.154 -0.0178 -1.8673 -0.3254
  650TIP3    H223366   1.749   2.192  16.273  0.4651  0.4487  0.3090
  651TIP3   OH223367   4.254   6.268   2.629 -0.6772  0.1734  0.8033
  651TIP3    H123368   4.285   6.344   2.678  1.4781  0.2705 -0.5893
  651TIP3    H223369   4.322   6.201   2.642 -1.1534 -0.5421 -0.2405
  652TIP3   OH223370   5.924   6.291  15.747 -0.0642  0.5675  0.1364
  652TIP3    H123371   5.835   6.293  15.713 -1.0761 -2.6225  2.2011
  652TIP3    H223372   5.934   6.373  15.795 -1.9428  0.9023  0.0140
  653TIP3   OH223373   0.975   2.080  16.069  0.4304 -0.4998 -0.0749
  653TIP3    H123374   1.016   2.081  16.156  1.7413  0.9521 -0.6566
  653TIP3    H223375   1.018   2.008  16.024  0.1275 -0.9223  0.3065
  654TIP3   OH223376   0.065   2.235   3.903  0.6385  0.3455 -0.1466
  654TIP3    H123377   0.116   2.197   3.831  1.7821  1.9443 -0.2295
  654TIP3    H223378   0.014   2.304   3.863 -1.2140 -0.8429  0.0523
  655TIP3   OH223379   2.174   2.942  13.639  0.6794  0.1336  0.2339
  655TIP3    H123380   2.138   3.023  13.675  0.0289  0.7153 -1.6094
  655TIP3    H223381   2.138   2.937  13.550  3.3281 -0.4596 -0.9062
  656TIP3   OH223382   0.962   4.280   6.516 -0.1617 -0.0625 -0.0656
  656TIP3    H123383   0.897   4.342   6.484  0.4840  1.8177  2.0394
  656TIP3    H223384   1.045   4.329   6.514  0.3976 -0.8829  1.4987
  657TIP3   OH223385   0.945   6.400  16.946 -0.1012 -0.1773  0.2823
  657TIP3    H123386   1.026   6.411  16.897 -0.3772  0.6837 -0.0002
  657TIP3    H223387   0.960   6.449  17.027 -0.0905 -0.5836  0.5253
  658TIP3   OH223388   6.502   2.911  17.313 -0.3460  0.1130  0.0027
  658TIP3    H123389   6.574   2.848  17.319  0.0540  0.6157  0.5210
  658TIP3    H223390   6.451   2.882  17.237  0.3196 -0.3272 -0.2793
  659TIP3   OH223391   0.896   4.169   1.637 -0.1902  0.3498 -0.6148
  659TIP3    H123392   0.889   4.253   1.592  0.0630  1.0808  0.6638
  659TIP3    H223393   0.807   4.134   1.638 -0.2747  0.5347 -1.2629
  660TIP3   OH223394   3.632   2.922   2.071  0.8464  0.1671  0.0590
  660TIP3    H123395   3.720   2.888   2.086  0.6299 -0.1048  0.7651
  660TIP3    H223396   3.615   2.977   2.147  0.8993  1.2836 -0.7004
  661TIP3   OH223397   5.348   2.031  15.977 -0.3084  0.3240  0.2097
  661TIP3    H123398   5.441   2.023  15.997 -0.4434  1.4994  1.4849
  661TIP3    H223399   5.310   1.947  16.004  0.4974 -0.5073 -1.1732
  662TIP3   OH223400   6.500   3.795  15.759  0.1167  0.0548 -0.1828
  662TIP3    H123401   6.525   3.886  15.744  0.2484 -0.0796 -0.7922
  662TIP3    H223402   6.426   3.780  15.700  2.2475 -1.2205 -2.7550
  663TIP3   OH223403   5.911   1.406  12.408 -0.3740 -0.1765  0.3423
  663TIP3    H123404   5.936   1.392  12.317 -1.7577 -0.4571 -0.0232
  663TIP3    H223405   5.914   1.501  12.420  2.5513 -0.2587  0.8672
  664TIP3   OH223406   4.777   6.620   3.719 -0.0941  0.3543 -0.1714
  664TIP3    H123407   4.691   6.624   3.676  0.4046  0.4992 -1.1735
  664TIP3    H223408   4.840   6.624   3.647  0.7955  2.2807  0.6669
  665TIP3   OH223409   4.258   5.743   5.063 -0.7398 -0.9540  0.2334
  665TIP3    H123410   4.227   5.685   4.994 -0.8722 -0.4994 -0.0979
  665TIP3    H223411   4.230   5.702   5.144 -4.5167  0.6401 -0.0567
  666TIP3   OH223412   5.722   4.109  11.767 -0.0293  0.4661 -0.4606
  666TIP3    H123413   5.652   4.098  11.831  2.4978 -1.2878  2.2660
  666TIP3    H223414   5.759   4.195  11.786  0.8281 -0.1240  0.6470
  667TIP3   OH223415   1.032   4.928   2.237 -0.1699 -0.0310 -0.2080
  667TIP3    H123416   0.965   4.926   2.305  0.0252 -1.5305 -0.0123
  667TIP3    H223417   0.997   4.985   2.170 -0.5281  1.2015  0.9771
  668TIP3   OH223418   4.497   2.743  11.900 -0.5986 -0.5423  0.6868
  668TIP3    H123419   4.551   2.698  11.835  0.1424 -0.9159  1.5406
  668TIP3    H223420   4.430   2.679  11.924 -1.1328 -0.2551 -0.0038
  669TIP3   OH223421   3.816   2.441  14.753  0.3955  0.1517  0.1163
  669TIP3    H123422   3.846   2.518  14.705  0.6016 -0.3985 -0.6521
  669TIP3    H223423   3.862   2.367  14.713 -1.0783 -0.5765 -0.3019
  670TIP3   OH223424   0.426   5.407  12.502  0.2778 -0.0727 -0.1471
  670TIP3    H123425   0.457   5.347  12.569  1.8235 -2.1953 -2.5605
  670TIP3    H223426   0.343   5.370  12.471 -0.4725  0.9385  0.5811
  671TIP3   OH223427   5.700   2.855  10.933 -0.4966  0.0786  0.4469
  671TIP3    H123428   5.783   2.882  10.972 -0.3752  0.9016 -0.3456
  671TIP3    H223429   5.719   2.770  10.893 -0.0929  0.1727  0.4367
  672TIP3   OH223430   1.196   2.184  16.285 -0.2876 -0.5139 -0.0858
  672TIP3    H123431   1.168   2.263  16.239 -3.1971 -0.5524  1.3659
  672TIP3    H223432   1.250   2.217  16.357 -0.4502  0.0257 -0.2025
  673TIP3   OH223433   4.006   3.694   3.865 -0.7407 -0.5168 -0.3092
  673TIP3    H123434   4.009   3.654   3.952 -0.9330 -1.1361 -0.5776
  673TIP3    H223435   3.915   3.722   3.855 -0.6929 -0.3464 -0.2674
  674TIP3   OH223436   4.310   3.671   2.410  0.6673  0.3832  0.4034
  674TIP3    H123437   4.218   3.646   2.403  0.6232 -0.8892  3.7545
  674TIP3    H223438   4.353   3.623   2.339 -0.8210 -1.7698  0.8469
  675TIP3   OH223439   1.749   4.305  13.267 -0.3695 -0.0130  0.0874
  675TIP3    H123440   1.700   4.256  13.333 -1.4698  0.9947  0.0586
  675TIP3    H223441   1.703   4.389  13.260  0.5238  0.4197 -0.9932
  676TIP3   OH223442   0.849   6.618   0.661  0.3504  0.6244  0.2630
  676TIP3    H123443   0.818   6.708   0.670  0.5390  0.5959  1.3206
  676TIP3    H223444   0.942   6.623   0.683  1.0494  0.6115 -2.3206
  677TIP3   OH223445   2.370   2.209  14.064  0.2664  0.4692  0.1146
  677TIP3    H123446   2.403   2.214  14.154 -2.2742 -0.0338  1.1818
  677TIP3    H223447   2.404   2.127  14.030 -0.0088 -0.1343  1.2320
  678TIP3   OH223448   3.184   1.720  15.149  0.2862 -0.4107 -0.6375
  678TIP3    H123449   3.101   1.678  15.126  0.5459 -0.3392 -1.7680
  678TIP3    H223450   3.236   1.716  15.069  0.4110  1.8097 -0.7366
  679TIP3   OH223451   5.053   1.350  13.167 -0.1746  0.1298 -0.2739
  679TIP3    H123452   5.123   1.383  13.111  0.4922  0.1319  0.5515
  679TIP3    H223453   5.008   1.285  13.112 -0.7153  1.4550 -1.4569
  680TIP3   OH223454   3.989   5.677   4.064  0.3911 -0.0730  0.1916
  680TIP3    H123455   4.030   5.735   4.129  1.3857  0.8148 -1.1774
  680TIP3    H223456   3.953   5.736   3.998 -1.0221 -0.9457  0.1409
  681TIP3   OH223457   4.751   4.785  12.963 -0.4059  0.1810  0.0683
  681TIP3    H123458   4.766   4.875  12.933 -0.9054  0.0240 -0.6954
  681TIP3    H223459   4.661   4.786  12.995 -0.4756 -0.0863 -0.1169
  682TIP3   OH223460   6.331   4.449  17.031 -0.6365  0.2110 -0.3297
  682TIP3    H123461   6.309   4.445  16.938 -0.1796 -0.6677 -0.4215
  682TIP3    H223462   6.341   4.357  17.056 -0.8219  0.4413  0.6041
  683TIP3   OH223463   0.288   1.609   2.747 -0.1392 -0.4288  0.1362
  683TIP3    H123464   0.303   1.529   2.697  0.1642 -1.0222  1.1515
  683TIP3    H223465   0.291   1.581   2.838 -3.8914  0.0021  0.5391
  684TIP3   OH223466   3.669   6.510   2.996  0.1382 -0.3834  0.3221
  684TIP3    H123467   3.673   6.470   3.083  1.7898 -0.2995  0.3059
  684TIP3    H223468   3.760   6.529   2.974 -0.4126  1.3808 -0.6068
  685TIP3   OH223469   2.227   4.588  12.086  0.2308 -0.3469 -0.0453
  685TIP3    H123470   2.271   4.529  12.147 -0.8094 -1.5321 -0.3888
  685TIP3    H223471   2.297   4.637  12.045  1.1516 -1.4614  0.1401
  686TIP3   OH223472   4.148   5.873   2.046  0.0479 -0.1836 -0.0742
  686TIP3    H123473   4.154   5.953   2.097 -2.1768  0.0009 -0.0303
  686TIP3    H223474   4.215   5.883   1.978  0.4920  1.2354  0.5334
  687TIP3   OH223475   4.501   1.845   4.137 -0.0797  0.2187 -0.7238
  687TIP3    H123476   4.550   1.845   4.055 -1.0586 -0.9123 -1.3371
  687TIP3    H223477   4.422   1.796   4.118  0.1937 -1.1127  1.2115
  688TIP3   OH223478   5.423   0.787   5.987  0.2766 -0.4893 -0.3026
  688TIP3    H123479   5.415   0.850   6.059  0.9983  1.7470 -2.0781
  688TIP3    H223480   5.506   0.808   5.946 -0.5641 -1.0404 -2.3953
  689TIP3   OH223481   6.135   6.400  16.472  0.2937 -0.5596  0.1099
  689TIP3    H123482   6.109   6.320  16.518 -0.1382 -1.6993 -2.0206
  689TIP3    H223483   6.155   6.372  16.383  0.7123  1.6323 -0.5551
  690TIP3   OH223484   5.984   1.416  10.812  0.1458  0.9568 -0.5425
  690TIP3    H123485   6.040   1.353  10.857 -0.4137  2.3151  2.2699
  690TIP3    H223486   5.912   1.364  10.776  0.3090 -0.1496  0.6702
  691TIP3   OH223487   0.158   2.386  13.596 -0.7255  0.0108  0.1595
  691TIP3    H123488   0.252   2.399  13.590 -0.8401  0.8746  0.0865
  691TIP3    H223489   0.134   2.341  13.515 -0.5567  0.9208 -0.4032
  692TIP3   OH223490   6.007   0.191  13.741  0.7639  0.1886 -0.0997
  692TIP3    H123491   6.014   0.286  13.752  0.7411  0.2269 -0.4161
  692TIP3    H223492   6.051   0.155  13.818 -1.5792  0.4654  1.4776
  693TIP3   OH223493   4.802   6.642   4.400 -0.1265  0.0668 -0.4828
  693TIP3    H123494   4.762   6.679   4.479  1.6383  1.6640 -0.2550
  693TIP3    H223495   4.803   6.548   4.415 -0.9312  0.2434  0.8481
  694TIP3   OH223496   1.068   4.429   2.876  0.4938 -0.1564 -0.4381
  694TIP3    H123497   0.973   4.414   2.867  0.4337 -0.2707  0.3605
  694TIP3    H223498   1.094   4.374   2.950  0.6870  1.9438  1.1464
  695TIP3   OH223499   1.901   2.353   1.254  0.4151  0.4759  0.1721
  695TIP3    H123500   1.973   2.298   1.223 -0.0480  0.5852 -1.1286
  695TIP3    H223501   1.943   2.415   1.314  1.2929  0.1363 -0.0731
  696TIP3   OH223502   0.196   1.040   1.931 -0.0937  0.2937  0.5595
  696TIP3    H123503   0.229   0.951   1.941  1.8300  1.2223  3.5413
  696TIP3    H223504   0.140   1.035   1.853  2.4946 -2.7506 -1.3796
  697TIP3   OH223505   4.167   3.081  12.969  0.0714  0.0025  0.0101
  697TIP3    H123506   4.213   3.017  12.914 -0.3559 -0.3497  0.0564
  697TIP3    H223507   4.091   3.106  12.917  0.4473  0.7894 -0.1820
  698TIP3   OH223508   0.997   5.433  16.560  0.3080 -0.6402 -0.0118
  698TIP3    H123509   1.002   5.361  16.623  0.8638  0.5289  1.3528
  698TIP3    H223510   0.958   5.505  16.610  0.1200  0.1279 -1.2255
  699TIP3   OH223511   5.523   0.999   2.341 -0.3194 -0.3789 -0.1881
  699TIP3    H123512   5.589   1.061   2.310  0.0504 -1.7663 -2.3576
  699TIP3    H223513   5.559   0.964   2.423  1.7701 -1.2538 -1.4240
  700TIP3   OH223514   5.878   6.739  14.143  0.4234 -0.3799 -0.2962
  700TIP3    H123515   5.868   6.772  14.054  2.1866  0.5402 -0.2066
  700TIP3    H223516   5.949   6.675  14.138  1.0040  0.1760  0.5473
  701TIP3   OH223517   4.918   4.602  11.511  0.1102  0.0310 -0.2465
  701TIP3    H123518   4.948   4.683  11.470 -1.1868  0.3169 -0.6878
  701TIP3    H223519   4.831   4.623  11.546  0.3030 -0.8035  0.8110
  702TIP3   OH223520   0.961   5.532  11.740 -0.1023  0.1629 -0.0576
  702TIP3    H123521   0.963   5.457  11.681  2.4850 -0.8230  1.1514
  702TIP3    H223522   1.036   5.585  11.714 -0.6476  1.2305  0.4936
  703TIP3   OH223523   4.495   3.614  16.787 -0.2634 -0.5447 -0.2129
  703TIP3    H123524   4.570   3.641  16.734 -0.0036 -1.0265 -0.0935
  703TIP3    H223525   4.423   3.608  16.724 -0.2772  0.2147 -0.2752
  704TIP3   OH223526   0.747   5.143   0.322  0.2325  0.0211 -0.2810
  704TIP3    H123527   0.786   5.189   0.247 -0.3812  0.5010 -0.3134
  704TIP3    H223528   0.781   5.054   0.315 -1.3862 -0.4960 -2.3108
  705TIP3   OH223529   3.527   2.324   5.890 -0.0183 -0.4660 -0.0466
  705TIP3    H123530   3.544   2.348   5.981 -0.5557  0.0394 -0.0781
  705TIP3    H223531   3.437   2.292   5.890  0.5698 -2.2040 -0.0655
  706TIP3   OH223532   3.157   4.149  12.845  0.3943 -0.1658 -0.1731
  706TIP3    H123533   3.077   4.199  12.857  0.2070 -0.8317  1.6968
  706TIP3    H223534   3.137   4.062  12.880  1.9980 -0.2684  0.5798
  707TIP3   OH223535   2.040   4.985   5.744 -0.0461  0.0013 -0.4725
  707TIP3    H123536   1.948   4.978   5.770 -0.1095 -0.2176 -0.7528
  707TIP3    H223537   2.085   4.925   5.802 -0.2960 -1.1035 -1.3920
  708TIP3   OH223538   0.030   3.985   3.008 -0.1869  0.0700  0.2495
  708TIP3    H123539  -0.056   3.966   2.970  0.1991  0.0544 -0.6307
  708TIP3    H223540   0.083   4.013   2.934  0.6185 -0.0879  0.7618
  709TIP3   OH223541   3.827   0.045  13.746  0.1943 -0.7044 -0.0874
  709TIP3    H123542   3.821   0.140  13.737  2.2154 -0.4150  1.1118
  709TIP3    H223543   3.759   0.023  13.810 -0.5816 -0.1483 -0.7004
  710TIP3   OH223544   0.580   5.414   2.469  0.0281  0.1199  0.2531
  710TIP3    H123545   0.485   5.419   2.458 -0.1795 -0.3674  1.6454
  710TIP3    H223546   0.592   5.392   2.561  1.4913 -0.0528  0.0369
  711TIP3   OH223547   3.805   1.332   5.389 -0.0817 -0.0445 -0.6399
  711TIP3    H123548   3.795   1.253   5.335 -0.0090 -0.1014 -0.5708
  711TIP3    H223549   3.825   1.298   5.476  1.7374  0.0865 -0.9765
  712TIP3   OH223550   0.289   2.465  15.913 -0.7596 -0.0946  0.0716
  712TIP3    H123551   0.352   2.517  15.864  0.4607 -1.6598 -0.1098
  712TIP3    H223552   0.257   2.524  15.981 -0.9409  1.4859 -1.3054
  713TIP3   OH223553   4.107   4.843  14.599  0.4049  0.6289 -0.1288
  713TIP3    H123554   4.035   4.871  14.655  0.5991  1.9147 -0.4839
  713TIP3    H223555   4.065   4.804  14.523  0.0109  2.2157 -0.7775
  714TIP3   OH223556   3.992   4.977   5.827 -0.3219 -0.2658 -0.2309
  714TIP3    H123557   3.981   5.032   5.750  0.7991  0.1308 -0.1345
  714TIP3    H223558   3.903   4.957   5.856 -0.7783  1.4469 -0.3208
  715TIP3   OH223559   4.490   1.012   5.906  0.1292  0.4927 -0.1586
  715TIP3    H123560   4.471   0.976   5.993  0.6943 -0.9033 -0.5810
  715TIP3    H223561   4.531   0.939   5.859  1.1279  1.6475 -1.1344
  716TIP3   OH223562   0.777   1.096  12.611  0.2542 -0.0158 -0.3801
  716TIP3    H123563   0.724   1.086  12.533  0.5487 -3.6257 -0.2943
  716TIP3    H223564   0.717   1.078  12.684  0.9955 -1.8566 -0.1592
  717TIP3   OH223565   4.254   6.106   2.143 -0.2250  0.0862  0.1925
  717TIP3    H123566   4.288   6.112   2.053 -1.8029 -0.0060 -0.4422
  717TIP3    H223567   4.324   6.144   2.197  1.3641 -1.1321 -0.8952
  718TIP3   OH223568   5.133   4.617   4.713  0.0834 -0.0534 -0.3732
  718TIP3    H123569   5.126   4.560   4.637  2.6834 -1.3267  0.2087
  718TIP3    H223570   5.198   4.683   4.688 -0.3185  0.5613  0.1628
  719TIP3   OH223571   0.093   5.609  17.149  0.0439  0.0178 -0.3175
  719TIP3    H123572   0.063   5.518  17.141 -0.4884  0.1669 -0.0994
  719TIP3    H223573   0.160   5.606  17.218 -0.8643 -0.0215  0.5947
  720TIP3   OH223574   4.324   1.245  16.399  0.3625  0.3004 -0.4412
  720TIP3    H123575   4.414   1.257  16.367  0.6441 -0.3908  0.0564
  720TIP3    H223576   4.302   1.155  16.376  0.1788  0.1375  0.3354
  721TIP3   OH223577   4.439   5.471  14.718  0.4811  0.2253  0.2284
  721TIP3    H123578   4.446   5.512  14.804  0.8373  0.3642  0.1341
  721TIP3    H223579   4.501   5.398  14.722 -0.2772 -0.4222  0.4588
  722TIP3   OH223580   0.425   6.535   2.524  0.1510 -0.5105 -0.1957
  722TIP3    H123581   0.351   6.490   2.565  1.4152 -1.0561  1.6269
  722TIP3    H223582   0.443   6.609   2.582  0.6715 -0.0510 -0.9339
  723TIP3   OH223583   5.942   4.371  15.524  0.1191 -0.0360 -0.2688
  723TIP3    H123584   5.902   4.437  15.467 -0.0385 -0.8472 -1.1184
  723TIP3    H223585   5.981   4.308  15.464  1.4708 -0.0106  0.5372
  724TIP3   OH223586   1.194   0.155  17.084  0.4199 -0.1933  0.0582
  724TIP3    H123587   1.192   0.094  17.010  3.3312  1.4915 -1.5944
  724TIP3    H223588   1.104   0.189  17.089 -1.1264 -3.8539  0.5635
  725TIP3   OH223589   0.875   0.961  14.196 -0.5692 -0.0030  0.8626
  725TIP3    H123590   0.809   0.893  14.185  1.5783 -2.4006  1.7710
  725TIP3    H223591   0.920   0.938  14.278 -1.8397  4.4692  3.1685
  726TIP3   OH223592   3.326   3.461   3.993 -0.5910  0.0024  0.4245
  726TIP3    H123593   3.297   3.414   3.915 -0.1094 -2.0162  1.3948
  726TIP3    H223594   3.264   3.533   4.003 -1.4733 -0.5267 -1.0400
  727TIP3   OH223595   2.109   2.285  15.139  0.2555  0.4828 -0.0395
  727TIP3    H123596   2.099   2.361  15.197 -1.8263  0.3972 -0.2204
  727TIP3    H223597   2.109   2.322  15.051 -0.0556  0.3303 -0.1046
  728TIP3   OH223598   4.364   2.550   2.451 -0.4361 -0.4556 -0.1374
  728TIP3    H123599   4.285   2.576   2.403 -0.2326 -0.0827 -0.2800
  728TIP3    H223600   4.436   2.592   2.403  0.1664 -3.0838 -1.7554
  729TIP3   OH223601   1.844   3.621   6.498  0.2605 -0.1516  0.3739
  729TIP3    H123602   1.784   3.640   6.426 -1.7749 -1.8918  1.5087
  729TIP3    H223603   1.847   3.526   6.503  0.9031 -0.0839  2.1642
  730TIP3   OH223604   5.329   2.714  16.606  0.0680  0.4017  0.1998
  730TIP3    H123605   5.345   2.753  16.520 -0.5380  0.7653  0.2422
  730TIP3    H223606   5.395   2.753  16.663 -0.1200  0.8887  0.0970
  731TIP3   OH223607   1.903   0.400  15.124  0.1426 -0.1623 -0.3406
  731TIP3    H123608   1.961   0.390  15.199 -1.5701 -0.5731  1.0001
  731TIP3    H223609   1.822   0.434  15.161 -0.8321 -0.5991 -1.9769
  732TIP3   OH223610   3.987   5.985   1.601 -0.1525  0.5815  0.2592
  732TIP3    H123611   4.003   5.955   1.691 -0.2659 -4.0845 -1.0340
  732TIP3    H223612   3.958   5.907   1.554  2.2996  2.1316 -4.4944
  733TIP3   OH223613   4.162   3.043  11.818  0.3560 -0.1509 -0.3056
  733TIP3    H123614   4.101   3.105  11.778  0.2202 -1.1262 -1.6763
  733TIP3    H223615   4.148   2.961  11.771  0.9974 -1.0612  1.0251
  734TIP3   OH223616   3.424   4.097  15.699  0.0576 -0.3931  0.3877
  734TIP3    H123617   3.495   4.127  15.641 -1.3300  1.8002 -0.2921
  734TIP3    H223618   3.391   4.177  15.740 -0.8331 -1.5832  2.1347
  735TIP3   OH223619   5.006   1.051   1.330  0.1318 -0.2404 -0.0025
  735TIP3    H123620   4.923   1.014   1.298 -0.2433  1.1251 -0.6739
  735TIP3    H223621   5.073   0.991   1.296 -0.5626 -1.4300  0.6482
  736TIP3   OH223622   2.008   5.158   0.350  0.2803  0.0487  0.1310
  736TIP3    H123623   1.921   5.156   0.390  0.5283  0.6879  0.7336
  736TIP3    H223624   2.046   5.240   0.381  0.3360  0.7669 -1.7640
  737TIP3   OH223625   5.866   5.054  13.587  0.7093  0.2962 -0.3266
  737TIP3    H123626   5.916   5.135  13.595  4.0850 -1.5515 -0.6144
  737TIP3    H223627   5.900   5.012  13.507 -2.5187 -0.4728 -1.4731
  738TIP3   OH223628   0.710   1.697  17.020 -0.3675 -0.4888 -0.3520
  738TIP3    H123629   0.725   1.773  16.964 -2.3734  0.0257 -0.2768
  738TIP3    H223630   0.773   1.706  17.091  1.8815 -0.8807 -2.1828
  739TIP3   OH223631   3.788   5.781   1.127  0.0807 -0.4550 -0.4226
  739TIP3    H123632   3.743   5.832   1.059  1.6172  0.4526 -0.8184
  739TIP3    H223633   3.774   5.830   1.207 -0.2140 -0.5531 -0.4128
  740TIP3   OH223634   0.963   5.419   6.208  0.0214  0.8715  0.3346
  740TIP3    H123635   1.053   5.433   6.236 -0.5795  1.9632  1.8806
  740TIP3    H223636   0.910   5.460   6.276 -1.7224 -1.5924  0.6137
  741TIP3   OH223637   4.259   2.436   7.000 -0.2310  0.0334 -0.0511
  741TIP3    H123638   4.164   2.426   7.012 -0.2526  1.2060  0.9731
  741TIP3    H223639   4.276   2.400   6.913 -1.2166 -2.4665  0.6979
  742TIP3   OH223640   1.636   0.066  15.324 -0.0716 -0.1116 -0.2585
  742TIP3    H123641   1.698   0.067  15.251 -0.1481  0.9256 -0.3190
  742TIP3    H223642   1.668   0.132  15.384 -0.4309 -0.4363  0.3008
  743TIP3   OH223643   4.315   4.206  14.630  0.2342  0.2330  0.4604
  743TIP3    H123644   4.385   4.184  14.567  0.3846 -3.3906  1.6309
  743TIP3    H223645   4.361   4.248  14.703  0.8339  0.1163  0.1572
  744TIP3   OH223646   0.599   3.130  13.627  0.2538 -0.0091  0.4369
  744TIP3    H123647   0.564   3.066  13.565  0.5077 -2.4189  2.6338
  744TIP3    H223648   0.680   3.160  13.586 -1.2642  1.1793 -1.9445
  745TIP3   OH223649   4.058   3.526   2.864  0.3078  0.1217  0.1325
  745TIP3    H123650   4.128   3.585   2.838 -0.2948  0.5577 -0.5656
  745TIP3    H223651   4.000   3.523   2.787  0.1391 -1.0897  0.2833
  746TIP3   OH223652   4.610   4.429  16.831 -0.2983  0.4273  0.4649
  746TIP3    H123653   4.607   4.431  16.735 -0.6249 -1.9179  0.3623
  746TIP3    H223654   4.701   4.406  16.852 -0.4352  0.0690  0.6757
  747TIP3   OH223655   0.666   5.869  12.273 -0.4315 -0.9881 -0.0581
  747TIP3    H123656   0.573   5.889  12.260 -0.6451 -2.0633 -0.2239
  747TIP3    H223657   0.703   5.952  12.303 -1.5961 -0.7490  0.8144
  748TIP3   OH223658   4.448   5.675  15.875 -0.0824 -0.0480 -0.2964
  748TIP3    H123659   4.437   5.745  15.940 -0.7145 -0.4438  0.0322
  748TIP3    H223660   4.361   5.666  15.836  0.2034 -0.0799 -0.9301
  749TIP3   OH223661   3.709   2.450   0.056 -0.2026  0.1259 -0.8208
  749TIP3    H123662   3.729   2.364   0.019  1.0931 -0.3173  0.7540
  749TIP3    H223663   3.794   2.493   0.063 -0.7125  1.1212 -0.6332
  750TIP3   OH223664   6.445   1.757   2.771 -0.0944 -0.0220 -0.3992
  750TIP3    H123665   6.416   1.831   2.717 -0.1688 -0.0593 -0.4102
  750TIP3    H223666   6.378   1.690   2.757 -0.0777 -0.0560 -0.3135
  751TIP3   OH223667   4.487   6.305  13.719 -0.1934 -0.2795 -0.5608
  751TIP3    H123668   4.497   6.242  13.790 -0.2049 -0.4982 -0.7534
  751TIP3    H223669   4.571   6.350  13.715  0.5955 -1.7682 -1.8435
  752TIP3   OH223670   2.101   3.296   3.558 -0.0711  0.3364  0.2574
  752TIP3    H123671   2.033   3.362   3.543  1.0182  1.6744  0.9176
  752TIP3    H223672   2.179   3.347   3.581  0.7042 -1.2206  1.2514
  753TIP3   OH223673   1.472   4.509   2.847 -0.0751  0.4452  0.5765
  753TIP3    H123674   1.457   4.603   2.854 -1.2853  0.2807  0.2765
  753TIP3    H223675   1.417   4.480   2.775  0.1133 -0.5383  0.8053
  754TIP3   OH223676   5.485   3.860   1.142  0.3996 -0.1342  0.1001
  754TIP3    H123677   5.543   3.906   1.081  0.9506  2.4831  2.3717
  754TIP3    H223678   5.544   3.825   1.209 -0.3566 -0.5146  0.5822
  755TIP3   OH223679   6.487   3.004   5.217  0.5234  0.0419 -0.0682
  755TIP3    H123680   6.524   3.005   5.305 -1.7970  1.7353  1.0054
  755TIP3    H223681   6.508   3.090   5.181 -0.9274  0.4497 -0.0085
  756TIP3   OH223682   6.663   3.065   5.410 -0.1278  0.2844 -0.0944
  756TIP3    H123683   6.755   3.058   5.387  0.3809  0.5681  1.6759
  756TIP3    H223684   6.663   3.106   5.497 -1.8141 -1.4433  0.8027
  757TIP3   OH223685   0.867   2.729   4.141  0.0422  0.3786  0.0400
  757TIP3    H123686   0.946   2.774   4.109  0.2473  0.5618  0.7734
  757TIP3    H223687   0.795   2.789   4.121  0.0080 -0.0376 -1.1418
  758TIP3   OH223688   2.414   4.216  11.776 -0.1341 -0.3870  0.4201
  758TIP3    H123689   2.327   4.175  11.769 -0.2248 -0.0643 -0.5025
  758TIP3    H223690   2.412   4.287  11.712  0.5935  0.0350  0.8508
  759TIP3   OH223691   2.774   3.971   1.576  0.3996 -0.6678  0.2223
  759TIP3    H123692   2.828   3.924   1.513  0.2361 -1.1991  0.4671
  759TIP3    H223693   2.829   4.042   1.608  0.0382  0.4397 -1.4955
  760TIP3   OH223694   1.082   0.889   5.397  0.2815  0.0027  0.2233
  760TIP3    H123695   1.034   0.939   5.462 -2.4566 -1.5150 -0.4705
  760TIP3    H223696   1.157   0.853   5.444 -0.4937  0.6049  1.9859
  761TIP3   OH223697   5.742   3.219  13.928  0.2892  0.3638 -0.2012
  761TIP3    H123698   5.704   3.188  13.846 -1.2500  2.3883 -0.2990
  761TIP3    H223699   5.829   3.250  13.904 -0.2633  1.2221 -1.1588
  762TIP3   OH223700   2.871   5.261  16.676 -0.1245  0.5922  0.5118
  762TIP3    H123701   2.793   5.277  16.729  0.4016  1.1805  1.1187
  762TIP3    H223702   2.901   5.175  16.705  0.1036  0.8680  1.0982
  763TIP3   OH223703   0.728   1.269  13.199  0.9566  1.0103  0.7432
  763TIP3    H123704   0.810   1.287  13.152  1.2578 -0.4717  0.6441
  763TIP3    H223705   0.678   1.350  13.192  1.3842  1.1396 -1.3309
  764TIP3   OH223706   3.051   0.062  11.764  0.1147  0.7455 -0.1421
  764TIP3    H123707   3.044   0.060  11.669  0.7482 -2.0433 -0.2130
  764TIP3    H223708   2.990   0.130  11.791 -1.9754 -0.0692 -2.4222
  765TIP3   OH223709   5.598   1.365   2.513 -0.1235  0.2672 -0.3117
  765TIP3    H123710   5.579   1.455   2.485 -0.7103 -0.5931 -3.0276
  765TIP3    H223711   5.691   1.353   2.493  0.3822  0.7011  1.5669
  766TIP3   OH223712   4.900   6.131  14.370  0.3313  0.3317  0.1489
  766TIP3    H123713   4.912   6.217  14.411  0.8747 -0.4203  1.6221
  766TIP3    H223714   4.880   6.072  14.443  1.4526 -1.0858 -0.6387
  767TIP3   OH223715   2.038   0.432  17.246  0.5743  0.4751  0.2893
  767TIP3    H123716   1.955   0.409  17.204 -0.0029  1.4485  0.8672
  767TIP3    H223717   2.087   0.479  17.179 -0.3161  1.9672  0.6604
  768TIP3   OH223718   5.068   5.080   4.604 -0.1483 -0.0112  0.1970
  768TIP3    H123719   5.161   5.058   4.606  0.2404  1.5785  1.5327
  768TIP3    H223720   5.055   5.124   4.519  0.9532  2.0972  1.0477
  769TIP3   OH223721   3.227   2.294   5.688  0.4524  0.3592  0.0768
  769TIP3    H123722   3.269   2.366   5.640 -0.2686  1.4024  0.9418
  769TIP3    H223723   3.186   2.241   5.620 -0.2077  1.5866 -0.5313
  770TIP3   OH223724   2.812   2.342   6.867  0.2867  0.1085 -0.0853
  770TIP3    H123725   2.721   2.328   6.895 -0.3767  1.4575 -1.4003
  770TIP3    H223726   2.805   2.366   6.775  1.8794  1.2901  0.0654
  771TIP3   OH223727   5.344   3.765  16.934  0.0280  0.2252 -0.7695
  771TIP3    H123728   5.293   3.846  16.933 -0.6631 -0.2196 -1.3912
  771TIP3    H223729   5.420   3.784  16.879  0.1908  0.6505 -0.4085
  772TIP3   OH223730   3.475   0.152   0.782  0.4894  0.7359  0.1201
  772TIP3    H123731   3.502   0.244   0.785 -2.6604  1.7852  0.7915
  772TIP3    H223732   3.380   0.155   0.797  0.4345 -2.7267  1.3368
  773TIP3   OH223733   2.801   5.803  17.315  0.1906  0.7530 -0.7364
  773TIP3    H123734   2.732   5.800  17.249 -0.0410  0.4864 -0.4843
  773TIP3    H223735   2.815   5.897  17.331 -1.7898  0.8295  0.9455
  774TIP3   OH223736   1.748   4.029   0.838 -0.3465  0.6002 -0.5156
  774TIP3    H123737   1.669   4.028   0.892  0.7718 -3.0036  1.4371
  774TIP3    H223738   1.721   3.987   0.756 -0.4171 -1.3674  0.4451
  775TIP3   OH223739   6.513   2.515   2.492  0.4192 -0.2072  0.1578
  775TIP3    H123740   6.521   2.608   2.514  1.7645  0.1674 -1.6968
  775TIP3    H223741   6.426   2.508   2.451 -0.7355 -0.3036  2.4876
  776TIP3   OH223742   0.678   2.470  13.670 -0.9045 -0.1149 -0.6220
  776TIP3    H123743   0.622   2.539  13.704 -1.0790  0.0832 -1.2843
  776TIP3    H223744   0.763   2.485  13.711 -1.1716 -0.0456 -0.0859
  777TIP3   OH223745   0.739   1.452   2.472  0.3363 -0.1435 -0.3465
  777TIP3    H123746   0.681   1.455   2.396 -0.8431 -1.4844  0.4619
  777TIP3    H223747   0.808   1.390   2.448  0.9810  0.7796 -0.9651
  778TIP3   OH223748   6.072   6.227  12.595  0.4928  0.4583 -0.2039
  778TIP3    H123749   6.033   6.238  12.681  1.0353 -0.1500  0.1246
  778TIP3    H223750   6.165   6.215  12.612  0.5829  0.1839 -0.8609
  779TIP3   OH223751   3.756   5.809   4.434  0.9068 -0.2725  0.4488
  779TIP3    H123752   3.686   5.813   4.368  1.6385 -0.3551 -0.3489
  779TIP3    H223753   3.780   5.716   4.437  2.6402  0.0637 -1.0917
  780TIP3   OH223754   3.895   5.620   6.021  0.6282 -0.1840  0.2102
  780TIP3    H123755   3.844   5.546   5.989  0.6987  0.1632 -0.7532
  780TIP3    H223756   3.891   5.614   6.116  0.5332 -1.3513  0.1401
  781TIP3   OH223757   4.336   5.374   2.091 -0.2589 -0.1302 -0.0597
  781TIP3    H123758   4.297   5.417   2.167  2.1702  0.4927  0.9241
  781TIP3    H223759   4.281   5.297   2.076 -0.7580 -0.3282  2.4062
  782TIP3   OH223760   0.036   5.467  16.087  0.2264 -0.6348  0.0434
  782TIP3    H123761   0.111   5.431  16.134  0.5976 -0.3905 -0.3584
  782TIP3    H223762   0.043   5.562  16.098 -0.5249 -0.6395  0.7545
  783TIP3   OH223763   2.698   3.422  16.641  0.6053 -0.0075  0.0278
  783TIP3    H123764   2.685   3.350  16.579 -0.9144 -0.4792  0.8229
  783TIP3    H223765   2.682   3.501  16.589  1.4061 -0.2768 -0.6479
  784TIP3   OH223766   3.915   5.327  15.218 -0.3712 -0.4942 -0.3196
  784TIP3    H123767   3.947   5.269  15.287 -1.4750 -0.4953  0.2116
  784TIP3    H223768   3.826   5.297  15.200 -1.2621  1.4610  0.4903
  785TIP3   OH223769   0.197   2.955   3.626 -0.4533  0.4648 -0.5448
  785TIP3    H123770   0.224   3.003   3.548  1.8190 -1.6223 -1.1634
  785TIP3    H223771   0.254   2.879   3.628 -2.7375 -1.3492  1.3081
  786TIP3   OH223772   0.795   4.174   0.145 -0.7478 -0.3632 -0.0734
  786TIP3    H123773   0.821   4.261   0.175 -2.7539  0.1617  0.3032
  786TIP3    H223774   0.787   4.182   0.050  0.2184 -0.5001 -0.1815
  787TIP3   OH223775   6.693   6.445   3.767  0.4235  0.3068  0.3058
  787TIP3    H123776   6.724   6.478   3.682  0.4086 -0.0734  0.1526
  787TIP3    H223777   6.661   6.357   3.748  0.4111  0.2266  0.7076
  788TIP3   OH223778   4.145   2.677  14.747  0.2731 -0.7313 -0.1553
  788TIP3    H123779   4.228   2.630  14.757  0.7451  0.2656  0.8313
  788TIP3    H223780   4.155   2.725  14.665  1.1978  0.3713  0.5822
  789TIP3   OH223781   1.905   3.093   5.139 -0.2050 -0.3697  0.5540
  789TIP3    H123782   1.922   3.180   5.103  1.5026 -1.0711 -0.4579
  789TIP3    H223783   1.969   3.036   5.096  1.9700 -1.3355  4.6217
  790TIP3   OH223784   4.000   1.035  17.333 -0.1768  0.1476 -0.6746
  790TIP3    H123785   3.935   0.981  17.380  0.8498 -0.3022  0.2799
  790TIP3    H223786   3.948   1.094  17.280 -1.4052  0.3174  0.6449
  791TIP3   OH223787   2.544   1.993   4.779  0.1498  0.1723 -0.0944
  791TIP3    H123788   2.629   2.011   4.820 -0.6772  1.8601  0.9724
  791TIP3    H223789   2.498   1.937   4.842 -1.0778  2.6749  1.3641
  792TIP3   OH223790   5.551   4.460  13.552 -0.3855  0.4036 -0.4359
  792TIP3    H123791   5.464   4.484  13.582  0.0718 -0.7904  2.1621
  792TIP3    H223792   5.538   4.426  13.463 -2.3579  1.3105 -0.5346
  793TIP3   OH223793   2.078   1.838   0.066 -0.1340 -0.3576 -0.1816
  793TIP3    H123794   2.124   1.756   0.049  1.3372 -0.0394  1.7953
  793TIP3    H223795   2.081   1.847   0.161 -2.5444  0.7403 -0.1465
  794TIP3   OH223796   5.693   1.730   4.001  0.0761 -0.0208 -0.7360
  794TIP3    H123797   5.662   1.663   3.940  1.4225 -0.2314 -1.2292
  794TIP3    H223798   5.680   1.691   4.088  0.7530 -0.9171 -1.0099
  795TIP3   OH223799   5.244   4.187   0.385 -0.0869  0.5919 -0.2587
  795TIP3    H123800   5.312   4.151   0.327 -0.2262 -0.2694  0.1053
  795TIP3    H223801   5.178   4.119   0.390 -0.1050  0.6827  0.8721
  796TIP3   OH223802   6.562   4.075  14.462 -0.3131  0.2973 -0.1347
  796TIP3    H123803   6.588   4.107  14.549  1.9665 -1.5169 -0.0656
  796TIP3    H223804   6.610   3.993  14.451 -3.4145 -1.4901 -1.6080
  797TIP3   OH223805   5.172   0.716   5.362 -0.0889 -0.2755  0.4105
  797TIP3    H123806   5.104   0.782   5.355 -0.2945 -0.5666 -0.4144
  797TIP3    H223807   5.179   0.699   5.456 -1.3070 -0.3915  0.4960
  798TIP3   OH223808   5.131   4.547  17.157 -0.3606  0.2478  0.4383
  798TIP3    H123809   5.146   4.615  17.091  1.5935 -0.0138  0.5643
  798TIP3    H223810   5.216   4.536  17.200 -1.1771 -0.7836  1.8637
  799TIP3   OH223811   5.440   3.103   5.189  0.1643  0.5107  0.6894
  799TIP3    H123812   5.504   3.046   5.146 -1.1163 -0.3959 -0.0782
  799TIP3    H223813   5.433   3.069   5.278 -1.2105 -1.1326  0.0071
  800TIP3   OH223814   4.207   2.652   5.125 -0.8072  0.0219  0.3242
  800TIP3    H123815   4.184   2.728   5.072  0.7158  0.0844 -0.2955
  800TIP3    H223816   4.138   2.588   5.106 -0.7452  0.3439 -1.1236
  801TIP3   OH223817   4.565   4.151   3.438  0.0264  0.0500  0.4042
  801TIP3    H123818   4.566   4.211   3.512  1.1387  0.0507  0.4055
  801TIP3    H223819   4.594   4.067   3.474 -0.4330 -0.2185  0.1691
  802TIP3   OH223820   1.947   5.162  15.490 -0.2396  0.0576 -0.0966
  802TIP3    H123821   1.940   5.201  15.577  0.6611 -0.6223  0.2924
  802TIP3    H223822   1.861   5.122  15.475 -1.1085  1.9469 -0.4135
  803TIP3   OH223823   1.721   5.719  14.917 -0.1730  0.0538  1.0651
  803TIP3    H123824   1.809   5.734  14.882 -0.3254 -0.8091  0.2690
  803TIP3    H223825   1.670   5.793  14.886 -0.1127 -0.2925  0.0934
  804TIP3   OH223826   6.423   0.940  13.012 -0.4064  0.5005 -0.4245
  804TIP3    H123827   6.468   1.021  13.037  2.3568 -1.3837  1.1966
  804TIP3    H223828   6.446   0.928  12.919  0.2144  0.9134 -0.3313
  805TIP3   OH223829   2.842   0.310  15.541  0.4130  0.1187 -0.3119
  805TIP3    H123830   2.882   0.230  15.507 -0.8371 -1.5511  1.8895
  805TIP3    H223831   2.912   0.375  15.536  2.3145 -1.7756  0.1374
  806TIP3   OH223832   6.449   0.289   5.432  0.2420  0.0217 -0.6131
  806TIP3    H123833   6.532   0.255   5.398 -0.0567  1.4574 -2.9733
  806TIP3    H223834   6.465   0.382   5.449  0.0969 -0.4099  2.5369
  807TIP3   OH223835   0.182   2.553   4.348  0.1775 -0.3547 -0.2067
  807TIP3    H123836   0.138   2.500   4.281  2.3112 -0.4372 -1.6558
  807TIP3    H223837   0.180   2.642   4.313 -0.4967 -0.0226  0.6396
  808TIP3   OH223838   4.555   5.385  12.358  0.0003  1.0449 -0.4810
  808TIP3    H123839   4.618   5.397  12.287 -0.8724  0.1074 -1.4341
  808TIP3    H223840   4.469   5.402  12.318 -0.6371 -0.9451 -0.0441
  809TIP3   OH223841   4.385   4.578   5.240 -0.2680 -0.3345  0.5201
  809TIP3    H123842   4.318   4.525   5.284 -2.2971  2.5549  1.1701
  809TIP3    H223843   4.450   4.596   5.307  0.4890 -1.9126  0.2749
  810TIP3   OH223844   1.242   4.094  15.867 -0.4551  0.3481 -0.3336
  810TIP3    H123845   1.271   4.157  15.801 -1.7774  0.1662 -1.1294
  810TIP3    H223846   1.203   4.023  15.816 -1.1540  0.0218  0.6330
  811TIP3   OH223847   3.581   4.718  14.744 -0.0989 -0.2156  0.0394
  811TIP3    H123848   3.538   4.801  14.724  1.4540 -0.0459 -3.1734
  811TIP3    H223849   3.515   4.651  14.727 -0.6468  0.2436  0.3430
  812TIP3   OH223850   3.749   5.432  13.327 -0.0142 -0.1951 -0.3755
  812TIP3    H123851   3.668   5.409  13.282 -0.5958 -0.2214  0.6529
  812TIP3    H223852   3.721   5.481  13.405  0.9569 -0.1840 -0.0111
  813TIP3   OH223853   5.609   0.513  13.962  0.0833 -0.4474  0.8944
  813TIP3    H123854   5.679   0.512  14.027 -0.9487 -1.0383  2.0360
  813TIP3    H223855   5.651   0.486  13.881  0.9702 -1.9507  1.8069
  814TIP3   OH223856   2.496   3.829   4.582 -0.4948 -0.3197  0.1849
  814TIP3    H123857   2.583   3.856   4.552 -1.1732 -0.0347 -1.6386
  814TIP3    H223858   2.495   3.851   4.676  0.8672  1.0392 -0.0861
  815TIP3   OH223859   0.238   0.663   5.543 -0.1800 -0.1426 -0.3109
  815TIP3    H123860   0.154   0.617   5.539  0.7042 -2.0849  1.3562
  815TIP3    H223861   0.225   0.730   5.611  0.1707 -1.8735  1.5607
  816TIP3   OH223862   2.703   0.993   0.224  0.1557  0.7645 -0.3041
  816TIP3    H123863   2.689   0.898   0.215  3.1427 -0.4981  4.2889
  816TIP3    H223864   2.637   1.020   0.288 -0.9523  2.0171 -1.8988
  817TIP3   OH223865   1.266   2.241   0.432  0.0962 -0.6395  0.3514
  817TIP3    H123866   1.218   2.186   0.371  0.3010 -1.4062  0.8535
  817TIP3    H223867   1.353   2.250   0.393 -0.4166  0.6868 -0.5200
  818TIP3   OH223868   3.849   0.850   4.896  0.4078 -0.2625  0.5950
  818TIP3    H123869   3.860   0.858   4.801  1.2227  2.3322  0.8362
  818TIP3    H223870   3.774   0.791   4.907  0.3930 -0.7448 -1.6318
  819TIP3   OH223871   5.569   0.104  16.098 -0.9763  0.1896  0.3591
  819TIP3    H123872   5.644   0.055  16.132 -1.4934 -1.1634 -0.3880
  819TIP3    H223873   5.508   0.108  16.172 -0.4366  0.7578  0.7802
  820TIP3   OH223874   2.840   0.373   6.473 -0.2581 -0.6811  0.3379
  820TIP3    H123875   2.890   0.368   6.392 -1.0457 -0.9776 -0.1474
  820TIP3    H223876   2.904   0.356   6.542  0.7619  1.1984 -0.0766
  821TIP3   OH223877   0.801   5.395   4.084 -0.5859 -0.5143 -0.5153
  821TIP3    H123878   0.782   5.440   4.002 -1.5169 -1.0681 -0.6175
  821TIP3    H223879   0.775   5.457   4.152  2.1109  0.8003 -0.5508
  822TIP3   OH223880   3.231   5.685  12.268 -0.1547  0.1363 -0.3988
  822TIP3    H123881   3.292   5.636  12.213 -0.5912 -1.3161  0.3796
  822TIP3    H223882   3.152   5.692  12.215 -0.2237 -0.3525 -0.3640
  823TIP3   OH223883   0.480   2.734   2.906 -0.1242 -0.4408 -0.5889
  823TIP3    H123884   0.560   2.772   2.869  1.9096 -2.7100  1.1038
  823TIP3    H223885   0.430   2.809   2.938  2.1831  0.9989 -0.1400
  824TIP3   OH223886   0.756   5.572   1.278 -0.1087  0.4204  0.3820
  824TIP3    H123887   0.851   5.563   1.271 -0.1398  0.8321 -0.7920
  824TIP3    H223888   0.739   5.664   1.257 -0.8548  0.0962 -0.4857
  825TIP3   OH223889   5.636   6.331   4.953 -0.0265 -0.1729  0.4089
  825TIP3    H123890   5.582   6.392   5.003  0.3803 -0.1617  0.8432
  825TIP3    H223891   5.575   6.262   4.926  0.3434 -2.2047  4.1231
  826TIP3   OH223892   6.087   6.458  15.102 -0.3560  0.1693  0.8849
  826TIP3    H123893   6.027   6.398  15.147 -0.7208 -0.0683  0.1101
  826TIP3    H223894   6.050   6.466  15.014  2.5671 -2.8012 -0.8686
  827TIP3   OH223895   2.961   0.402  11.876  0.5570  0.3238  0.1097
  827TIP3    H123896   2.930   0.457  11.947  0.9856  0.2526  0.3515
  827TIP3    H223897   2.901   0.420  11.804 -1.3375 -1.2997  1.1654
  828TIP3   OH223898   4.411   0.872  13.978 -0.4864  0.4005 -0.4227
  828TIP3    H123899   4.407   0.788  14.024 -1.3701  0.4812 -0.3346
  828TIP3    H223900   4.345   0.926  14.020  1.5597  1.9329  0.9892
  829TIP3   OH223901   5.911   5.307   3.694 -0.0523 -0.6103 -0.7051
  829TIP3    H123902   5.915   5.399   3.722  1.0459 -0.3434 -1.6540
  829TIP3    H223903   5.920   5.257   3.775 -1.6903  0.0929 -0.0457
  830TIP3   OH223904   3.198   5.943   2.620 -0.1533  0.3555  0.1985
  830TIP3    H123905   3.288   5.917   2.599 -0.5561 -1.5656  0.6484
  830TIP3    H223906   3.201   5.963   2.714 -0.2533 -0.0192  0.2830
  831TIP3   OH223907   1.183   2.767   2.368 -0.3585  0.0294  0.3883
  831TIP3    H123908   1.274   2.749   2.346  0.3638  0.9967  2.2944
  831TIP3    H223909   1.132   2.726   2.298  1.5068 -0.9697 -0.4545
  832TIP3   OH223910   0.949   6.542  14.133 -0.4626 -0.2477 -0.0765
  832TIP3    H123911   0.905   6.536  14.218 -2.8536  0.6036 -1.1777
  832TIP3    H223912   0.927   6.461  14.088 -0.5462 -0.0115 -0.4717
  833TIP3   OH223913   2.002   5.738  14.813  0.1336  0.5744  0.5232
  833TIP3    H123914   1.941   5.704  14.748  2.0165 -1.2980 -0.3943
  833TIP3    H223915   2.072   5.779  14.762  1.1370 -0.0146  1.3659
  834TIP3   OH223916   3.435   4.030   2.068  0.4911  0.9305  0.1441
  834TIP3    H123917   3.438   4.085   2.147  1.1574 -0.0223  0.8047
  834TIP3    H223918   3.496   4.071   2.007 -0.1574  1.7722  0.0458
  835TIP3   OH223919   5.207   5.945  12.097 -0.4102  0.0561 -0.2214
  835TIP3    H123920   5.228   6.035  12.123 -0.8401  0.5424 -1.5270
  835TIP3    H223921   5.139   5.953  12.031 -0.6159 -1.2492 -0.2052
  836TIP3   OH223922   6.037   2.782   4.414  1.0867 -0.2364 -0.8842
  836TIP3    H123923   6.074   2.761   4.500  1.5144  0.2797 -0.9392
  836TIP3    H223924   6.099   2.844   4.375  0.2821  0.4814 -1.0612
  837TIP3   OH223925   4.718   0.328   0.381 -0.1596  0.4426 -0.3422
  837TIP3    H123926   4.781   0.376   0.435 -1.6328  0.0577  1.8985
  837TIP3    H223927   4.669   0.397   0.336  0.1767  0.8696 -0.0727
  838TIP3   OH223928   3.254   3.011   0.243  0.3158 -0.2615 -0.2091
  838TIP3    H123929   3.283   3.081   0.301 -0.2327  0.6445 -0.9702
  838TIP3    H223930   3.218   2.944   0.301  1.8183 -0.4101  0.5989
  839TIP3   OH223931   0.079   0.453   0.308  0.5431 -0.4262  0.4184
  839TIP3    H123932   0.125   0.486   0.231  0.6292  0.8498  0.9901
  839TIP3    H223933   0.058   0.362   0.287 -1.0554  0.4019 -1.8320
  840TIP3   OH223934   0.579   6.152  13.876 -0.4081  0.3092 -0.5261
  840TIP3    H123935   0.550   6.078  13.823 -1.8388  0.1635  0.3833
  840TIP3    H223936   0.568   6.228  13.819 -0.6439  0.0125 -0.8799
  841TIP3   OH223937   2.866   0.281   2.145 -0.5717  0.0283 -0.3971
  841TIP3    H123938   2.909   0.224   2.081  0.7386 -0.5679  0.9453
  841TIP3    H223939   2.910   0.261   2.228 -3.0468 -0.1519  0.9690
  842TIP3   OH223940   2.840   1.552  14.522 -0.6138  0.2636 -0.4720
  842TIP3    H123941   2.757   1.585  14.486 -1.8142 -2.8207 -0.8638
  842TIP3    H223942   2.905   1.616  14.495 -2.5747  1.8270 -1.8188
  843TIP3   OH223943   4.324   2.012  15.661 -0.1089  0.2558 -0.1014
  843TIP3    H123944   4.263   1.995  15.589 -2.0854  0.5383  1.4167
  843TIP3    H223945   4.317   2.106  15.676  1.8373  0.5622 -0.7989
  844TIP3   OH223946   0.213   3.705   0.573 -0.9775 -0.3556  0.4597
  844TIP3    H123947   0.149   3.656   0.522 -1.0113  0.8929 -0.7648
  844TIP3    H223948   0.171   3.789   0.590  0.0554  0.2313  0.2173
  845TIP3   OH223949   2.673   4.137  10.583 -0.1561  0.0452  0.2007
  845TIP3    H123950   2.663   4.092  10.667  1.4095 -0.1554  0.3080
  845TIP3    H223951   2.586   4.132  10.543 -0.6589 -0.8062  1.3363
  846TIP3   OH223952   3.770   5.508  16.655  0.2116  0.6204  0.1126
  846TIP3    H123953   3.791   5.444  16.586 -0.3802  1.5413 -0.9589
  846TIP3    H223954   3.854   5.530  16.694  0.5354 -0.0783 -0.1681
  847TIP3   OH223955   3.616   3.589   6.500  0.2772  0.2390  0.2288
  847TIP3    H123956   3.528   3.550   6.495 -0.6309  1.9288  1.9253
  847TIP3    H223957   3.604   3.679   6.471  0.7956  1.3532  3.1518
  848TIP3   OH223958   1.826   4.581   2.397  0.4502 -0.0905  0.7903
  848TIP3    H123959   1.832   4.495   2.357  0.2432  0.1029  0.3391
  848TIP3    H223960   1.805   4.564   2.489  0.4903 -0.5196  0.7185
  849TIP3   OH223961   1.224   5.348  12.504 -0.0159 -0.0036  0.3262
  849TIP3    H123962   1.171   5.399  12.567  0.0230 -0.8202  1.0376
  849TIP3    H223963   1.253   5.272  12.554  0.2792 -0.5115 -0.6072
  850TIP3   OH223964   3.043   6.223  16.387 -0.2009  0.7964 -0.4117
  850TIP3    H123965   3.022   6.233  16.480 -1.9530  1.6427 -0.8622
  850TIP3    H223966   3.138   6.210  16.385 -0.1650  0.5400  1.5026
  851TIP3   OH223967   4.629   2.606  16.467 -0.0741 -0.0236 -0.1616
  851TIP3    H123968   4.613   2.531  16.524  0.1075 -1.0514 -1.4218
  851TIP3    H223969   4.561   2.600  16.400  0.0345  0.8652 -0.3660
  852TIP3   OH223970   6.009   6.145   4.777 -0.0625  0.0706  0.2785
  852TIP3    H123971   6.057   6.131   4.859  2.4475  1.2870 -0.8709
  852TIP3    H223972   5.963   6.228   4.790 -0.4478 -0.2132  0.7669
  853TIP3   OH223973   4.932   5.110   0.226  0.5004 -0.0460 -0.2554
  853TIP3    H123974   4.888   5.195   0.231  0.7372  0.0236  0.8195
  853TIP3    H223975   4.965   5.106   0.136  1.4127  1.4790 -0.0295
  854TIP3   OH223976   0.486   4.811  12.656 -0.1738  0.4772  0.6255
  854TIP3    H123977   0.497   4.740  12.592  1.6360  1.9077 -0.7514
  854TIP3    H223978   0.397   4.843  12.640 -0.1246  0.1208 -0.4450
  855TIP3   OH223979   2.818   3.120  13.555 -0.1505  0.0505 -0.1964
  855TIP3    H123980   2.842   3.193  13.612  2.7458 -0.8336 -0.1419
  855TIP3    H223981   2.771   3.162  13.483  0.2841  1.7992  0.4663
  856TIP3   OH223982   0.880   3.300  17.234 -0.0309 -0.1557 -0.3308
  856TIP3    H123983   0.850   3.212  17.211  0.7000 -1.0848  2.0361
  856TIP3    H223984   0.824   3.326  17.307  0.5630  0.8608 -0.2233
  857TIP3   OH223985   1.102   4.294  15.367  0.3499 -0.1879  0.3120
  857TIP3    H123986   1.046   4.220  15.345 -0.0082  0.6464 -1.8332
  857TIP3    H223987   1.044   4.370  15.365  1.1722  0.4476  0.0759
  858TIP3   OH223988   3.966   5.149   5.569 -0.5485  0.7868  0.0928
  858TIP3    H123989   3.907   5.117   5.500  0.3890  0.0823 -0.3932
  858TIP3    H223990   4.053   5.143   5.531  0.0023  0.2815  1.3726
  859TIP3   OH223991   6.100   1.993   2.285 -0.4049 -0.4332 -0.3455
  859TIP3    H123992   6.152   1.926   2.329  0.3980  1.2184  1.3388
  859TIP3    H223993   6.145   2.075   2.304  0.2954  0.4381 -4.6850
  860TIP3   OH223994   3.012   2.795   4.524  0.0656 -0.1461  0.4024
  860TIP3    H123995   3.029   2.880   4.482  0.7433 -1.1183 -1.3721
  860TIP3    H223996   2.951   2.816   4.595  0.8413  1.9366  0.5178
  861TIP3   OH223997   5.874   1.984  15.308  0.0040 -0.3725  0.0150
  861TIP3    H123998   5.794   1.974  15.359  0.4208 -0.2223  0.7101
  861TIP3    H223999   5.935   1.921  15.346  1.3000  1.7430  1.7190
  862TIP3   OH224000   6.704   5.868  14.452 -0.1830  0.1776  0.7439
  862TIP3    H124001   6.707   5.938  14.387 -1.6036 -1.1988 -0.8978
  862TIP3    H224002   6.616   5.874  14.490 -0.4776 -0.9529  0.2727
  863TIP3   OH224003   4.403   6.243   0.370 -0.5639  0.0492 -0.3449
  863TIP3    H124004   4.442   6.168   0.415 -0.8722  0.1071  0.0321
  863TIP3    H224005   4.410   6.315   0.434  0.0037  0.4146 -0.8173
  864TIP3   OH224006   2.369   5.883  14.006  0.8105 -0.4961  0.4913
  864TIP3    H124007   2.406   5.848  13.925  1.2178  0.2973  0.3279
  864TIP3    H224008   2.427   5.850  14.075  1.6095  0.4158  0.2718
  865TIP3   OH224009   6.287   2.678  13.926 -0.2875 -0.1670  0.1897
  865TIP3    H124010   6.245   2.753  13.967  0.5629  0.8390 -0.7141
  865TIP3    H224011   6.359   2.656  13.986  0.3646  0.6886 -0.2602
  866TIP3   OH224012   0.896   3.825  12.270 -0.9254 -0.5514 -0.4182
  866TIP3    H124013   0.815   3.780  12.296 -1.1008  0.3812  0.7567
  866TIP3    H224014   0.874   3.918  12.277  0.2478 -0.2905 -0.0978
  867TIP3   OH224015   3.186   2.758  14.206 -0.0574 -0.0286 -0.5533
  867TIP3    H124016   3.104   2.776  14.250  0.3375  0.2905  0.0663
  867TIP3    H224017   3.243   2.832  14.229  0.8275 -0.8881  0.1172
  868TIP3   OH224018   1.757   4.003  16.872  0.0218  0.0625  0.5361
  868TIP3    H124019   1.826   4.070  16.867 -0.5534  0.6864  0.7752
  868TIP3    H224020   1.768   3.951  16.792  0.2906  0.6287  0.1989
  869TIP3   OH224021   4.919   6.040  14.018 -0.4114  0.4104  0.2258
  869TIP3    H124022   4.995   5.999  13.976 -0.1583 -0.0876  1.1212
  869TIP3    H224023   4.943   6.132  14.026  0.0219  0.2909  0.3269
  870TIP3   OH224024   3.672   5.767  14.812  0.2039 -0.2048  0.3308
  870TIP3    H124025   3.760   5.781  14.775  1.0122 -1.2760  1.7794
  870TIP3    H224026   3.614   5.810  14.749  1.7245  0.2810 -0.8265
  871TIP3   OH224027   3.856   4.608  11.297 -0.5220 -0.7262 -0.5022
  871TIP3    H124028   3.845   4.658  11.216  0.8982 -0.3509 -0.4892
  871TIP3    H224029   3.853   4.517  11.270  5.3526 -0.8762 -2.0759
  872TIP3   OH224030   6.131   2.380  13.298 -0.1675 -0.1001 -0.3585
  872TIP3    H124031   6.077   2.300  13.293 -0.2116 -0.0710 -0.3447
  872TIP3    H224032   6.106   2.429  13.220  0.6099 -0.5754 -0.9193
  873TIP3   OH224033   5.498   0.987   5.150 -0.4695  0.1721 -0.1439
  873TIP3    H124034   5.551   1.051   5.103 -0.5932 -0.0953 -0.6558
  873TIP3    H224035   5.444   1.039   5.209 -1.0441  0.5975 -1.0248
  874TIP3   OH224036   3.158   4.274  11.607  0.0867 -0.0628 -0.6684
  874TIP3    H124037   3.173   4.356  11.559  0.8424  0.0754 -0.2176
  874TIP3    H224038   3.241   4.257  11.651  0.4095 -1.8095 -1.8470
  875TIP3   OH224039   5.522   3.720   1.791 -0.2773 -0.0394 -0.1499
  875TIP3    H124040   5.610   3.684   1.778  0.5102  0.9877  1.9391
  875TIP3    H224041   5.465   3.643   1.792  0.6981 -0.8013 -0.6101
  876TIP3   OH224042   2.259   2.787   4.679  0.4420  0.2173  0.2214
  876TIP3    H124043   2.164   2.793   4.669  0.0376 -3.3391  0.8364
  876TIP3    H224044   2.292   2.778   4.590  0.0569  0.0477  0.0950
  877TIP3   OH224045   6.171   6.538   5.018 -0.6328 -0.4564  0.0810
  877TIP3    H124046   6.202   6.453   5.049  1.0936  0.2575  0.3966
  877TIP3    H224047   6.183   6.534   4.923 -2.1901 -1.1611 -0.1309
  878TIP3   OH224048   3.803   0.057   3.400 -0.0628 -0.0208  0.2728
  878TIP3    H124049   3.846   0.041   3.316 -0.4514 -1.4962  0.3382
  878TIP3    H224050   3.869   0.103   3.452  0.4670  0.1756 -0.5569
  879TIP3   OH224051   3.106   2.785  17.176  0.0131  0.1258  0.1946
  879TIP3    H124052   3.057   2.783  17.093 -1.8509 -1.1078  1.2550
  879TIP3    H224053   3.161   2.707  17.173  1.0611  0.8664 -0.4781
  880TIP3   OH224054   2.475   3.974  17.275 -0.4767  0.4176 -0.4899
  880TIP3    H124055   2.420   4.006  17.203 -1.3923 -0.2394 -0.1023
  880TIP3    H224056   2.443   3.885  17.291  1.1661 -0.2479 -0.7082
  881TIP3   OH224057   3.796   6.635  14.965  0.2437  0.0294 -0.2966
  881TIP3    H124058   3.796   6.730  14.978 -0.3009  0.1424 -1.0205
  881TIP3    H224059   3.827   6.599  15.048  0.1565  0.8258  0.0909
  882TIP3   OH224060   3.776   3.365  12.761 -0.1162  0.2319  0.3770
  882TIP3    H124061   3.766   3.396  12.671  1.5779 -1.3015 -0.4139
  882TIP3    H224062   3.729   3.429  12.814 -1.9769  0.6927 -1.6555
  883TIP3   OH224063   0.475   4.852   2.537 -0.0284  0.4073  0.0883
  883TIP3    H124064   0.476   4.771   2.486  0.7812 -0.2186  1.0574
  883TIP3    H224065   0.456   4.921   2.473 -1.7043 -0.6337 -0.5871
  884TIP3   OH224066   5.714   5.657   6.080 -0.1893  0.4030  0.2586
  884TIP3    H124067   5.706   5.679   6.173  0.9447 -1.0746  0.7426
  884TIP3    H224068   5.808   5.660   6.062 -0.3226 -0.1783 -0.6088
  885TIP3   OH224069   1.220   5.919  15.466  0.1926  0.2043  0.3663
  885TIP3    H124070   1.257   6.002  15.495  0.0784  1.0386 -1.7139
  885TIP3    H224071   1.228   5.920  15.370 -0.9269 -1.6458  0.1820
  886TIP3   OH224072   3.655   1.870  17.095 -0.0873  0.3031 -0.4933
  886TIP3    H124073   3.615   1.913  17.019 -0.9076 -1.7967 -1.3294
  886TIP3    H224074   3.733   1.826  17.061 -0.1348 -0.1707 -0.0186
  887TIP3   OH224075   0.854   4.710   2.565 -0.1287  0.4969  0.3571
  887TIP3    H124076   0.802   4.632   2.586 -3.8154  2.7756  0.5347
  887TIP3    H224077   0.866   4.707   2.471  2.6344 -1.7738  0.6517
  888TIP3   OH224078   1.717   0.570  16.123 -0.2066 -0.0738 -0.4121
  888TIP3    H124079   1.734   0.659  16.092  0.1181  0.6003  1.5762
  888TIP3    H224080   1.739   0.572  16.216  1.2812 -2.6285 -0.6061
  889TIP3   OH224081   2.983   5.124   0.187  0.2598  0.1308 -0.6322
  889TIP3    H124082   2.933   5.076   0.252  1.9331 -2.3774 -1.0556
  889TIP3    H224083   2.993   5.212   0.224 -0.8710 -0.5146  1.3371
  890TIP3   OH224084   2.656   2.029  15.078  0.1256 -0.1654 -0.1608
  890TIP3    H124085   2.670   1.964  15.009 -1.2358 -1.6065  0.8403
  890TIP3    H224086   2.590   1.990  15.134 -0.5041  1.9854  0.6855
  891TIP3   OH224087   3.542   4.855  13.288 -0.2665 -0.1208 -0.3494
  891TIP3    H124088   3.614   4.801  13.320  0.9849  1.3690 -0.5297
  891TIP3    H224089   3.556   4.861  13.194 -1.1136 -0.4808 -0.5095
  892TIP3   OH224090   1.093   2.602   3.928 -0.3860 -0.2556  0.3695
  892TIP3    H124091   1.131   2.672   3.980  0.1931 -0.8273  0.7230
  892TIP3    H224092   1.161   2.535   3.924 -1.1636 -1.0746  0.5759
  893TIP3   OH224093   2.368   1.980  13.671 -0.2537  0.1230  0.9106
  893TIP3    H124094   2.363   1.891  13.635 -1.5709  0.2818  0.6592
  893TIP3    H224095   2.427   1.972  13.746 -0.3278 -0.9548  0.8735
  894TIP3   OH224096   5.173   4.434  12.837  0.5380 -0.4068  0.1964
  894TIP3    H124097   5.217   4.394  12.762  0.8648  0.4752 -0.0909
  894TIP3    H224098   5.081   4.410  12.826  0.8614 -1.9561  0.6045
  895TIP3   OH224099   4.948   4.597   3.704 -0.3893  0.5517 -0.0046
  895TIP3    H124100   4.962   4.685   3.739 -1.0930  0.4635  0.5154
  895TIP3    H224101   4.885   4.609   3.633 -0.8874  0.4024  0.4092
  896TIP3   OH224102   3.009   3.354  17.157 -0.3917 -0.2993  0.4769
  896TIP3    H124103   2.987   3.262  17.171  0.7031 -0.3903  1.7785
  896TIP3    H224104   3.020   3.390  17.245 -0.1162  0.9061 -0.0254
  897TIP3   OH224105   4.822   5.740  16.433 -0.3388 -0.2622 -0.1621
  897TIP3    H124106   4.742   5.765  16.386  0.0639  1.7305  0.1253
  897TIP3    H224107   4.890   5.745  16.366 -0.2454 -0.5845 -0.0886
  898TIP3   OH224108   0.094   4.904  12.987 -0.3978 -0.0110  0.4890
  898TIP3    H124109   0.126   4.814  12.981  1.2748  0.5853 -0.2097
  898TIP3    H224110   0.001   4.898  12.964 -0.6443 -1.7104  1.7699
  899TIP3   OH224111   1.498   5.369  14.210 -0.2487 -0.4318  0.1512
  899TIP3    H124112   1.524   5.367  14.302  0.2341 -0.6489  0.0131
  899TIP3    H224113   1.453   5.286  14.196  0.0970 -0.6082  0.0741
  900TIP3   OH224114   6.060   1.547  10.511  0.2817  0.5317  0.6693
  900TIP3    H124115   6.146   1.508  10.495 -1.0051 -2.7053  0.8737
  900TIP3    H224116   6.060   1.567  10.605  0.9145  0.8755  0.6004
  901TIP3   OH224117   3.485   6.241  14.251  0.5795  0.2533 -0.0544
  901TIP3    H124118   3.498   6.195  14.168  1.6797  0.0793  0.2058
  901TIP3    H224119   3.534   6.323  14.242  0.1091  0.5677  0.1636
  902TIP3   OH224120   4.333   4.381   5.719 -0.0876  0.0926  0.8726
  902TIP3    H124121   4.369   4.439   5.653  0.9256  1.2595  2.3710
  902TIP3    H224122   4.405   4.322   5.742 -0.3168 -0.0703  1.1914
  903TIP3   OH224123   3.823   2.518   5.867  0.0521  0.1724  0.4274
  903TIP3    H124124   3.904   2.477   5.898  1.1784  1.2725 -0.8748
  903TIP3    H224125   3.764   2.514   5.942  1.7317  0.4040  1.8435
  904TIP3   OH224126   5.544   2.842   2.255 -0.6993 -0.1413  0.3405
  904TIP3    H124127   5.465   2.788   2.259 -1.8057  1.1859 -1.7883
  904TIP3    H224128   5.524   2.919   2.307 -0.3731 -0.2780  0.6757
  905TIP3   OH224129   5.658   3.430  16.074  0.3554  0.0165 -0.3566
  905TIP3    H124130   5.673   3.349  16.025  0.2300 -0.2480  0.0421
  905TIP3    H224131   5.745   3.458  16.101  0.2032 -2.0391  2.7988
  906TIP3   OH224132   1.472   2.821  12.301  0.1149  0.4151  0.1258
  906TIP3    H124133   1.462   2.728  12.323 -1.7332  0.3817 -0.7168
  906TIP3    H224134   1.457   2.866  12.384  1.5715 -0.0158  0.6663
  907TIP3   OH224135   2.158   6.339   2.650  0.1716  0.4088  0.6209
  907TIP3    H124136   2.139   6.390   2.571 -1.5993 -0.2748  0.5523
  907TIP3    H224137   2.135   6.249   2.626 -1.2052  0.3077  2.1239
  908TIP3   OH224138   1.498   1.552  11.050  0.2134  0.1100  0.9702
  908TIP3    H124139   1.466   1.642  11.058  0.7565  0.2130  2.1405
  908TIP3    H224140   1.422   1.498  11.074 -0.7559  0.1384 -1.7066
  909TIP3   OH224141   4.297   4.197   1.554  0.1602 -0.3251  0.4248
  909TIP3    H124142   4.382   4.174   1.517 -0.8699 -2.2829 -0.8739
  909TIP3    H224143   4.288   4.139   1.629 -0.1125 -0.2647  0.4363
  910TIP3   OH224144   3.155   1.386  13.057  0.4869 -0.5202  0.8477
  910TIP3    H124145   3.207   1.465  13.074  0.8915 -0.6621  0.2852
  910TIP3    H224146   3.212   1.314  13.084  0.7737 -0.7011 -0.2009
  911TIP3   OH224147   6.742   0.691   4.383  0.2371  0.2064  0.3850
  911TIP3    H124148   6.790   0.682   4.465  0.3533  0.3017  0.3264
  911TIP3    H224149   6.679   0.761   4.400  2.1042  2.2017 -0.4831
  912TIP3   OH224150   2.399   2.550   6.814 -0.1440  0.5013  0.4583
  912TIP3    H124151   2.339   2.539   6.740  0.9395  0.1021 -0.3957
  912TIP3    H224152   2.420   2.460   6.840  2.2331  0.4955 -1.1011
  913TIP3   OH224153   1.984   1.315  17.256 -0.7234 -0.3461  0.7245
  913TIP3    H124154   2.051   1.312  17.187 -1.5792 -3.9661 -0.1409
  913TIP3    H224155   1.928   1.388  17.231  0.3188 -0.1009 -1.1424
  914TIP3   OH224156   2.093   1.725   2.805  0.1110 -0.0603  0.3765
  914TIP3    H124157   2.057   1.814   2.810  0.4527  0.0609  0.7270
  914TIP3    H224158   2.157   1.729   2.733  0.0859 -0.0371  0.3558
  915TIP3   OH224159   5.375   1.466  10.924  0.5337  1.1808  0.1710
  915TIP3    H124160   5.286   1.501  10.933  0.7547  1.3386  2.0634
  915TIP3    H224161   5.363   1.371  10.924  0.3552  1.2027  0.2480
  916TIP3   OH224162   5.797   3.123   3.053 -0.1774  0.3519 -0.1311
  916TIP3    H124163   5.792   3.219   3.054 -1.1815  0.3217 -0.4584
  916TIP3    H224164   5.862   3.103   2.986 -0.8401  0.7950 -0.9260
  917TIP3   OH224165   3.577   1.017  15.762 -0.0696  0.1702 -0.3409
  917TIP3    H124166   3.501   0.959  15.762 -0.5723  0.8133 -0.0158
  917TIP3    H224167   3.551   1.090  15.706  0.9358 -0.3733 -1.5898
  918TIP3   OH224168   1.011   1.249   0.738  1.0534  0.0495 -0.6358
  918TIP3    H124169   1.095   1.266   0.695  1.5648 -0.2220  0.2138
  918TIP3    H224170   1.005   1.317   0.805  0.0531  0.7467 -1.4027
  919TIP3   OH224171   1.865   0.480   0.649  0.3784  0.0973 -0.5250
  919TIP3    H124172   1.943   0.435   0.682 -0.2398 -0.3587  0.3722
  919TIP3    H224173   1.851   0.552   0.711 -0.3376 -0.2852 -0.2201
  920TIP3   OH224174   1.638   2.215  17.135 -0.4471 -0.2865  0.2622
  920TIP3    H124175   1.668   2.228  17.045 -0.3994 -1.6270  0.0634
  920TIP3    H224176   1.718   2.215  17.187 -0.4786  0.5404  0.3189
  921TIP3   OH224177   6.163   6.013  13.743  0.1199 -1.2693  0.2831
  921TIP3    H124178   6.242   6.029  13.692  0.9647  1.0607  2.1020
  921TIP3    H224179   6.190   5.952  13.812 -0.5797 -3.0442 -0.9347
  922TIP3   OH224180   1.673   5.219   4.805  0.2698  0.3083  0.1816
  922TIP3    H124181   1.767   5.207   4.816  0.1502 -0.4803  0.3647
  922TIP3    H224182   1.636   5.131   4.810 -0.3067  0.3849 -1.7512
  923TIP3   OH224183   4.273   3.521  11.025  0.5510  0.0296  0.1944
  923TIP3    H124184   4.338   3.461  10.988  0.0799 -0.6332  0.4076
  923TIP3    H224185   4.229   3.468  11.092  0.6069  0.8411  0.8810
  924TIP3   OH224186   6.728   4.494   5.103  0.0696 -1.0597 -0.4833
  924TIP3    H124187   6.638   4.519   5.124 -0.0886  0.1668 -2.3366
  924TIP3    H224188   6.781   4.535   5.172 -0.7071 -0.8295 -0.0103
  925TIP3   OH224189   2.693   0.564  15.712  0.3562  0.7274 -0.0094
  925TIP3    H124190   2.663   0.525  15.794  1.0698  0.7054  0.2503
  925TIP3    H224191   2.645   0.647  15.706 -1.2737 -0.2066 -0.6352
  926TIP3   OH224192   3.166   5.448  16.687  0.4144 -0.4388  0.0702
  926TIP3    H124193   3.085   5.400  16.703  0.6727 -0.6336  0.8007
  926TIP3    H224194   3.204   5.460  16.773  1.1290 -0.2806 -0.2658
  927TIP3   OH224195   1.373   1.497  14.131 -0.0015  0.5530 -0.3325
  927TIP3    H124196   1.395   1.578  14.177  2.5052  0.0161 -0.4150
  927TIP3    H224197   1.384   1.429  14.197  0.3071  0.0874 -0.8566
  928TIP3   OH224198   2.544   1.668   1.085  0.3500  0.1721  0.1258
  928TIP3    H124199   2.496   1.659   1.003  2.9612 -1.6118 -1.3281
  928TIP3    H224200   2.521   1.590   1.135  1.7483 -0.7720 -0.6441
  929TIP3   OH224201   5.696   5.823   2.453 -0.2595 -0.5992 -0.2048
  929TIP3    H124202   5.741   5.739   2.463 -0.7468 -0.8243  0.0961
  929TIP3    H224203   5.739   5.881   2.516 -0.5817 -0.8952  0.2959
  930TIP3   OH224204   4.669   4.866  12.489 -0.4487 -0.6527 -0.5557
  930TIP3    H124205   4.676   4.772  12.472 -0.3530 -0.7431 -0.0484
  930TIP3    H224206   4.615   4.872  12.568  1.5669 -0.4230  0.8820
  931TIP3   OH224207   2.445   5.034  15.342 -0.0278  0.4957  0.2357
  931TIP3    H124208   2.378   5.047  15.410 -0.2363 -0.6962  0.2927
  931TIP3    H224209   2.469   4.942  15.351  0.0079  0.3390 -1.2555
  932TIP3   OH224210   4.939   6.196   6.666 -0.1186 -0.2996  0.0423
  932TIP3    H124211   4.846   6.190   6.687  0.1824 -2.1323  1.0711
  932TIP3    H224212   4.983   6.146   6.735  1.5512 -0.3919 -1.0265
  933TIP3   OH224213   5.134   1.211   4.426 -0.1209 -0.2519  0.0260
  933TIP3    H124214   5.160   1.257   4.347  0.5329 -0.2308  0.2504
  933TIP3    H224215   5.068   1.148   4.397 -0.2777  0.1263 -0.4420
  934TIP3   OH224216   3.672   1.549  12.238 -0.4577 -0.2563  0.4142
  934TIP3    H124217   3.656   1.632  12.284 -0.8151  1.1606 -2.1075
  934TIP3    H224218   3.707   1.575  12.153 -0.0283 -2.7524 -0.2502
  935TIP3   OH224219   5.474   5.768  12.136 -0.9316 -0.6040  0.5872
  935TIP3    H124220   5.422   5.754  12.215 -3.4025  1.9153 -0.4179
  935TIP3    H224221   5.518   5.851  12.151 -0.0328 -0.9657 -0.0052
  936TIP3   OH224222   0.800   6.039   4.902  0.4353 -0.0063 -0.2567
  936TIP3    H124223   0.751   5.985   4.964  1.6579 -1.0188 -0.1322
  936TIP3    H224224   0.770   6.009   4.815 -0.5600  0.7307 -0.1796
  937TIP3   OH224225   3.359   0.145   4.273 -0.0759  0.3457 -0.6013
  937TIP3    H124226   3.276   0.193   4.268  0.8537  2.5492  2.2589
  937TIP3    H224227   3.422   0.201   4.229  0.4764  0.2811  0.0914
  938TIP3   OH224228   4.634   0.352   1.306 -0.3489 -0.3840 -0.6399
  938TIP3    H124229   4.668   0.301   1.379  0.3839 -1.0833 -1.4479
  938TIP3    H224230   4.672   0.439   1.319 -2.0150  0.1751  1.0281
  939TIP3   OH224231   6.186   5.062   3.521 -0.2986 -0.5677  0.0949
  939TIP3    H124232   6.093   5.043   3.528 -0.3868 -0.7455 -1.2705
  939TIP3    H224233   6.201   5.136   3.580 -1.1307 -1.0618  0.9430
  940TIP3   OH224234   1.347   2.573  13.303 -0.0197 -0.1421  0.0883
  940TIP3    H124235   1.257   2.565  13.335  0.1412 -1.0504  0.3457
  940TIP3    H224236   1.339   2.570  13.208 -0.3039  0.2281  0.1000
  941TIP3   OH224237   3.487   0.748   5.178 -0.5281 -0.2459 -0.2088
  941TIP3    H124238   3.567   0.798   5.195 -0.3089 -0.2818 -1.0750
  941TIP3    H224239   3.489   0.732   5.083 -2.0947  0.6658 -0.4260
  942TIP3   OH224240   6.334   0.656  12.109  0.7876 -0.1875  0.0947
  942TIP3    H124241   6.408   0.596  12.105  0.9501 -0.1467  1.5973
  942TIP3    H224242   6.370   0.742  12.086  0.4026 -0.7192 -2.7811
  943TIP3   OH224243   3.298   0.849   5.354 -0.4270  0.0392 -1.1152
  943TIP3    H124244   3.264   0.775   5.405 -0.1979  1.4944  1.2836
  943TIP3    H224245   3.351   0.808   5.285  1.9479 -2.0677  1.7054
  944TIP3   OH224246   2.809   3.576  15.735  0.3070  0.1375  0.2184
  944TIP3    H124247   2.843   3.489  15.756  0.3539  0.1136  0.0432
  944TIP3    H224248   2.771   3.567  15.647  1.1061  0.5173 -0.1740
  945TIP3   OH224249   3.478   1.932  14.577 -0.1175  0.6009  0.1997
  945TIP3    H124250   3.543   1.962  14.641 -1.7037  0.5640  1.9085
  945TIP3    H224251   3.440   1.853  14.616 -1.1988  0.6286 -0.7396
  946TIP3   OH224252   5.720   0.034   2.933 -0.0069  0.1101  0.2309
  946TIP3    H124253   5.720   0.110   2.876 -2.1220  0.4698  0.6362
  946TIP3    H224254   5.634   0.035   2.975  0.9763 -0.8757  2.4445
  947TIP3   OH224255   0.053   2.929   1.550  1.1768  0.2421 -0.2575
  947TIP3    H124256   0.065   3.024   1.550  2.2208  0.1702  1.6620
  947TIP3    H224257   0.118   2.896   1.489 -0.2341  0.8060 -2.1515
  948TIP3   OH224258   1.526   1.581  11.708  0.4957 -0.6061 -0.0052
  948TIP3    H124259   1.485   1.638  11.644  0.5529 -0.0807  0.4189
  948TIP3    H224260   1.619   1.602  11.704  0.2162  1.4645  2.1806
  949TIP3   OH224261   3.605   2.672   1.308  0.2801  0.5193 -0.3400
  949TIP3    H124262   3.551   2.605   1.352  1.1976  0.2042  0.3286
  949TIP3    H224263   3.549   2.704   1.237  0.0168 -1.4005 -1.0826
  950TIP3   OH224264   5.912   1.387   3.839  0.3740  0.0735 -0.4864
  950TIP3    H124265   5.818   1.381   3.825  0.3176  1.2008 -0.7215
  950TIP3    H224266   5.922   1.403   3.933  0.3694 -0.6377 -0.3616
  951TIP3   OH224267   4.955   5.779   6.251 -0.2063  0.0735  0.1528
  951TIP3    H124268   4.941   5.794   6.344 -0.4051 -1.4377  0.3963
  951TIP3    H224269   4.963   5.684   6.243 -0.2547  0.1713 -1.3774
  952TIP3   OH224270   1.608   0.113   0.375 -0.6479 -0.0745 -0.9273
  952TIP3    H124271   1.654   0.196   0.383 -1.2708  0.3392 -1.5384
  952TIP3    H224272   1.676   0.050   0.352 -0.1033  0.1751 -0.0355
  953TIP3   OH224273   3.623   5.312  14.524  0.3335 -0.1638  0.4545
  953TIP3    H124274   3.655   5.388  14.572  2.1509 -0.5656 -0.0667
  953TIP3    H224275   3.643   5.331  14.432  0.2774 -1.0066  0.2604
  954TIP3   OH224276   5.306   2.443  16.199 -0.6868 -0.2217  0.1457
  954TIP3    H124277   5.215   2.473  16.199 -0.5005  0.3743 -0.5006
  954TIP3    H224278   5.301   2.350  16.217 -1.6257 -0.6929 -2.1806
  955TIP3   OH224279   1.728   4.553   1.454 -0.1121  0.4520  0.3818
  955TIP3    H124280   1.787   4.514   1.518 -1.0027  0.1857  1.0644
  955TIP3    H224281   1.645   4.564   1.502 -1.4868 -1.7842 -1.3254
  956TIP3   OH224282   1.196   4.722   1.196  0.2911 -0.3093  0.2726
  956TIP3    H124283   1.210   4.794   1.135 -0.4098  0.8774  1.4641
  956TIP3    H224284   1.254   4.741   1.270 -0.7888 -0.2903  1.1383
  957TIP3   OH224285   3.878   0.169  11.119  0.5486 -0.1822  0.3927
  957TIP3    H124286   3.876   0.074  11.105  0.5461 -0.1088 -0.1304
  957TIP3    H224287   3.843   0.206  11.038  1.4606  0.2944  0.2052
  958TIP3   OH224288   2.126   5.924   1.399 -0.1029  0.1554  0.2993
  958TIP3    H124289   2.160   5.902   1.313  2.7454 -3.7497  2.1029
  958TIP3    H224290   2.173   6.004   1.424  0.4124  0.2854 -1.0332
  959TIP3   OH224291   5.073   2.818  13.468 -0.4780 -0.3163  0.4212
  959TIP3    H124292   4.982   2.810  13.439 -0.1918 -0.2282 -0.5492
  959TIP3    H224293   5.121   2.843  13.389  0.4453 -0.7266  0.8393
  960TIP3   OH224294   0.542   0.781   4.003 -0.2576 -0.7129  0.1672
  960TIP3    H124295   0.615   0.751   3.950 -0.5300 -0.6320 -0.2586
  960TIP3    H224296   0.574   0.862   4.044 -1.7021  2.3458 -4.0178
  961TIP3   OH224297   3.294   0.097   5.496 -0.3459  0.1118 -0.7628
  961TIP3    H124298   3.283   0.185   5.460  0.5424  0.8769  0.7171
  961TIP3    H224299   3.388   0.080   5.491 -0.5832 -1.1045 -1.7427
  962TIP3   OH224300   0.770   6.240  17.112  0.2072  0.6882  0.3940
  962TIP3    H124301   0.819   6.302  17.058  2.2588 -0.9229  0.3005
  962TIP3    H224302   0.726   6.182  17.050  1.2767 -0.1789  0.4180
  963TIP3   OH224303   4.554   3.750  13.862 -0.5905  0.0063 -0.0710
  963TIP3    H124304   4.496   3.778  13.792 -0.7339  0.1349  0.0962
  963TIP3    H224305   4.503   3.766  13.942 -0.8059 -1.0204  0.0138
  964TIP3   OH224306   0.885   4.754   6.055 -0.0640  0.4550 -0.3953
  964TIP3    H124307   0.882   4.849   6.066  0.6155  0.5006 -0.5218
  964TIP3    H224308   0.942   4.741   5.979 -0.5142 -0.0368 -0.6554
  965TIP3   OH224309   3.454   3.000  15.251 -0.4183 -0.4513  0.3731
  965TIP3    H124310   3.500   2.978  15.171  1.4449  1.1498  0.9265
  965TIP3    H224311   3.389   3.066  15.224 -0.2176 -0.3738  0.0790
  966TIP3   OH224312   5.728   1.861   2.966 -0.2598  0.0387 -0.4059
  966TIP3    H124313   5.661   1.927   2.949 -1.9265 -1.5426 -0.2692
  966TIP3    H224314   5.774   1.893   3.044 -1.0141  1.0319 -0.3559
  967TIP3   OH224315   1.337   2.083  11.976  0.7598  0.4790 -0.0137
  967TIP3    H124316   1.343   2.010  11.914 -0.6193  0.5239 -0.2358
  967TIP3    H224317   1.370   2.047  12.058 -1.1312 -0.8574  0.2291
  968TIP3   OH224318   0.432   1.220  12.117  0.4627 -0.3010  0.1695
  968TIP3    H124319   0.481   1.244  12.038  0.1440  0.9568  0.3238
  968TIP3    H224320   0.355   1.277  12.115  0.6849  0.0780  1.6278
  969TIP3   OH224321   6.736   0.905  15.764  0.0833  0.0508 -0.0292
  969TIP3    H124322   6.668   0.972  15.771  0.1706  0.1426 -0.0596
  969TIP3    H224323   6.798   0.927  15.833  0.8028  0.7932 -0.8843
  970TIP3   OH224324   0.602   1.534  13.270 -0.4293  0.2692  0.1653
  970TIP3    H124325   0.613   1.599  13.340 -0.7007 -0.0797  0.5359
  970TIP3    H224326   0.667   1.558  13.205  1.3219 -0.6794  1.4841
  971TIP3   OH224327   3.813   2.627   6.272  0.5942  0.1905 -0.6702
  971TIP3    H124328   3.816   2.532   6.269  0.8797  0.2143 -1.3001
  971TIP3    H224329   3.894   2.653   6.315  2.0047  0.2383 -3.1562
  972TIP3   OH224330   1.271   5.083   6.169 -0.1204 -0.4951  0.2657
  972TIP3    H124331   1.333   5.048   6.105 -1.1763 -1.0296 -0.4953
  972TIP3    H224332   1.312   5.164   6.200  0.9805 -0.8634 -0.1634
  973TIP3   OH224333   0.270   5.326   3.507  0.2736 -0.0719 -0.1752
  973TIP3    H124334   0.251   5.246   3.555 -0.3759 -0.3436 -0.8675
  973TIP3    H224335   0.186   5.371   3.500  0.6870  0.8345  0.4785
  974TIP3   OH224336   5.751   1.865  12.560 -0.1833  0.1640  0.5124
  974TIP3    H124337   5.766   1.947  12.513  0.5866 -0.2350  0.0400
  974TIP3    H224338   5.686   1.887  12.627 -0.2851  1.0591  0.1325
  975TIP3   OH224339   5.580   3.656   3.148 -0.5277  0.2219 -0.0459
  975TIP3    H124340   5.655   3.684   3.200 -0.0151  0.0379 -0.6688
  975TIP3    H224341   5.541   3.584   3.198  0.1415 -0.1611 -0.0535
  976TIP3   OH224342   1.484   3.518  13.095  0.0753  0.2750 -0.2362
  976TIP3    H124343   1.551   3.451  13.103 -1.0109 -0.9867 -1.1711
  976TIP3    H224344   1.406   3.471  13.066 -0.9197  1.8497 -0.2747
  977TIP3   OH224345   3.973   0.154  14.147 -0.5181  0.3335 -0.2616
  977TIP3    H124346   3.990   0.141  14.240 -0.6234 -1.6963 -0.4979
  977TIP3    H224347   3.974   0.250  14.137  0.2266  0.5876  1.6618
  978TIP3   OH224348   2.191   4.600   0.025  0.2645 -0.6054  0.1554
  978TIP3    H124349   2.132   4.555  -0.035  0.9627 -0.1705 -0.8686
  978TIP3    H224350   2.231   4.669  -0.027  2.1834 -1.2912  0.6479
  979TIP3   OH224351   2.621   1.610   3.498  0.0614  0.6792 -0.3242
  979TIP3    H124352   2.559   1.548   3.462  1.8747 -0.5226 -1.5274
  979TIP3    H224353   2.568   1.685   3.525 -1.7218  0.4392 -2.8708
  980TIP3   OH224354   1.328   5.509  11.924  0.1476 -0.4158 -0.2177
  980TIP3    H124355   1.363   5.534  12.009  0.7220 -0.4478 -0.4390
  980TIP3    H224356   1.315   5.415  11.930  1.9298 -0.7474 -0.7503
  981TIP3   OH224357   2.020   2.110   0.313  0.3222  0.2306  0.2017
  981TIP3    H124358   1.940   2.115   0.366  0.4788  0.6244  0.4095
  981TIP3    H224359   2.077   2.177   0.351 -0.7032  2.7638 -2.3811
  982TIP3   OH224360   3.052   5.260  11.919 -0.0211  0.5207  0.0096
  982TIP3    H124361   2.982   5.308  11.962 -0.1096 -0.7591  1.3630
  982TIP3    H224362   3.130   5.281  11.970  0.1355  0.0853 -0.0455
  983TIP3   OH224363   3.556   0.664  13.211  0.0030 -0.3640  0.5964
  983TIP3    H124364   3.615   0.711  13.152 -0.3617 -0.2656  0.3055
  983TIP3    H224365   3.527   0.589  13.160  2.5702 -2.4039  1.9017
  984TIP3   OH224366   4.374   1.224   0.128  0.9181 -0.0924 -0.4229
  984TIP3    H124367   4.312   1.276   0.075  0.4581 -0.7916 -0.5881
  984TIP3    H224368   4.328   1.142   0.144  1.1325  0.0379  0.9286
  985TIP3   OH224369   5.319   2.126  16.301 -0.1883 -0.5576  0.1622
  985TIP3    H124370   5.279   2.171  16.376  0.9860 -1.7941  1.5977
  985TIP3    H224371   5.263   2.050  16.286 -0.5895 -0.1521 -0.4265
  986TIP3   OH224372   6.470   2.064   2.107  0.0752 -0.2978 -0.0629
  986TIP3    H124373   6.492   2.028   2.192 -1.4315  0.5123  0.7241
  986TIP3    H224374   6.439   2.153   2.126  0.0055  0.0129 -1.4898
  987TIP3   OH224375   0.109   2.208  13.389  0.0389  0.1678 -0.3189
  987TIP3    H124376   0.174   2.206  13.319 -1.3977  1.9079 -1.8270
  987TIP3    H224377   0.043   2.145  13.362 -1.2345  1.8606 -1.3874
  988TIP3   OH224378   2.162   1.107  11.571 -0.5422  0.4511  0.0351
  988TIP3    H124379   2.100   1.038  11.595 -0.1694  0.4355  1.0256
  988TIP3    H224380   2.109   1.187  11.571 -0.6048  0.4167  0.7290
  989TIP3   OH224381   3.804   2.263   4.051 -0.3762 -0.0502  0.4763
  989TIP3    H124382   3.783   2.185   4.000 -3.1868  2.1085 -1.9930
  989TIP3    H224383   3.875   2.305   4.002 -0.5583  0.1925  0.4220
  990TIP3   OH224384   6.053   0.572  12.778  0.3907  0.2759 -0.8893
  990TIP3    H124385   6.047   0.571  12.874  0.8174 -1.9872 -0.8305
  990TIP3    H224386   6.142   0.541  12.759  0.7781  1.9591 -2.0358
  991TIP3   OH224387   2.548   3.789  11.321  0.2304 -0.8520 -0.4595
  991TIP3    H124388   2.455   3.789  11.348  0.0577  0.2045 -0.9890
  991TIP3    H224389   2.590   3.728  11.381 -0.7901 -1.2490 -0.1205
  992TIP3   OH224390   2.866   4.945   2.031  0.1831  0.1290  0.4349
  992TIP3    H124391   2.893   5.000   1.957  0.5954  0.1552  0.6035
  992TIP3    H224392   2.944   4.938   2.086 -0.6733  1.8501  1.9630
  993TIP3   OH224393   3.790   4.373  13.151 -0.0349 -0.2737  0.1166
  993TIP3    H124394   3.878   4.384  13.188 -0.2122 -1.6125  1.0154
  993TIP3    H224395   3.735   4.350  13.226 -0.9091 -0.6431 -0.6184
  994TIP3   OH224396   3.362   5.599   0.129 -0.4722  0.3319 -0.1143
  994TIP3    H124397   3.288   5.657   0.109 -0.5832  0.1322 -0.2840
  994TIP3    H224398   3.347   5.571   0.219 -0.9238 -0.1874 -0.3507
  995TIP3   OH224399   0.580   4.083  12.523  0.2274  0.0861 -0.8309
  995TIP3    H124400   0.532   4.124  12.451  0.7449  1.3748 -0.4716
  995TIP3    H224401   0.512   4.052  12.582 -0.1961  1.1000 -0.7602
  996TIP3   OH224402   3.570   1.822  13.082 -0.0268 -0.4183 -0.3902
  996TIP3    H124403   3.623   1.891  13.123  0.5293 -1.2008  0.2451
  996TIP3    H224404   3.489   1.866  13.056 -0.4446  0.0923  1.6572
  997TIP3   OH224405   4.467   1.682   5.686  0.0610  0.2516  0.1488
  997TIP3    H124406   4.403   1.648   5.623  0.7767 -0.4929 -0.1971
  997TIP3    H224407   4.415   1.730   5.750 -0.7448  0.5217 -0.6810
  998TIP3   OH224408   2.652   5.770   4.201 -0.0238  0.4760  0.7009
  998TIP3    H124409   2.733   5.771   4.152 -1.4516  1.5896 -1.8086
  998TIP3    H224410   2.599   5.701   4.160  0.0989 -1.3589  3.2976
  999TIP3   OH224411   1.822   1.672  16.424 -0.0799 -0.7831 -0.1094
  999TIP3    H124412   1.731   1.681  16.450 -0.6670 -1.2802 -1.8605
  999TIP3    H224413   1.833   1.737  16.354  0.1822 -2.3911 -1.6260
 1000TIP3   OH224414   6.559   0.352  13.301  0.2682 -0.3234 -0.2117
 1000TIP3    H124415   6.474   0.394  13.311  1.1158  1.5118 -0.2826
 1000TIP3    H224416   6.539   0.263  13.271 -1.5639  0.5084 -1.6350
 1001TIP3   OH224417   2.551   1.103   0.991 -0.1333  0.3434  0.4933
 1001TIP3    H124418   2.599   1.158   1.052  2.1640 -0.0048 -0.8947
 1001TIP3    H224419   2.569   1.140   0.905 -3.1242  0.7049 -0.1080
 1002TIP3   OH224420   3.366   3.259   5.751  0.3258 -0.4485  0.3871
 1002TIP3    H124421   3.445   3.261   5.696 -0.6764  0.8432 -1.0917
 1002TIP3    H224422   3.392   3.304   5.831  0.4145  2.5304 -1.1704
 1003TIP3   OH224423   6.723   2.845  14.764  0.6608 -0.5302  0.0927
 1003TIP3    H124424   6.716   2.918  14.702 -0.8429 -0.2599  0.5343
 1003TIP3    H224425   6.661   2.780  14.731  1.6028 -1.3988  0.0033
 1004TIP3   OH224426   6.065   4.172  11.628 -0.5520  0.6369 -0.3684
 1004TIP3    H124427   6.014   4.111  11.576  0.2883 -1.4082  1.0916
 1004TIP3    H224428   6.155   4.142  11.619 -0.1259  1.6140  0.4607
 1005TIP3   OH224429   4.565   0.101   0.059 -0.0292  0.3827  0.0551
 1005TIP3    H124430   4.533   0.077   0.146  2.3012 -0.2074  0.8199
 1005TIP3    H224431   4.565   0.019   0.010  0.2926  0.3762  0.0627
 1006TIP3   OH224432   4.311   6.433  16.878  0.5760  0.1830 -0.0000
 1006TIP3    H124433   4.222   6.463  16.860 -0.3911 -2.2434  0.3399
 1006TIP3    H224434   4.313   6.421  16.973  1.6365  1.1406  0.1314
 1007TIP3   OH224435   3.073   2.259   2.774  0.0283 -0.4140 -0.0015
 1007TIP3    H124436   3.141   2.301   2.721  1.4786 -0.3324  1.8112
 1007TIP3    H224437   3.087   2.294   2.862 -3.0547  0.3616  0.2696
 1008TIP3   OH224438   5.239   0.325   5.468 -0.2358  0.3168 -0.2818
 1008TIP3    H124439   5.155   0.348   5.508 -0.6582  1.8840 -1.9238
 1008TIP3    H224440   5.305   0.360   5.529 -0.6071 -2.6611  2.0408
 1009TIP3   OH224441   4.166   2.882  14.063  0.2401 -0.1254 -0.3235
 1009TIP3    H124442   4.095   2.847  14.009 -0.5033 -0.0185  0.5782
 1009TIP3    H224443   4.165   2.976  14.045 -1.7900  0.3599  1.8492
 1010TIP3   OH224444   0.011   1.547  15.130  0.2932  0.3990  0.2644
 1010TIP3    H124445   0.090   1.493  15.120  1.1457  1.4225  1.2898
 1010TIP3    H224446   0.027   1.623  15.075 -0.6557 -0.0756 -0.7082
 1011TIP3   OH224447   1.227   2.636  14.136 -0.2898 -0.0266 -0.3062
 1011TIP3    H124448   1.212   2.611  14.227  1.1157 -0.0537 -0.0640
 1011TIP3    H224449   1.256   2.728  14.140  0.6131 -0.2838 -0.6332
 1012TIP3   OH224450   4.888   5.953   3.990 -0.0516 -0.2899  0.7452
 1012TIP3    H124451   4.816   5.891   3.983 -0.5827  0.2416  1.4418
 1012TIP3    H224452   4.887   5.982   4.081  0.2909  0.6229  0.4701
 1013TIP3   OH224453   3.534   5.679   4.699 -0.4048 -0.5997 -0.3243
 1013TIP3    H124454   3.602   5.613   4.690  1.0861  0.9287 -0.7830
 1013TIP3    H224455   3.483   5.672   4.618 -1.4204 -2.3484  0.4056
 1014TIP3   OH224456   4.506   0.681   4.416 -0.3276  0.1175 -0.1001
 1014TIP3    H124457   4.461   0.691   4.500 -0.3158 -0.2241 -0.0509
 1014TIP3    H224458   4.589   0.727   4.428 -0.1462 -0.2766  0.2191
 1015TIP3   OH224459   4.332   1.865  15.880 -0.0700  0.8625  0.0615
 1015TIP3    H124460   4.268   1.916  15.931 -0.7369  0.3730 -0.2634
 1015TIP3    H224461   4.356   1.922  15.807 -1.1554  0.5688 -0.5522
 1016TIP3   OH224462   2.439   3.597  16.457 -0.3507  0.2179 -0.4632
 1016TIP3    H124463   2.435   3.504  16.480  1.5021  0.4729  1.1968
 1016TIP3    H224464   2.440   3.598  16.361 -1.1923 -1.4097 -0.5222
 1017TIP3   OH224465   2.965   1.303  10.893  0.0148  0.1909 -0.5189
 1017TIP3    H124466   2.990   1.275  10.805  1.5340 -1.3771  0.3438
 1017TIP3    H224467   2.896   1.242  10.919 -0.1649  0.4095 -0.4794
 1018TIP3   OH224468   5.578   3.922  16.377 -0.2756 -0.5394 -0.4331
 1018TIP3    H124469   5.545   3.851  16.323 -0.2315 -1.3830  0.6062
 1018TIP3    H224470   5.598   3.881  16.461 -0.1147  0.6794  0.1530
 1019TIP3   OH224471   4.345   4.751   5.028  0.3366  0.1221 -0.5720
 1019TIP3    H124472   4.334   4.692   5.102 -0.9301  1.0467  0.0194
 1019TIP3    H224473   4.431   4.729   4.992  0.7207 -0.7483  0.8056
 1020TIP3   OH224474   4.930   1.789   2.890  0.0994  0.1195  0.2504
 1020TIP3    H124475   4.950   1.771   2.798 -1.3027 -0.5467  0.0464
 1020TIP3    H224476   4.847   1.836   2.888  0.2299  0.4048  1.1707
 1021TIP3   OH224477   5.010   3.003   4.867  0.1637 -0.0689 -0.6178
 1021TIP3    H124478   4.921   3.038   4.863  0.5372  0.9745 -0.1917
 1021TIP3    H224479   5.051   3.031   4.785  1.6723  4.0343  1.2973
 1022TIP3   OH224480   0.235   4.644  14.596 -0.1942  0.6565 -0.1488
 1022TIP3    H124481   0.220   4.584  14.669 -4.4845 -0.8995 -2.0446
 1022TIP3    H224482   0.185   4.722  14.619  0.6308  1.2377 -0.2886
 1023TIP3   OH224483   6.311   1.466   4.045  0.0310 -0.1379 -0.2101
 1023TIP3    H124484   6.354   1.459   3.960  2.1168  2.1488  0.5472
 1023TIP3    H224485   6.380   1.450   4.109 -0.7136  1.3398  1.0574
 1024TIP3   OH224486   3.464   1.572  17.127 -0.0289 -0.4469  0.3854
 1024TIP3    H124487   3.472   1.482  17.095 -0.9418 -0.3981 -0.0148
 1024TIP3    H224488   3.404   1.614  17.065 -0.9734 -0.0473  1.5468
 1025TIP3   OH224489   0.268   5.448   4.148 -0.5779 -0.3026  0.7309
 1025TIP3    H124490   0.295   5.359   4.126 -0.3911  0.0516 -0.5743
 1025TIP3    H224491   0.181   5.438   4.185 -1.3191 -0.9043 -1.0630
 1026TIP3   OH224492   6.521   4.445  16.682  0.4384  0.3900 -0.0606
 1026TIP3    H124493   6.578   4.454  16.758  1.7028 -1.7126 -0.6642
 1026TIP3    H224494   6.432   4.449  16.717  0.9830  0.3487  1.3937
 1027TIP3   OH224495   5.763   6.039  13.910 -0.0786  0.2856 -0.1590
 1027TIP3    H124496   5.833   5.973  13.910 -0.5167 -0.1893  0.2692
 1027TIP3    H224497   5.696   6.002  13.852 -0.5017  0.1512  0.4062
 1028TIP3   OH224498   4.412   3.163  14.302  0.1029 -0.8904  0.0600
 1028TIP3    H124499   4.321   3.184  14.282  0.2299 -0.0726  0.2982
 1028TIP3    H224500   4.451   3.246  14.328  0.8383 -1.2901  0.2805
 1029TIP3   OH224501   3.621   1.839   1.108 -0.0794 -0.8036 -0.0202
 1029TIP3    H124502   3.706   1.882   1.106 -0.0000 -0.9658 -0.8192
 1029TIP3    H224503   3.581   1.865   1.190  0.4437 -0.1397  0.0230
 1030TIP3   OH224504   2.439   4.884  13.570 -0.4315  0.3169 -0.2484
 1030TIP3    H124505   2.356   4.840  13.552  0.0489 -0.6346 -0.1815
 1030TIP3    H224506   2.452   4.871  13.664 -0.3934  0.7962 -0.1874
 1031TIP3   OH224507   1.338   2.358  11.973  0.7110  0.5985  0.1125
 1031TIP3    H124508   1.377   2.363  11.886  0.6795 -0.7052  0.0048
 1031TIP3    H224509   1.316   2.265  11.984  1.3866  0.6177  1.8123
 1032TIP3   OH224510   4.200   4.142   5.517 -0.4140  0.3304  0.2424
 1032TIP3    H124511   4.197   4.108   5.606 -0.2688  0.3781  0.2657
 1032TIP3    H224512   4.190   4.064   5.462 -0.0913  0.2512  0.2969
 1033TIP3   OH224513   2.773   0.068   2.973  0.9956 -0.1449 -0.0327
 1033TIP3    H124514   2.785   0.163   2.973  1.6607 -0.1428 -2.8553
 1033TIP3    H224515   2.851   0.034   2.930  0.9871 -2.0340  1.3682
 1034TIP3   OH224516   2.453   2.653   1.575  0.0874 -0.1016  0.0574
 1034TIP3    H124517   2.532   2.694   1.539 -0.2898 -0.7567 -1.6255
 1034TIP3    H224518   2.477   2.631   1.665  1.6008  0.3100 -0.2101
 1035TIP3   OH224519   3.805   1.428  15.989 -0.1625  0.1253 -0.6065
 1035TIP3    H124520   3.744   1.434  16.063 -0.8055 -0.2165 -1.0887
 1035TIP3    H224521   3.884   1.389  16.025 -0.2818  0.4438  0.0078
 1036TIP3   OH224522   5.569   1.535  15.424  0.4612 -0.0097  0.2999
 1036TIP3    H124523   5.494   1.549  15.366 -0.9226 -2.1052  1.4475
 1036TIP3    H224524   5.608   1.622  15.434 -1.2459  0.9857 -1.0936
 1037TIP3   OH224525   3.825   4.401  12.291 -0.0111  0.0268 -0.8776
 1037TIP3    H124526   3.796   4.328  12.345 -0.2523  1.5131  1.1470
 1037TIP3    H224527   3.871   4.459  12.352  1.4838  0.8719 -2.6919
 1038TIP3   OH224528   6.288   4.368   3.730 -0.8393 -0.7158  0.0685
 1038TIP3    H124529   6.213   4.315   3.758 -1.0522 -0.3154  0.2667
 1038TIP3    H224530   6.285   4.445   3.786 -0.6681 -0.3808 -0.3759
 1039TIP3   OH224531   3.592   4.572  15.350  0.6760  0.1844 -0.3894
 1039TIP3    H124532   3.552   4.618  15.277 -0.0223  1.4587  0.7443
 1039TIP3    H224533   3.618   4.641  15.411 -0.6369 -0.8749  1.4980
 1040TIP3   OH224534   6.624   1.882   1.229  0.1924  0.1488  0.3870
 1040TIP3    H124535   6.645   1.872   1.322  2.2873 -1.5014 -0.1844
 1040TIP3    H224536   6.531   1.858   1.224 -0.1326  0.8509  2.1151
 1041TIP3   OH224537   5.982   0.773   3.906  0.1902  0.3975  0.3467
 1041TIP3    H124538   6.003   0.840   3.971  0.8654  0.3495  0.1914
 1041TIP3    H224539   6.067   0.735   3.884 -0.1489 -0.2511  0.1558
 1042TIP3   OH224540   1.520   6.280  12.543 -0.6052  0.6028 -0.1685
 1042TIP3    H124541   1.513   6.280  12.447  0.5172 -0.1520 -0.2720
 1042TIP3    H224542   1.501   6.189  12.568 -2.6463  1.1719  0.5046
 1043TIP3   OH224543   0.484   1.761   4.533  0.9487  0.3520  0.0641
 1043TIP3    H124544   0.438   1.726   4.609  0.5908  1.0128  0.1599
 1043TIP3    H224545   0.469   1.855   4.538 -0.9574  0.2378 -2.0281
 1044TIP3   OH224546   1.087   0.143   1.054 -0.2242  0.0654 -0.1932
 1044TIP3    H124547   1.163   0.086   1.059  0.2190  0.6260 -0.4726
 1044TIP3    H224548   1.014   0.084   1.034 -0.0171 -0.5892  0.9062
 1045TIP3   OH224549   4.202   5.344  13.983 -0.3188  0.2070  0.1017
 1045TIP3    H124550   4.279   5.374  13.935  0.3015  0.1425  1.0326
 1045TIP3    H224551   4.189   5.410  14.051 -0.5797 -0.2214  0.4690
 1046TIP3   OH224552   4.782   0.581   1.293 -0.0192  0.1183  0.4449
 1046TIP3    H124553   4.828   0.606   1.373  0.3870  2.7618 -0.5115
 1046TIP3    H224554   4.741   0.662   1.262 -1.5501 -1.1849 -1.1626
 1047TIP3   OH224555   5.263   5.649  15.907  0.0580 -0.1720  0.3056
 1047TIP3    H124556   5.243   5.739  15.934  0.0796  0.8091 -2.5423
 1047TIP3    H224557   5.181   5.615  15.873  0.1492 -1.1309  0.9878
 1048TIP3   OH224558   2.920   2.041  12.297 -0.5448 -0.0036  0.1266
 1048TIP3    H124559   2.855   2.075  12.235 -1.7013 -0.3239  1.1355
 1048TIP3    H224560   3.002   2.084  12.271 -1.6121  2.2868  0.2937
 1049TIP3   OH224561   0.743   5.884   2.025 -0.0251 -0.3817  0.4156
 1049TIP3    H124562   0.705   5.849   2.106 -1.5054  1.3973  0.5562
 1049TIP3    H224563   0.815   5.939   2.055  1.4939 -2.1967  0.2695
 1050TIP3   OH224564   2.613   2.635  16.371  0.1147  0.5375  0.5509
 1050TIP3    H124565   2.678   2.577  16.331  0.4151  1.2517 -0.0080
 1050TIP3    H224566   2.605   2.708  16.310 -0.3848  1.0064  1.1653
 1051TIP3   OH224567   5.245   4.433  14.578 -0.3349 -0.1081 -0.6446
 1051TIP3    H124568   5.151   4.415  14.571 -0.6248  1.1951 -0.3403
 1051TIP3    H224569   5.274   4.381  14.653 -0.7178 -0.8358 -0.9857
 1052TIP3   OH224570   6.268   1.505   6.374 -0.2268 -0.2491  0.8787
 1052TIP3    H124571   6.333   1.495   6.444 -0.4227 -1.1085  0.9424
 1052TIP3    H224572   6.318   1.491   6.293  0.0664  1.0636  0.8138
 1053TIP3   OH224573   0.327   2.464   3.787  0.0439  0.2206 -0.5692
 1053TIP3    H124574   0.237   2.495   3.785 -0.3592 -0.5134  2.1222
 1053TIP3    H224575   0.378   2.539   3.819  0.2913  0.3951 -1.3471
 1054TIP3   OH224576   2.276   4.607   3.686  0.0050  0.0082 -0.2201
 1054TIP3    H124577   2.312   4.668   3.621 -1.5745 -0.5544 -1.7054
 1054TIP3    H224578   2.187   4.591   3.657 -0.4341 -1.0665  1.5647
 1055TIP3   OH224579   1.435   4.365  14.797  0.1526 -0.5567  0.4620
 1055TIP3    H124580   1.437   4.305  14.722  0.6164 -0.1639  0.1537
 1055TIP3    H224581   1.435   4.307  14.873  0.5935 -0.9602  0.1658
 1056TIP3   OH224582   6.249   1.827  13.530  0.0470 -0.2413 -0.4609
 1056TIP3    H124583   6.230   1.920  13.540 -0.0635 -0.4472  1.6548
 1056TIP3    H224584   6.164   1.784  13.526  0.0621 -0.4090  0.6439
 1057TIP3   OH224585   2.518   4.391   4.912  0.4156 -1.0574 -0.0255
 1057TIP3    H124586   2.434   4.425   4.943  0.4128 -1.2003  0.1292
 1057TIP3    H224587   2.550   4.338   4.985  0.9342 -0.5034  0.1507
 1058TIP3   OH224588   6.364   3.889  14.017 -0.4831  0.5101  0.3133
 1058TIP3    H124589   6.413   3.836  14.080 -1.6160 -2.1557 -0.8773
 1058TIP3    H224590   6.308   3.944  14.071 -0.1903 -0.4610  1.6675
 1059TIP3   OH224591   1.049   2.889   4.603 -0.6331  0.5598  0.5867
 1059TIP3    H124592   0.971   2.838   4.584  0.2005 -0.3883 -0.4358
 1059TIP3    H224593   1.062   2.943   4.525  0.3679 -0.1551  0.2298
 1060TIP3   OH224594   0.992   1.115  17.072  0.0916 -0.2501 -0.0061
 1060TIP3    H124595   0.921   1.059  17.105  1.2630 -2.0019 -0.3670
 1060TIP3    H224596   0.947   1.178  17.015 -1.1898 -1.2550 -0.1613
 1061TIP3   OH224597   1.784   0.137   6.731 -0.7004 -0.4911 -0.2003
 1061TIP3    H124598   1.707   0.107   6.779 -0.7877  1.0877  0.7470
 1061TIP3    H224599   1.858   0.116   6.788 -0.7637  0.9875  0.4700
 1062TIP3   OH224600   0.818   0.932  16.719 -0.1926 -0.4840 -0.3803
 1062TIP3    H124601   0.733   0.892  16.702 -0.8589 -0.1483  1.8344
 1062TIP3    H224602   0.798   1.024  16.737  0.9001  0.0695 -1.8474
 1063TIP3   OH224603   1.584   3.174   2.466 -0.0388  0.8040  0.7625
 1063TIP3    H124604   1.562   3.089   2.429 -0.8984  0.8488  1.1431
 1063TIP3    H224605   1.529   3.181   2.545  0.4239  1.4725  1.0358
 1064TIP3   OH224606   3.595   1.007   0.257  0.9482  0.1072  0.2610
 1064TIP3    H124607   3.652   0.967   0.322  1.0868  1.0571  0.7317
 1064TIP3    H224608   3.645   1.080   0.222 -0.7015  2.3202  2.2122
 1065TIP3   OH224609   6.371   6.034   3.334  0.9826 -0.4716  0.4311
 1065TIP3    H124610   6.388   5.961   3.275  1.2411 -2.5250  2.8768
 1065TIP3    H224611   6.457   6.072   3.351  1.0943 -0.7789  0.5620
 1066TIP3   OH224612   1.191   6.679  16.939  0.1308 -0.2356  0.0102
 1066TIP3    H124613   1.192   6.584  16.948 -0.3347 -0.2096  0.3520
 1066TIP3    H224614   1.145   6.695  16.857  0.9133 -0.3297 -0.4564
 1067TIP3   OH224615   0.781   2.601   2.887 -0.2073  0.2709  0.1568
 1067TIP3    H124616   0.807   2.530   2.829  1.2799  0.3286  0.7089
 1067TIP3    H224617   0.812   2.680   2.843 -0.1709  0.4164  0.4401
 1068TIP3   OH224618   0.944   1.933   2.547 -0.3589  0.0683  0.3730
 1068TIP3    H124619   0.856   1.953   2.578 -0.6562 -0.3793 -0.1673
 1068TIP3    H224620   0.931   1.870   2.476  0.2588  1.4730 -1.0310
 1069TIP3   OH224621   4.150   3.722  11.746  0.4099 -0.0525  0.2216
 1069TIP3    H124622   4.105   3.801  11.776  0.7584  0.3279 -0.2547
 1069TIP3    H224623   4.243   3.743  11.755  0.5472  0.2894 -1.6444
 1070TIP3   OH224624   5.726   4.643  14.601 -0.0315 -0.1329  0.2785
 1070TIP3    H124625   5.790   4.571  14.599 -0.1132 -0.1959 -1.1705
 1070TIP3    H224626   5.726   4.677  14.511  1.2453  2.8088  1.2639
 1071TIP3   OH224627   3.553   3.019   5.262  0.1887  0.1007  0.3452
 1071TIP3    H124628   3.591   3.058   5.183 -3.0148  1.4653 -0.6707
 1071TIP3    H224629   3.514   2.938   5.232 -0.1348  0.1005  0.7615
 1072TIP3   OH224630   5.271   1.440  15.118 -0.2119 -0.1588 -0.5683
 1072TIP3    H124631   5.307   1.490  15.045 -0.9979  0.2678 -0.6794
 1072TIP3    H224632   5.270   1.350  15.087 -0.0129 -0.0589 -0.8687
 1073TIP3   OH224633   2.275   1.454  11.699  0.3702  0.4346  0.0056
 1073TIP3    H124634   2.319   1.501  11.628 -1.0243  0.5172 -0.8436
 1073TIP3    H224635   2.324   1.372  11.708  0.7631  0.5687 -0.8239
 1074TIP3   OH224636   4.391   5.283   3.128  0.3642  0.1221 -0.2285
 1074TIP3    H124637   4.404   5.378   3.122  0.7886  0.0245 -0.9614
 1074TIP3    H224638   4.366   5.257   3.039 -0.6894 -0.3235  0.1813
 1075TIP3   OH224639   4.911   3.332   1.858  0.4367  0.6611 -0.0295
 1075TIP3    H124640   4.974   3.304   1.792 -0.9268  1.4813 -1.7794
 1075TIP3    H224641   4.944   3.416   1.889  0.4945  0.8374 -0.5524
 1076TIP3   OH224642   6.280   2.694  15.449 -0.3261  0.9624  0.2655
 1076TIP3    H124643   6.241   2.619  15.493 -0.3017  0.5819 -0.3544
 1076TIP3    H224644   6.274   2.673  15.355 -1.4539  2.2584  0.0139
 1077TIP3   OH224645   1.188   0.590   6.212 -0.1320 -0.3050 -0.3325
 1077TIP3    H124646   1.149   0.660   6.265 -0.9537 -1.1096  0.1659
 1077TIP3    H224647   1.215   0.524   6.277 -0.4849 -0.9814 -0.8594
 1078TIP3   OH224648   5.589   3.259   4.443  0.2222 -0.1485  0.3247
 1078TIP3    H124649   5.553   3.257   4.532  0.1290  0.8426  0.3159
 1078TIP3    H224650   5.605   3.167   4.422 -0.7631 -0.4737  0.9487
 1079TIP3   OH224651   3.622   1.306  15.799  0.3956 -0.5384 -0.5221
 1079TIP3    H124652   3.628   1.361  15.721  0.7728 -1.1303 -0.9240
 1079TIP3    H224653   3.690   1.341  15.858  0.3997 -0.3588 -0.6315
 1080TIP3   OH224654   5.445   5.253  12.415 -0.4493  0.4112  0.8160
 1080TIP3    H124655   5.411   5.191  12.351 -0.1443  1.6328 -0.5774
 1080TIP3    H224656   5.538   5.259  12.397 -0.1378 -0.0418  2.1216
 1081TIP3   OH224657   2.133   1.417  16.081 -0.6230 -0.0213 -0.4015
 1081TIP3    H124658   2.129   1.509  16.106 -2.5825 -0.0930 -0.3230
 1081TIP3    H224659   2.167   1.373  16.159 -0.9767  0.4772  0.0474
 1082TIP3   OH224660   6.157   2.234   3.390  0.1968 -0.3482 -0.4153
 1082TIP3    H124661   6.102   2.271   3.321  0.4226  1.7470  0.4297
 1082TIP3    H224662   6.223   2.183   3.344 -0.1409  0.3278 -1.7062
 1083TIP3   OH224663   3.115   4.580   0.890  0.0426  0.5714  0.1838
 1083TIP3    H124664   3.107   4.568   0.985  0.5295 -1.0199  0.0668
 1083TIP3    H224665   3.112   4.491   0.855 -0.2547  1.1468 -1.3149
 1084TIP3   OH224666   6.091   1.364  14.902 -0.1001  0.6332  0.1907
 1084TIP3    H124667   6.002   1.388  14.879  0.1752  2.1061  0.5811
 1084TIP3    H224668   6.146   1.407  14.837  0.4563  1.7259  1.3378
 1085TIP3   OH224669   5.060   2.744   0.035  0.0783  0.2839 -0.1175
 1085TIP3    H124670   5.098   2.748   0.123 -2.1254  2.0644  0.8804
 1085TIP3    H224671   5.079   2.830  -0.003 -0.1719  0.0309 -0.8284
 1086TIP3   OH224672   2.394   0.083   0.960  0.5289 -0.5649 -0.5590
 1086TIP3    H124673   2.335   0.055   1.030 -1.3478  2.3449 -0.8026
 1086TIP3    H224674   2.473   0.113   1.005 -0.7543  1.5323  0.4611
 1087TIP3   OH224675   0.367   0.263  10.979  0.3525 -0.4759 -0.1575
 1087TIP3    H124676   0.288   0.210  10.975  0.1619 -0.3499  1.2376
 1087TIP3    H224677   0.357   0.327  10.909  0.9305 -2.6817 -2.3717
 1088TIP3   OH224678   5.171   1.534   2.644 -0.0884  0.2919  0.0332
 1088TIP3    H124679   5.234   1.515   2.575  0.5924  2.1772  0.0793
 1088TIP3    H224680   5.215   1.510   2.725  0.0294  0.2849 -0.0330
 1089TIP3   OH224681   2.655   4.148  13.430 -0.0377  0.4453 -0.0142
 1089TIP3    H124682   2.717   4.212  13.464  0.6819  0.0116 -0.4744
 1089TIP3    H224683   2.650   4.167  13.337 -0.2543  0.1924 -0.0538
 1090TIP3   OH224684   0.273   6.753   4.868 -0.5505  0.2170  0.2071
 1090TIP3    H124685   0.283   6.658   4.876  2.0356  0.2409 -1.5601
 1090TIP3    H224686   0.180   6.766   4.850 -0.7123 -2.1278 -1.0800
 1091TIP3   OH224687   1.680   3.873   5.583  0.0043  0.1604 -0.2343
 1091TIP3    H124688   1.586   3.853   5.586  0.0459 -0.0080  0.0054
 1091TIP3    H224689   1.690   3.932   5.509 -0.4085  0.7698  0.1869
 1092TIP3   OH224690   6.733   4.691   3.085 -0.5887  1.0273  0.2275
 1092TIP3    H124691   6.689   4.738   3.156 -0.9966  0.6905  0.2028
 1092TIP3    H224692   6.812   4.743   3.067  0.2509  0.3672  1.8563
 1093TIP3   OH224693   1.732   4.047   5.351 -0.0527 -0.1361  0.0431
 1093TIP3    H124694   1.710   4.117   5.412  0.6200 -1.8810  2.4580
 1093TIP3    H224695   1.826   4.056   5.337  0.4515 -1.6735  2.0212
 1094TIP3   OH224696   5.918   4.429  11.564 -0.8873 -0.1122  0.6267
 1094TIP3    H124697   5.854   4.448  11.633  2.5627  0.2721  4.1466
 1094TIP3    H224698   5.961   4.349  11.594  1.1547  0.3957 -0.7783
 1095TIP3   OH224699   3.664   3.874   4.196  0.6565 -0.0616  0.2127
 1095TIP3    H124700   3.602   3.947   4.193  1.0274  0.3058  1.0873
 1095TIP3    H224701   3.634   3.815   4.127  0.4443  0.9825 -0.6305
 1096TIP3   OH224702   5.591   0.127   4.093 -0.5568 -0.0702  0.7278
 1096TIP3    H124703   5.569   0.086   4.010  1.1775 -1.2378  0.7987
 1096TIP3    H224704   5.660   0.190   4.072 -0.4400 -0.0271  1.2227
 1097TIP3   OH224705   2.176   0.772  16.027 -0.1144  0.3323 -0.0048
 1097TIP3    H124706   2.121   0.786  15.950 -3.2587 -1.3648  1.7214
 1097TIP3    H224707   2.220   0.688  16.010 -1.0660 -0.2100  0.1417
 1098TIP3   OH224708   6.324   3.677   0.603  0.0120 -0.2248 -0.6673
 1098TIP3    H124709   6.391   3.691   0.536  0.5995 -3.2850 -0.8334
 1098TIP3    H224710   6.245   3.654   0.555 -0.9441  2.1371 -0.4053
 1099TIP3   OH224711   6.589   4.352   2.147 -0.1257 -0.0079  0.0336
 1099TIP3    H124712   6.592   4.304   2.230  0.7816  1.9065  1.1717
 1099TIP3    H224713   6.535   4.297   2.089  0.7185 -2.2770  1.2832
 1100TIP3   OH224714   0.898   2.876   1.408 -0.4639 -0.3125  0.9754
 1100TIP3    H124715   0.827   2.881   1.472  1.1573  0.9523  2.8169
 1100TIP3    H224716   0.977   2.897   1.459  1.1472 -0.9866 -1.1083
 1101TIP3   OH224717   0.675   2.627   1.464 -0.1985  0.2270 -0.0393
 1101TIP3    H124718   0.678   2.709   1.415  1.4375  0.5921  0.6213
 1101TIP3    H224719   0.725   2.566   1.411  0.0213  0.1180  0.2952
 1102TIP3   OH224720   0.457   4.314   3.925 -0.3568  0.3481 -0.6486
 1102TIP3    H124721   0.430   4.224   3.944 -0.1414  0.5126  0.5104
 1102TIP3    H224722   0.473   4.315   3.831 -1.5821 -0.4977 -0.8928
 1103TIP3   OH224723   1.103   1.307  14.344  0.4019  0.1399  0.4864
 1103TIP3    H124724   1.014   1.273  14.342  0.7308 -0.7280 -0.7231
 1103TIP3    H224725   1.103   1.372  14.415 -1.7013  1.5361 -0.6803
 1104TIP3   OH224726   6.281   5.106  11.128 -0.3927  0.1391  0.0420
 1104TIP3    H124727   6.229   5.025  11.129 -0.7176  0.3363  0.9082
 1104TIP3    H224728   6.346   5.093  11.059 -0.1115 -1.0761  0.5053
 1105TIP3   OH224729   4.301   4.012  16.049 -0.2287 -0.5761  0.2257
 1105TIP3    H124730   4.309   3.919  16.070 -1.2008 -0.3870  1.5707
 1105TIP3    H224731   4.206   4.025  16.040 -0.0792  0.2420 -0.1773
 1106TIP3   OH224732   2.726   5.102  15.359 -0.5016 -0.4757 -0.1681
 1106TIP3    H124733   2.736   5.195  15.337  0.6332 -0.5443 -0.0382
 1106TIP3    H224734   2.636   5.094  15.390 -0.4268  0.7226  0.4496
 1107TIP3   OH224735   1.223   2.819  16.139 -0.6437  0.0727 -0.0011
 1107TIP3    H124736   1.204   2.911  16.159 -0.4254 -0.0820  0.9958
 1107TIP3    H224737   1.152   2.770  16.181 -1.6769 -0.1467 -1.9196
 1108TIP3   OH224738   2.637   2.502  14.440 -0.2362 -0.2333  0.0926
 1108TIP3    H124739   2.603   2.564  14.504  0.4337 -1.2675  1.5012
 1108TIP3    H224740   2.687   2.439  14.492  2.2584  0.1404 -1.6545
 1109TIP3   OH224741   5.809   6.087  11.984  0.0624  0.0063  0.4741
 1109TIP3    H124742   5.875   6.132  12.037 -0.0636  0.1014  0.5512
 1109TIP3    H224743   5.774   6.019  12.042 -0.7515  0.7279  0.8367
 1110TIP3   OH224744   3.019   0.499   0.481 -1.3489  0.2133  0.2291
 1110TIP3    H124745   3.038   0.592   0.474 -1.0653  0.0923 -0.7798
 1110TIP3    H224746   2.957   0.481   0.411 -0.7955 -0.4940 -0.1007
 1111TIP3   OH224747   4.278   5.459   2.316 -0.0974 -0.8666  0.2969
 1111TIP3    H124748   4.260   5.390   2.379 -3.5186 -2.5863 -2.1851
 1111TIP3    H224749   4.198   5.512   2.315  1.2069  1.2087 -0.1991
 1112TIP3   OH224750   1.257   6.644   3.002 -0.3834  0.4101  0.3977
 1112TIP3    H124751   1.272   6.664   3.094 -1.3036 -1.0131  0.8881
 1112TIP3    H224752   1.296   6.557   2.990  0.7117  1.0299 -0.8519
 1113TIP3   OH224753   1.315   2.196  11.309 -0.2886  0.6448  0.3027
 1113TIP3    H124754   1.280   2.117  11.267 -0.2792  1.0778 -0.5411
 1113TIP3    H224755   1.407   2.199  11.280  0.0468  0.3246  1.2985
 1114TIP3   OH224756   5.147   6.001  13.870 -0.0375  0.1702 -0.4923
 1114TIP3    H124757   5.131   6.077  13.813 -1.7842  0.7374  0.6879
 1114TIP3    H224758   5.163   5.929  13.809  0.4882  1.2327 -1.6620
 1115TIP3   OH224759   1.875   1.672   4.082 -0.0017  0.8700  0.3793
 1115TIP3    H124760   1.926   1.728   4.024  0.1998  0.1878 -0.1133
 1115TIP3    H224761   1.904   1.697   4.170 -1.1374  2.7115  0.2735
 1116TIP3   OH224762   2.312   3.968   2.346 -0.3970 -0.4482 -0.3954
 1116TIP3    H124763   2.345   3.900   2.288 -1.9332 -0.9084 -0.7559
 1116TIP3    H224764   2.258   4.024   2.291  0.6087  0.9476 -0.0499
 1117TIP3   OH224765   4.183   3.818   5.016 -0.1538 -0.1055 -0.0789
 1117TIP3    H124766   4.237   3.748   4.979  0.7260  0.6584 -0.2948
 1117TIP3    H224767   4.246   3.877   5.057 -0.8105  0.8632 -0.4229
 1118TIP3   OH224768   0.552   3.780   2.201  0.2558 -0.2579  0.0706
 1118TIP3    H124769   0.500   3.860   2.197  1.3328  0.4465 -0.1777
 1118TIP3    H224770   0.543   3.741   2.115 -1.7288 -1.3887  0.7194
 1119TIP3   OH224771   5.634   1.318  12.025  0.2618 -0.0834 -0.3937
 1119TIP3    H124772   5.648   1.225  12.047  0.3974 -0.1799 -0.8705
 1119TIP3    H224773   5.554   1.342  12.071  1.5136  0.2472  1.7324
 1120TIP3   OH224774   4.676   1.872   3.011 -0.0706  0.8330 -0.1992
 1120TIP3    H124775   4.589   1.836   3.028 -0.1888  0.5717 -1.2793
 1120TIP3    H224776   4.686   1.944   3.073 -1.1763  1.0582 -0.2745
 1121TIP3   OH224777   1.343   3.329   4.584  0.0794  0.5971  0.1964
 1121TIP3    H124778   1.435   3.310   4.603  0.0780 -0.4668 -0.7949
 1121TIP3    H224779   1.329   3.417   4.619  1.4985  0.8090  0.2686
 1122TIP3   OH224780   5.593   6.507  13.559  0.0328 -0.0631  0.4581
 1122TIP3    H124781   5.665   6.565  13.586  0.8095 -0.4219 -0.7967
 1122TIP3    H224782   5.636   6.432  13.519 -1.0350  0.1965 -1.2939
 1123TIP3   OH224783   0.690   6.419  12.906 -0.2952 -0.6449 -0.7258
 1123TIP3    H124784   0.694   6.514  12.895 -3.0687  0.0553  2.6233
 1123TIP3    H224785   0.779   6.393  12.928  0.2305  1.4651 -0.1703
 1124TIP3   OH224786   0.018   2.215  11.730 -0.0431 -0.3122  0.0959
 1124TIP3    H124787  -0.009   2.292  11.681 -0.2672 -0.2737  0.2822
 1124TIP3    H224788   0.101   2.189  11.689 -0.3363 -0.4144 -0.4495
 1125TIP3   OH224789   6.115   6.574   0.256 -0.1554  0.0058  0.7176
 1125TIP3    H124790   6.024   6.546   0.251  0.1850 -1.0478  0.2576
 1125TIP3    H224791   6.151   6.556   0.170  0.2611  1.3075  0.5912
 1126TIP3   OH224792   4.662   6.461   4.937 -0.7003 -0.0178 -0.4142
 1126TIP3    H124793   4.705   6.547   4.943  0.2854 -0.4487 -1.0213
 1126TIP3    H224794   4.641   6.452   4.844  1.0169 -1.2526 -0.7438
 1127TIP3   OH224795   5.529   5.651   3.527 -0.0094 -0.0141 -0.5737
 1127TIP3    H124796   5.494   5.639   3.615  2.1420 -0.5851  0.2931
 1127TIP3    H224797   5.539   5.745   3.518  1.4070 -0.0166  0.5602
 1128TIP3   OH224798   5.079   4.030  16.635 -0.4599 -0.3068 -0.5245
 1128TIP3    H124799   5.021   3.955  16.648  0.2562 -1.4564 -3.1639
 1128TIP3    H224800   5.137   4.003  16.563 -0.5548  2.9907 -2.0472
 1129TIP3   OH224801   3.250   0.695  13.377 -0.8545 -0.5365 -0.0492
 1129TIP3    H124802   3.322   0.632  13.368  0.1254  0.6361 -0.7117
 1129TIP3    H224803   3.208   0.672  13.460  1.3316 -0.2296  1.2145
 1130TIP3   OH224804   3.773   1.945  16.274 -0.0805 -0.4278  0.0468
 1130TIP3    H124805   3.814   2.029  16.297  1.5829 -1.3234  0.5326
 1130TIP3    H224806   3.688   1.969  16.238 -0.3393  1.3850  1.6976
 1131TIP3   OH224807   2.714   1.668   6.561  0.2826  0.2646 -0.0096
 1131TIP3    H124808   2.635   1.615   6.572  1.0546 -0.5716  1.9747
 1131TIP3    H224809   2.711   1.731   6.633  0.9609  0.8456 -0.4730
 1132TIP3   OH224810   4.158   4.911  16.441 -0.4198 -0.5036  0.1125
 1132TIP3    H124811   4.242   4.921  16.396  0.9674  0.5971  2.6626
 1132TIP3    H224812   4.144   4.817  16.445  1.1859 -0.7622  0.3719
 1133TIP3   OH224813   5.568   2.682  12.886 -0.3504 -0.4356 -0.1182
 1133TIP3    H124814   5.610   2.646  12.964  1.4339  0.3697 -0.6639
 1133TIP3    H224815   5.640   2.701  12.826 -1.3015  2.5730 -0.4781
 1134TIP3   OH224816   5.489   5.529   5.051 -0.0273  0.2819 -0.0648
 1134TIP3    H124817   5.555   5.578   5.099 -0.0840  1.1928 -0.8841
 1134TIP3    H224818   5.535   5.494   4.975 -0.2288 -0.0376 -0.0406
 1135TIP3   OH224819   2.789   1.822   1.668  0.3721 -0.0765  0.4766
 1135TIP3    H124820   2.814   1.731   1.684 -1.7599 -0.5145  1.7639
 1135TIP3    H224821   2.711   1.835   1.723 -0.2841  2.0588 -0.8476
 1136TIP3   OH224822   4.062   1.129  14.275  0.1674  0.1098  0.2120
 1136TIP3    H124823   4.004   1.106  14.347 -1.0051 -1.8046 -1.2408
 1136TIP3    H224824   4.024   1.207  14.236  0.3652  0.6880  1.1577
 1137TIP3   OH224825   4.326   1.422   0.398 -0.8555  0.4200  0.2705
 1137TIP3    H124826   4.370   1.507   0.395  0.6219 -0.3267 -0.0210
 1137TIP3    H224827   4.308   1.400   0.307 -0.9349  0.2688  0.3216
 1138TIP3   OH224828   5.566   1.936   4.777 -0.3849  0.5099 -0.2293
 1138TIP3    H124829   5.649   1.965   4.740  0.5512 -0.2285  1.2236
 1138TIP3    H224830   5.517   2.017   4.795  1.4362  1.2055  2.0703
 1139TIP3   OH224831   6.073   1.436   5.747 -0.7154 -0.4775 -0.2344
 1139TIP3    H124832   6.055   1.484   5.666 -1.1137  1.8791  1.1840
 1139TIP3    H224833   5.987   1.410   5.779 -0.6125 -0.6238 -0.0753
 1140TIP3   OH224834   6.457   4.444  12.173  0.5514 -0.2758 -0.4556
 1140TIP3    H124835   6.429   4.376  12.111 -1.8702  0.8187 -0.6768
 1140TIP3    H224836   6.375   4.482  12.205  1.7224 -0.3243  2.9630
 1141TIP3   OH224837   4.104   1.080  15.296  0.1174 -0.3524 -0.1129
 1141TIP3    H124838   4.022   1.129  15.298  1.3467  2.0664 -2.6441
 1141TIP3    H224839   4.166   1.136  15.343  0.2899 -2.5487  2.5655
 1142TIP3   OH224840   1.406   0.494  13.992 -0.5887  0.2501  0.0264
 1142TIP3    H124841   1.357   0.575  14.012  1.0542  2.3235 -3.3977
 1142TIP3    H224842   1.338   0.429  13.978 -2.1168  1.6431  0.5167
 1143TIP3   OH224843   0.509   6.436  16.854 -0.5890  0.3601 -0.2651
 1143TIP3    H124844   0.414   6.438  16.845 -0.7060  0.3925  0.8272
 1143TIP3    H224845   0.531   6.518  16.898 -0.0962  0.1646 -0.1358
 1144TIP3   OH224846   2.082   3.352   1.600 -0.4301  0.1878 -0.8152
 1144TIP3    H124847   2.088   3.443   1.569  1.8158  1.0519  1.7808
 1144TIP3    H224848   2.106   3.357   1.693 -0.8396 -3.0156 -0.4430
 1145TIP3   OH224849   1.624   3.725   3.713 -0.3126  0.7792 -0.3304
 1145TIP3    H124850   1.662   3.711   3.799 -0.6596  0.5875 -0.2096
 1145TIP3    H224851   1.699   3.746   3.657 -0.0577  0.6449 -0.0390
 1146TIP3   OH224852   1.214   0.893  12.388 -0.2056 -0.4856 -0.1527
 1146TIP3    H124853   1.239   0.801  12.390 -1.2935 -0.7813  0.3917
 1146TIP3    H224854   1.230   0.920  12.297  0.4676 -1.1005 -0.2249
 1147TIP3   OH224855   2.377   6.490   0.779  0.1270 -0.5536  0.5085
 1147TIP3    H124856   2.392   6.569   0.831 -2.3969 -0.1818  0.7773
 1147TIP3    H224857   2.328   6.520   0.702  1.9077 -1.4267 -1.0542
 1148TIP3   OH224858   0.146   1.619   1.199  0.1620  0.4235  0.4169
 1148TIP3    H124859   0.180   1.642   1.112  0.7529  2.3946  1.1151
 1148TIP3    H224860   0.051   1.620   1.189  0.0015 -4.6988 -1.4529
 1149TIP3   OH224861   0.540   0.887   2.801  0.2887 -0.1998 -0.1052
 1149TIP3    H124862   0.480   0.873   2.875 -0.6050  0.0705 -0.7626
 1149TIP3    H224863   0.627   0.896   2.842 -0.2490  0.4249  0.9567
 1150TIP3   OH224864   6.114   3.827  15.117  0.2394  0.0434 -0.0037
 1150TIP3    H124865   6.143   3.864  15.033  0.0997 -0.7343 -0.4027
 1150TIP3    H224866   6.075   3.743  15.094 -0.7399  0.2758  0.7280
 1151TIP3   OH224867   0.079   2.171   2.108  0.3368  0.2515  0.2552
 1151TIP3    H124868  -0.006   2.201   2.141  0.5301  1.3905 -0.2184
 1151TIP3    H224869   0.103   2.099   2.166 -0.7891  0.1264  0.6058
 1152TIP3   OH224870   2.145   2.134   0.604  0.0580 -0.1723 -0.1767
 1152TIP3    H124871   2.116   2.216   0.643 -0.8513 -0.1701 -0.8259
 1152TIP3    H224872   2.240   2.143   0.596  0.1531  0.1913  1.1592
 1153TIP3   OH224873   3.410   0.763  14.292  0.4043 -0.3320 -0.3820
 1153TIP3    H124874   3.421   0.668  14.291  0.2443 -0.3772  0.7138
 1153TIP3    H224875   3.395   0.784  14.384  0.0122  0.7082 -0.6692
 1154TIP3   OH224876   6.308   6.235   5.466 -0.4710 -0.3067 -0.2637
 1154TIP3    H124877   6.286   6.214   5.557  0.1143 -0.1544 -0.0816
 1154TIP3    H224878   6.333   6.328   5.469  0.0139 -0.4252 -0.4872
 1155TIP3   OH224879   3.276   5.142   2.935  0.0862  0.0754  0.9188
 1155TIP3    H124880   3.369   5.152   2.915 -0.3367 -1.3965 -2.4552
 1155TIP3    H224881   3.247   5.069   2.881 -2.8366 -0.3183  2.7652
 1156TIP3   OH224882   2.016   4.954   5.237 -0.7175 -0.2139 -0.2356
 1156TIP3    H124883   1.950   4.901   5.194  0.0869  0.5791 -2.5831
 1156TIP3    H224884   2.004   5.041   5.200 -1.2681  1.0733  2.6869
 1157TIP3   OH224885   3.541   0.805   1.769  0.4102  0.0261 -0.3206
 1157TIP3    H124886   3.533   0.761   1.685  0.6842  1.0910 -0.9249
 1157TIP3    H224887   3.554   0.734   1.832 -0.2384 -0.8152 -1.1086
 1158TIP3   OH224888   5.268   4.926  13.023  0.4248 -0.6296 -0.4580
 1158TIP3    H124889   5.296   4.849  12.973  3.7064  0.8850 -1.2268
 1158TIP3    H224890   5.342   4.947  13.079 -0.2383  2.1020 -0.4632
 1159TIP3   OH224891   4.414   3.578   3.972  0.0173  0.3142 -0.0237
 1159TIP3    H124892   4.375   3.651   4.019  1.7866  1.4523 -0.2577
 1159TIP3    H224893   4.351   3.506   3.983 -1.9117  1.9219 -0.0488
 1160TIP3   OH224894   1.795   4.551   4.616 -0.0548 -0.0756  0.3628
 1160TIP3    H124895   1.860   4.516   4.555 -2.1927 -1.3440 -1.3370
 1160TIP3    H224896   1.808   4.501   4.697  0.5221 -0.9164 -0.2323
 1161TIP3   OH224897   0.884   3.345  12.354 -0.3002  0.4152 -0.1447
 1161TIP3    H124898   0.974   3.374  12.369 -0.0467 -0.5505  0.3307
 1161TIP3    H224899   0.840   3.358  12.438  0.7846 -3.8111  1.3451
 1162TIP3   OH224900   6.047   5.425   0.384 -0.6218  0.2531 -0.0362
 1162TIP3    H124901   6.002   5.445   0.302 -1.8442 -0.2504  0.4869
 1162TIP3    H224902   5.977   5.397   0.443  0.4995 -1.7362  0.4425
 1163TIP3   OH224903   4.109   6.017  15.786  0.1841 -0.2278  0.3089
 1163TIP3    H124904   4.054   6.088  15.818  0.1037 -0.5229  0.8395
 1163TIP3    H224905   4.198   6.039  15.817 -0.0431 -0.9866  1.5876
 1164TIP3   OH224906   1.593   5.198   5.913  0.0508 -0.5130 -0.0280
 1164TIP3    H124907   1.668   5.142   5.933  0.5414  0.5246  1.1842
 1164TIP3    H224908   1.592   5.262   5.984 -2.5334 -1.0150  0.4674
 1165TIP3   OH224909   3.327   1.254   3.368 -0.2911 -0.5244 -0.3757
 1165TIP3    H124910   3.357   1.345   3.365  0.2290 -0.6545  0.5803
 1165TIP3    H224911   3.350   1.218   3.283 -0.2407  0.1615 -0.6577
 1166TIP3   OH224912   1.420   3.842  13.365  0.3841 -0.1246 -0.0731
 1166TIP3    H124913   1.347   3.852  13.304  0.8878  1.3152 -0.4849
 1166TIP3    H224914   1.379   3.818  13.448 -0.2574 -2.9453 -1.0934
 1167TIP3   OH224915   0.060   6.379  14.984  0.0114 -0.1862  0.0968
 1167TIP3    H124916   0.011   6.388  14.902 -0.1773  1.2077  0.3380
 1167TIP3    H224917   0.132   6.320  14.962 -0.9055 -1.0563 -0.6607
 1168TIP3   OH224918   0.772   6.538  15.082  0.3669 -0.0074  0.5316
 1168TIP3    H124919   0.768   6.471  15.014 -0.1001  1.4675 -0.9389
 1168TIP3    H224920   0.696   6.593  15.066  1.4711  1.6608  0.8678
 1169TIP3   OH224921   5.138   2.374   1.539  0.7066  0.3443  0.3663
 1169TIP3    H124922   5.104   2.379   1.629 -0.7794  0.9155 -0.1990
 1169TIP3    H224923   5.233   2.379   1.550  0.6525 -0.9281  1.9946
 1170TIP3   OH224924   5.199   3.423   2.536 -0.2352 -0.6275 -0.3530
 1170TIP3    H124925   5.177   3.392   2.449  1.1543 -0.3242 -0.8273
 1170TIP3    H224926   5.258   3.497   2.522 -3.3824  2.4148  0.6995
 1171TIP3   OH224927   6.239   6.076  16.974  0.1252  0.0525 -0.2747
 1171TIP3    H124928   6.220   6.131  17.050  0.8106  1.0394 -0.7897
 1171TIP3    H224929   6.289   6.133  16.915  3.0043 -1.7734  0.1946
 1172TIP3   OH224930   2.251   5.785   0.462 -0.1747 -0.4051  0.8233
 1172TIP3    H124931   2.238   5.768   0.368  0.2848 -0.5735  0.7880
 1172TIP3    H224932   2.314   5.719   0.490 -0.1806 -0.2459  1.2148
 1173TIP3   OH224933   1.567   2.623  12.931 -0.4723 -0.6313 -0.5770
 1173TIP3    H124934   1.557   2.643  12.838 -0.7179  0.4518 -0.3277
 1173TIP3    H224935   1.657   2.590  12.938 -0.5415 -0.9788 -1.2381
 1174TIP3   OH224936   3.775   1.844  16.537  0.0110  0.1408 -0.3552
 1174TIP3    H124937   3.813   1.846  16.449 -1.1414 -1.2138 -0.9110
 1174TIP3    H224938   3.684   1.820  16.523 -0.9128  2.5906  1.0161
 1175TIP3   OH224939   2.454   4.708  12.015  0.3262 -0.2696  0.4086
 1175TIP3    H124940   2.464   4.745  11.927  0.0799 -0.5123  0.2760
 1175TIP3    H224941   2.530   4.651  12.025  0.6240  0.1444  0.5525
 1176TIP3   OH224942   3.943   1.992   3.893  1.1012  0.3097 -0.0820
 1176TIP3    H124943   3.873   1.992   3.827  0.3921 -0.4632  0.6480
 1176TIP3    H224944   3.990   2.074   3.877 -0.6079  1.3744  0.0669
 1177TIP3   OH224945   3.521   6.039  13.356  0.7040  0.3313  0.5330
 1177TIP3    H124946   3.494   6.082  13.437  2.2551 -0.0376  1.2808
 1177TIP3    H224947   3.567   6.107  13.306  0.8009  0.2514  0.5117
 1178TIP3   OH224948   4.859   4.197   4.905  0.1876  0.7421  0.1648
 1178TIP3    H124949   4.845   4.272   4.963 -1.6951  0.2870  0.3694
 1178TIP3    H224950   4.887   4.235   4.822 -0.1846  1.6403  0.4381
 1179TIP3   OH224951   2.059   4.483  13.709  0.1456  0.3594  0.0147
 1179TIP3    H124952   2.050   4.544  13.635  1.3747  1.3027  0.5976
 1179TIP3    H224953   2.114   4.412  13.675 -0.3818  0.1231 -0.3519
 1180TIP3   OH224954   1.860   5.318   3.362  0.4477  0.0037  0.1483
 1180TIP3    H124955   1.777   5.342   3.322  0.8378  1.2621  0.0373
 1180TIP3    H224956   1.901   5.258   3.299 -0.0292 -0.0133 -0.1506
 1181TIP3   OH224957   1.278   5.491  13.816  0.3556 -0.0698 -0.0834
 1181TIP3    H124958   1.233   5.410  13.840 -2.4105  2.0596  2.9885
 1181TIP3    H224959   1.370   5.475  13.835  0.2078 -2.9574 -1.3448
 1182TIP3   OH224960   2.257   0.653   4.600 -0.0647  0.4002  0.0100
 1182TIP3    H124961   2.296   0.721   4.655  1.7334 -1.7561  1.5677
 1182TIP3    H224962   2.329   0.595   4.578 -1.2286 -0.1739 -2.6398
 1183TIP3   OH224963   2.135   3.558   0.258  0.0126 -0.2460 -0.0765
 1183TIP3    H124964   2.201   3.490   0.241 -1.4487 -1.5514 -0.8413
 1183TIP3    H224965   2.112   3.546   0.350  0.3057 -0.2974 -0.0095
 1184TIP3   OH224966   3.031   4.082   0.617 -0.5150 -0.0197  0.2020
 1184TIP3    H124967   3.103   4.071   0.679  0.3494  0.0358 -0.7716
 1184TIP3    H224968   3.061   4.152   0.558 -0.1774 -1.8024 -1.8489
 1185TIP3   OH224969   4.240   5.415  13.546  0.2097 -0.1230  0.0790
 1185TIP3    H124970   4.174   5.472  13.506  0.1054 -0.4197 -0.1822
 1185TIP3    H224971   4.304   5.400  13.475 -0.3839 -1.2930 -0.2408
 1186TIP3   OH224972   5.985   5.905   4.999 -0.2109  0.5113 -0.0692
 1186TIP3    H124973   5.993   5.865   5.086  1.6042 -1.2946 -0.9842
 1186TIP3    H224974   6.053   5.971   4.996 -0.5954  0.9187  0.0324
 1187TIP3   OH224975   5.670   5.543  16.246 -0.2850  0.0457  0.1028
 1187TIP3    H124976   5.765   5.548  16.257 -0.1258 -0.8614 -0.7178
 1187TIP3    H224977   5.634   5.582  16.326  0.7610  1.7855 -0.2075
 1188TIP3   OH224978   1.517   2.078   0.649  0.3679 -0.3785 -0.1547
 1188TIP3    H124979   1.477   2.024   0.581  0.3451 -1.5101  0.7242
 1188TIP3    H224980   1.446   2.135   0.680  0.5386  0.6027 -1.4915
 1189TIP3   OH224981   1.093   2.491   2.524 -0.8135 -0.4823 -0.4165
 1189TIP3    H124982   1.142   2.551   2.580 -1.6436 -1.6378  1.6715
 1189TIP3    H224983   1.161   2.438   2.481 -0.1496 -0.0294  0.0485
 1190TIP3   OH224984   5.196   1.719   0.887 -0.0308  0.0814  0.0604
 1190TIP3    H124985   5.194   1.723   0.791  0.6383 -0.4847  0.0114
 1190TIP3    H224986   5.105   1.721   0.914 -0.2290  0.0006 -0.6025
 1191TIP3   OH224987   4.716   2.228   5.369  0.6613 -0.1046  0.5212
 1191TIP3    H124988   4.640   2.193   5.417  1.8671 -0.9207  1.9639
 1191TIP3    H224989   4.738   2.160   5.305 -0.5120  0.6630 -0.7380
 1192TIP3   OH224990   5.032   2.869  17.133 -0.4656 -0.0389  0.1495
 1192TIP3    H124991   5.043   2.813  17.056 -0.4942  0.1931 -0.0221
 1192TIP3    H224992   4.938   2.886  17.138 -0.6035 -0.9491  0.8685
 1193TIP3   OH224993   0.539   3.998  16.427 -0.1146  0.5451 -0.2142
 1193TIP3    H124994   0.447   4.009  16.454  0.1133  0.2575  0.7485
 1193TIP3    H224995   0.536   3.995  16.332 -1.5680 -2.8633 -0.2341
 1194TIP3   OH224996   4.115   0.191   1.576 -0.2987  1.2363  0.6999
 1194TIP3    H124997   4.133   0.104   1.611  0.0476  1.1969  0.4287
 1194TIP3    H224998   4.195   0.216   1.531 -0.8494  1.1168 -0.3903
 1195TIP3   OH224999   4.265   0.176   3.931 -0.2658  0.7126  0.7882
 1195TIP3    H125000   4.307   0.258   3.958 -1.5184  1.5487  0.3023
 1195TIP3    H225001   4.254   0.127   4.013  0.6563  0.9524  1.0611
 1196TIP3   OH225002   0.511   4.667  14.950  0.4915 -0.0338  0.5105
 1196TIP3    H125003   0.538   4.673  14.858  0.8434  1.1217  0.6751
 1196TIP3    H225004   0.457   4.588  14.954  0.1759  0.0964 -0.7630
 1197TIP3   OH225005   6.362   0.461  17.009  0.0778  0.3690  0.3532
 1197TIP3    H125006   6.299   0.421  16.949  0.4797 -0.6155  0.5729
 1197TIP3    H225007   6.309   0.500  17.078 -0.2898 -0.8434  0.7777
 1198TIP3   OH225008   6.276   4.515   0.214 -0.5823  0.2200  0.3251
 1198TIP3    H125009   6.239   4.439   0.170  1.7039 -1.0389  0.3773
 1198TIP3    H225010   6.203   4.575   0.225 -1.7597 -0.3909 -3.0086
 1199TIP3   OH225011   0.706   5.572  11.643 -0.2777 -0.2981 -0.2029
 1199TIP3    H125012   0.788   5.547  11.686  0.2426 -0.3804 -1.2119
 1199TIP3    H225013   0.731   5.644  11.585 -0.7574 -0.8377 -1.0995
 1200TIP3   OH225014   5.467   0.785  13.113  0.2911  0.4783  0.3245
 1200TIP3    H125015   5.468   0.715  13.047 -1.2639  1.2421 -0.5576
 1200TIP3    H225016   5.522   0.854  13.075  1.9865 -0.2810  1.2810
 1201TIP3   OH225017   0.580   5.930  14.242  0.3720 -0.0048  0.5440
 1201TIP3    H125018   0.520   5.900  14.173  0.3094  0.9662  0.1559
 1201TIP3    H225019   0.651   5.974  14.194  1.4174 -1.1404  0.9953
 1202TIP3   OH225020   1.607   6.265  14.230 -0.0288 -0.2890 -0.4136
 1202TIP3    H125021   1.618   6.342  14.286 -0.4114 -0.3300 -0.2746
 1202TIP3    H225022   1.513   6.266  14.207  0.1697 -0.1130 -1.2786
 1203TIP3   OH225023   1.395   4.280  13.343  0.3616  0.1893 -0.0862
 1203TIP3    H125024   1.402   4.286  13.247 -0.4390  1.2749 -0.0941
 1203TIP3    H225025   1.456   4.210  13.367 -0.2136 -0.8374 -1.4870
 1204TIP3   OH225026   4.551   6.637   0.243 -0.4109  0.7851  0.2924
 1204TIP3    H125027   4.479   6.691   0.275 -0.5332  0.8219 -0.0452
 1204TIP3    H225028   4.629   6.689   0.261 -0.5074  0.9579  0.2095
 1205TIP3   OH225029   5.012   4.276  16.695  0.2088  0.3764 -0.0357
 1205TIP3    H125030   5.023   4.190  16.654  0.4975  0.1610  0.4982
 1205TIP3    H225031   5.100   4.302  16.722 -0.1405 -0.0524  1.6073
 1206TIP3   OH225032   1.605   3.728   0.222  0.1543  0.8496  0.1893
 1206TIP3    H125033   1.600   3.702   0.314  0.9094  1.2136  0.3421
 1206TIP3    H225034   1.696   3.756   0.210  1.0722 -2.4101 -1.5495
 1207TIP3   OH225035   4.067   0.125   4.785  0.3087  0.5085 -0.1117
 1207TIP3    H125036   4.117   0.206   4.785  0.1901  0.6075  1.1313
 1207TIP3    H225037   3.977   0.152   4.767  0.2456  0.6912  0.4351
 1208TIP3   OH225038   1.440   0.819   1.929 -0.0463 -0.0689 -0.2759
 1208TIP3    H125039   1.477   0.872   1.859  1.7440 -1.1118 -0.1719
 1208TIP3    H225040   1.474   0.858   2.010  0.1421 -0.5208 -0.1335
 1209TIP3   OH225041   3.102   3.861  16.319 -0.3696  0.0292 -0.6049
 1209TIP3    H125042   3.075   3.925  16.386  1.4605 -0.0944  0.3413
 1209TIP3    H225043   3.088   3.906  16.236  1.2988  1.9214  0.0418
 1210TIP3   OH225044   0.185   3.997   4.618  0.0073 -0.2788 -0.0075
 1210TIP3    H125045   0.168   4.091   4.611  0.8109  0.0422  1.7879
 1210TIP3    H225046   0.118   3.956   4.563 -1.7216  1.2397  0.8782
 1211TIP3   OH225047   2.791   3.511  13.019 -0.0015 -0.0014 -0.0051
 1211TIP3    H125048   2.791   3.432  13.074  2.6974 -1.2747 -1.6273
 1211TIP3    H225049   2.733   3.490  12.947  0.8362 -0.6324 -0.5191
 1212TIP3   OH225050   3.951   4.870  13.097 -0.2478 -0.6901  0.1827
 1212TIP3    H125051   3.961   4.782  13.134  1.6804 -1.2307 -1.4264
 1212TIP3    H225052   3.862   4.872  13.060 -1.2936 -0.9726  2.5378
 1213TIP3   OH225053   6.302   4.114   2.460  0.3169 -0.3982  0.7738
 1213TIP3    H125054   6.239   4.066   2.514  1.1421 -0.0684  2.0623
 1213TIP3    H225055   6.268   4.105   2.371 -1.2570 -0.6728  1.3689
 1214TIP3   OH225056   0.722   5.209  15.871  0.0965 -0.3738 -0.6838
 1214TIP3    H125057   0.636   5.223  15.831 -0.1935 -0.8220 -0.2222
 1214TIP3    H225058   0.709   5.233  15.963  1.0017  1.5970 -1.0278
 1215TIP3   OH225059   3.341   1.271   3.900 -0.6160 -0.6657 -0.2210
 1215TIP3    H125060   3.355   1.189   3.853  0.1919 -1.2578  0.9839
 1215TIP3    H225061   3.419   1.323   3.880  1.4855 -2.2189  2.9468
 1216TIP3   OH225062   4.187   4.600   1.302  0.2628  0.4641  0.5887
 1216TIP3    H125063   4.156   4.524   1.352 -1.8776 -0.1536 -1.4632
 1216TIP3    H225064   4.238   4.563   1.231 -1.2729  0.8397 -0.7588
 1217TIP3   OH225065   6.565   2.733   0.425  0.1037  0.4310  0.3813
 1217TIP3    H125066   6.569   2.694   0.338  2.0711  1.1548  0.1110
 1217TIP3    H225067   6.617   2.674   0.480 -0.4758  0.4060  0.9174
 1218TIP3   OH225068   1.577   6.330   0.720 -0.3187 -0.2537  0.2287
 1218TIP3    H125069   1.522   6.253   0.733  1.3410 -1.3703  0.9384
 1218TIP3    H225070   1.667   6.298   0.732  0.3590  2.2696  3.2360
 1219TIP3   OH225071   1.712   4.984   2.215  0.3916  0.3500  0.0181
 1219TIP3    H125072   1.628   5.015   2.182 -0.9279 -0.6626  2.1556
 1219TIP3    H225073   1.753   4.940   2.141 -1.9674 -1.0331 -0.5467
 1220TIP3   OH225074   0.097   0.254   3.792 -0.4952 -0.0006 -0.1918
 1220TIP3    H125075   0.123   0.169   3.827 -1.5454 -1.0757 -1.9000
 1220TIP3    H225076   0.172   0.311   3.810  0.7920 -1.6228 -0.1819
 1221TIP3   OH225077   4.760   3.129  13.440 -0.3780  0.6781  0.3889
 1221TIP3    H125078   4.676   3.172  13.457 -0.4599  0.0167  1.7745
 1221TIP3    H225079   4.825   3.187  13.481 -0.3042  0.4137  0.6446
 1222TIP3   OH225080   0.235   3.199  15.962  0.0775  0.0562  0.2871
 1222TIP3    H125081   0.207   3.251  15.886  0.1862 -0.9117 -0.4320
 1222TIP3    H225082   0.212   3.109  15.939 -0.6106 -0.1544  1.7573
 1223TIP3   OH225083   5.201   5.347   0.846 -0.3743  0.1371  0.5505
 1223TIP3    H125084   5.149   5.268   0.863  1.8734 -2.0830 -1.9656
 1223TIP3    H225085   5.284   5.332   0.890  0.1634  1.0155 -0.1233
 1224TIP3   OH225086   4.319   3.606  12.068  0.2870 -0.2512 -0.1677
 1224TIP3    H125087   4.383   3.630  12.001  0.5073 -0.4221 -0.0193
 1224TIP3    H225088   4.329   3.511  12.078 -1.1332 -0.5572 -1.3274
 1225TIP3   OH225089   6.568   1.096   2.624 -0.1221  0.1846 -0.0533
 1225TIP3    H125090   6.611   1.088   2.709 -0.9143 -1.5523  0.2262
 1225TIP3    H225091   6.594   1.182   2.592  2.5533 -0.2497  0.6539
 1226TIP3   OH225092   2.890   5.504   4.771 -0.1761 -0.1865  0.8436
 1226TIP3    H125093   2.843   5.537   4.847  0.0100  0.3694  0.7207
 1226TIP3    H225094   2.952   5.573   4.750  0.3498 -0.6941  0.6964
 1227TIP3   OH225095   5.633   1.909   6.957 -0.0431 -0.4043 -0.4927
 1227TIP3    H125096   5.659   1.981   7.015 -1.8403 -0.0778 -0.0154
 1227TIP3    H225097   5.537   1.918   6.950 -0.0967 -1.6869 -1.8633
 1228TIP3   OH225098   0.048   3.249  16.560  0.2720  0.2969 -0.1509
 1228TIP3    H125099   0.045   3.307  16.637  2.3044  0.4324 -0.1204
 1228TIP3    H225100   0.039   3.161  16.596  1.8172  0.3127  0.3784
 1229TIP3   OH225101   4.327   4.469  13.698 -0.3689 -0.1324 -0.0685
 1229TIP3    H125102   4.385   4.539  13.727  0.1978 -0.5125 -0.2671
 1229TIP3    H225103   4.351   4.394  13.752 -0.0483 -0.5445 -0.7693
 1230TIP3   OH225104   4.777   3.675  11.905  0.0078  0.3809  0.2899
 1230TIP3    H125105   4.860   3.650  11.866  0.7776  1.6609  1.0308
 1230TIP3    H225106   4.769   3.619  11.982  0.4182  0.5515  0.4620
 1231TIP3   OH225107   3.906   2.525   2.592  0.1041 -0.2988 -0.1790
 1231TIP3    H125108   3.879   2.508   2.683 -0.4597 -1.7990 -0.5974
 1231TIP3    H225109   3.997   2.495   2.589  0.2218  0.0323 -0.0514
 1232TIP3   OH225110   4.098   5.960  13.177 -0.6714  0.2124 -0.2154
 1232TIP3    H125111   4.143   5.968  13.261 -0.5929 -1.2364 -0.0833
 1232TIP3    H225112   4.005   5.956  13.200 -0.8008  1.6647 -0.3709
 1233TIP3   OH225113   1.911   5.909   5.369  0.7740  0.3727  0.1029
 1233TIP3    H125114   1.954   5.890   5.453  0.0806  0.1021  0.3980
 1233TIP3    H225115   1.948   5.994   5.343  1.6504  0.0471  0.2409
 1234TIP3   OH225116   3.198   1.353   2.135 -0.4891 -0.3245  0.0464
 1234TIP3    H125117   3.292   1.359   2.121 -0.2273 -1.7883  0.9973
 1234TIP3    H225118   3.188   1.346   2.230 -1.3513 -2.7295 -0.1570
 1235TIP3   OH225119   1.508   3.416   2.257 -0.2883 -0.1537 -0.9792
 1235TIP3    H125120   1.557   3.334   2.256 -0.5893 -0.3406 -0.7453
 1235TIP3    H225121   1.542   3.466   2.183  0.1109 -0.3633 -0.9372
 1236TIP3   OH225122   0.832   6.102  14.582 -0.2304 -0.3817  0.1604
 1236TIP3    H125123   0.896   6.115  14.513 -1.8335  0.5014 -1.2513
 1236TIP3    H225124   0.800   6.190  14.603 -0.9769 -0.7856  0.8072
 1237TIP3   OH225125   0.176   2.203  16.319 -0.5655 -0.6713 -0.0954
 1237TIP3    H125126   0.151   2.194  16.228  2.4956 -1.8820 -0.9619
 1237TIP3    H225127   0.221   2.287  16.323 -0.8181 -0.5534  0.3420
 1238TIP3   OH225128   5.993   2.599  12.117 -0.2223  0.0376  0.7353
 1238TIP3    H125129   5.991   2.599  12.021  2.1875 -0.9102  0.6084
 1238TIP3    H225130   5.944   2.521  12.143 -1.0506  0.4040  0.2927
 1239TIP3   OH225131   5.204   1.750   0.635  0.0700 -0.3303 -0.2799
 1239TIP3    H125132   5.127   1.805   0.617  0.2088 -0.0548 -0.0390
 1239TIP3    H225133   5.196   1.677   0.574 -0.2722 -0.1915 -0.4028
 1240TIP3   OH225134   5.405   0.386   1.607 -0.6025  0.0416  0.2903
 1240TIP3    H125135   5.366   0.309   1.566 -2.6793  0.8962  0.4951
 1240TIP3    H225136   5.430   0.443   1.535  1.5627 -1.0308  0.1131
 1241TIP3   OH225137   0.099   0.871  15.360  0.0118 -0.0125  0.1836
 1241TIP3    H125138   0.105   0.966  15.353 -0.4262 -0.0267 -0.6701
 1241TIP3    H225139   0.005   0.852  15.349  0.3330 -0.6647 -2.0577
 1242TIP3   OH225140   6.023   2.553  15.303  0.1160  0.0442  0.3191
 1242TIP3    H125141   6.022   2.458  15.297  1.5483  0.0523 -0.5480
 1242TIP3    H225142   5.946   2.575  15.356 -0.3957 -1.5626  0.2877
 1243TIP3   OH225143   2.197   5.436  16.505 -0.1334 -0.3972 -0.0276
 1243TIP3    H125144   2.256   5.431  16.580  1.0454 -2.2857 -0.9875
 1243TIP3    H225145   2.160   5.524  16.509 -0.0018 -0.3665  2.6366
 1244TIP3   OH225146   4.372   1.271  15.482  0.0019 -0.4210 -0.3453
 1244TIP3    H125147   4.277   1.267  15.468 -0.0164 -0.5504 -0.1884
 1244TIP3    H225148   4.406   1.317  15.405 -0.1959 -0.3127 -0.3676
 1245TIP3   OH225149   2.112   2.570  14.691  0.4298 -0.8113  0.3766
 1245TIP3    H125150   2.026   2.589  14.728  0.0318 -2.5475  0.3869
 1245TIP3    H225151   2.123   2.476  14.702  1.7981 -0.8163 -0.7741
 1246TIP3   OH225152   6.392   2.307   3.864  0.0273 -0.1190 -0.2740
 1246TIP3    H125153   6.346   2.386   3.893 -0.9983 -0.9102  0.3231
 1246TIP3    H225154   6.412   2.323   3.772 -0.5538  0.6644 -0.2700
 1247TIP3   OH225155   3.477   1.693   5.989  0.1967  0.0589  0.3256
 1247TIP3    H125156   3.467   1.711   6.083 -0.1084 -1.1547  0.5456
 1247TIP3    H225157   3.430   1.764   5.946  0.4555  0.7063  1.0925
 1248TIP3   OH225158   4.969   4.039   3.437  0.1106  0.2245 -0.1592
 1248TIP3    H125159   4.973   4.044   3.532  0.9199  0.1364 -0.1818
 1248TIP3    H225160   4.927   3.955   3.419  0.5766 -0.0721  0.1191
 1249TIP3   OH225161   6.691   5.972   1.140 -0.0238  0.2022 -0.9226
 1249TIP3    H125162   6.613   6.025   1.120 -1.2323 -1.6518 -1.3606
 1249TIP3    H225163   6.693   5.969   1.236  0.6845  1.8807 -0.8592
 1250TIP3   OH225164   4.526   5.789   5.488 -0.1832  0.0390 -0.1094
 1250TIP3    H125165   4.603   5.826   5.532 -0.4178 -0.1421  0.4641
 1250TIP3    H225166   4.525   5.697   5.514 -0.9777  0.1938  0.4531
 1251TIP3   OH225167   5.774   4.607   3.839 -0.1087 -0.3506  0.1691
 1251TIP3    H125168   5.718   4.684   3.833  0.3177 -0.1460 -1.9719
 1251TIP3    H225169   5.713   4.533   3.830 -0.3252 -0.2257  0.5673
 1252TIP3   OH225170   4.188   0.975  14.737 -0.2921  0.5424  0.4683
 1252TIP3    H125171   4.265   0.964  14.792  1.1461  2.8849 -0.8938
 1252TIP3    H225172   4.182   1.069  14.721 -1.3678  0.1341 -2.2994
 1253TIP3   OH225173   4.983   1.769  16.496  0.0748 -0.3966 -0.2143
 1253TIP3    H125174   4.909   1.796  16.551 -0.6546 -0.9708 -0.8912
 1253TIP3    H225175   5.047   1.733  16.558  0.5323  1.6346  0.5633
 1254TIP3   OH225176   2.880   4.846  16.620 -0.2828 -0.0967  0.4375
 1254TIP3    H125177   2.818   4.871  16.689  1.1463  1.1307  1.3382
 1254TIP3    H225178   2.965   4.843  16.664  0.5836  0.1695 -1.1581
 1255TIP3   OH225179   0.077   3.374   0.870 -0.5544  0.1582  0.0019
 1255TIP3    H125180   0.127   3.312   0.818 -0.3308  0.8099 -0.5791
 1255TIP3    H225181   0.002   3.397   0.815 -2.2054 -1.7098  1.3245
 1256TIP3   OH225182   2.980   4.922   1.022 -0.0460  0.0890 -0.0032
 1256TIP3    H125183   3.068   4.908   1.058  0.3351  1.2894 -0.4182
 1256TIP3    H225184   2.943   4.834   1.016  0.4056 -0.2873  1.9333
 1257TIP3   OH225185   1.813   4.745   2.871 -0.1261  0.1053 -0.0158
 1257TIP3    H125186   1.796   4.678   2.937 -1.8933  0.4966 -0.0285
 1257TIP3    H225187   1.903   4.772   2.888  0.2931 -1.5470  0.6208
 1258TIP3   OH225188   4.258   1.403   3.225  0.1024  0.3231 -0.4955
 1258TIP3    H125189   4.282   1.354   3.303 -0.1857  0.2343 -0.4630
 1258TIP3    H225190   4.235   1.490   3.257 -1.1748 -0.0617 -0.3432
 1259TIP3   OH225191   3.499   2.164   1.786  0.2691 -0.1302  0.2195
 1259TIP3    H125192   3.532   2.105   1.855  2.1980  0.9607  0.2888
 1259TIP3    H225193   3.417   2.199   1.822  0.8953 -0.1021  1.6921
 1260TIP3   OH225194   0.638   6.419   6.684 -0.5204  0.4939  0.0118
 1260TIP3    H125195   0.714   6.478   6.688 -0.3937  0.2823  1.0759
 1260TIP3    H225196   0.666   6.349   6.626  0.4103  0.0245  0.9853
 1261TIP3   OH225197   3.690   5.917  13.858 -0.1019  0.1772  0.0200
 1261TIP3    H125198   3.621   5.967  13.816  0.1327  1.3160  0.9548
 1261TIP3    H225199   3.741   5.880  13.786 -1.8928 -1.0460 -0.7011
 1262TIP3   OH225200   1.438   6.107   0.089 -0.0639 -0.2448  0.4271
 1262TIP3    H125201   1.463   6.015   0.078 -0.4740 -0.3493  0.3716
 1262TIP3    H225202   1.415   6.136   0.001 -2.2550 -0.7675  0.7723
 1263TIP3   OH225203   1.105   2.310  14.664  0.0235  0.1543  0.0147
 1263TIP3    H125204   1.052   2.259  14.603  0.3599 -0.5459  0.2982
 1263TIP3    H225205   1.056   2.392  14.676 -0.7319 -0.2704 -0.1302
 1264TIP3   OH225206   2.222   0.189   5.414  0.1920 -0.1224 -0.2829
 1264TIP3    H125207   2.131   0.219   5.409  0.3509  0.2933 -0.7481
 1264TIP3    H225208   2.241   0.186   5.508 -0.2938 -0.1945 -0.1817
 1265TIP3   OH225209   5.332   2.878  11.654 -0.2833 -0.5360 -0.1175
 1265TIP3    H125210   5.389   2.936  11.705 -2.1633 -0.1170  1.6509
 1265TIP3    H225211   5.304   2.931  11.580  2.4803 -1.1412 -1.7052
 1266TIP3   OH225212   1.398   5.567  16.172  0.2634  0.2100  0.3723
 1266TIP3    H125213   1.310   5.528  16.177  0.0917  0.3710 -0.9823
 1266TIP3    H225214   1.431   5.563  16.262  0.3020 -3.1569  0.3579
 1267TIP3   OH225215   0.116   3.505   5.088  0.4618  0.0961 -0.5179
 1267TIP3    H125216   0.136   3.446   5.015 -1.0161  0.7905 -1.5436
 1267TIP3    H225217   0.115   3.448   5.165  0.8161 -0.8875 -1.2193
 1268TIP3   OH225218   5.739   3.263  12.449 -0.4890  0.1279  0.8958
 1268TIP3    H125219   5.799   3.293  12.518 -0.9603 -1.8486  2.2705
 1268TIP3    H225220   5.793   3.207  12.394 -0.2967  1.1096  0.0508
 1269TIP3   OH225221   6.092   3.550   1.769  0.0431 -0.4488  0.4074
 1269TIP3    H125222   6.013   3.497   1.757 -0.5507  0.5185 -0.0605
 1269TIP3    H225223   6.061   3.629   1.813  0.6083  0.2822 -0.4652
 1270TIP3   OH225224   5.517   6.213   0.342 -0.0964  0.1206 -0.1845
 1270TIP3    H125225   5.548   6.301   0.319  0.2836  0.0703  0.1129
 1270TIP3    H225226   5.558   6.195   0.427  0.8788 -0.8719 -0.8406
 1271TIP3   OH225227   5.272   0.469  12.271 -0.5339  0.2117  0.1517
 1271TIP3    H125228   5.359   0.468  12.233 -0.2920 -1.4802  0.6688
 1271TIP3    H225229   5.239   0.380  12.258 -1.4887  0.3395  1.5043
 1272TIP3   OH225230   3.942   0.918  11.665 -0.4027  0.1157  0.3489
 1272TIP3    H125231   3.908   0.927  11.754 -1.3625 -0.4113  0.0449
 1272TIP3    H225232   4.005   0.989  11.657  0.1473 -0.1846  1.6491
 1273TIP3   OH225233   0.677   0.356  15.544 -0.2078  0.0376  0.3748
 1273TIP3    H125234   0.610   0.322  15.603 -0.4680  2.3114  1.5210
 1273TIP3    H225235   0.751   0.376  15.601  0.2946  0.3926 -0.3894
 1274TIP3   OH225236   6.097   6.734  11.885  0.3306 -0.2054  0.6586
 1274TIP3    H125237   6.100   6.784  11.803  2.7670 -0.8273  0.2972
 1274TIP3    H225238   6.167   6.670  11.876  0.9085 -0.0429  3.3918
 1275TIP3   OH225239   4.448   3.864   2.550 -0.0354  0.0884 -0.3847
 1275TIP3    H125240   4.398   3.900   2.624  0.3361  0.4912 -0.3239
 1275TIP3    H225241   4.404   3.781   2.530  0.4515 -0.5312  0.9397
 1276TIP3   OH225242   2.252   5.628  13.581  0.0249 -0.7531 -0.4498
 1276TIP3    H125243   2.193   5.560  13.547  1.0868 -1.7776 -0.3139
 1276TIP3    H225244   2.311   5.581  13.640 -1.4965  0.8927  2.6311
 1277TIP3   OH225245   4.223   2.594  11.876 -0.0696 -0.4534 -0.5667
 1277TIP3    H125246   4.185   2.602  11.789  0.6221  1.0178 -0.7636
 1277TIP3    H225247   4.208   2.679  11.917 -0.4131 -1.1207  0.7781
 1278TIP3   OH225248   6.547   6.060   0.200 -0.4749  0.2823 -0.1747
 1278TIP3    H125249   6.496   6.130   0.161 -0.3633  0.1189 -0.6206
 1278TIP3    H225250   6.483   6.005   0.245 -0.7486 -0.1403 -1.0616
 1279TIP3   OH225251   1.900   3.802  16.707 -0.4938  0.1579 -0.4054
 1279TIP3    H125252   1.911   3.737  16.777  0.5627 -0.0532 -0.7372
 1279TIP3    H225253   1.985   3.803  16.663 -0.9447  0.7520 -1.2881
 1280TIP3   OH225254   5.938   4.504  14.487  0.5551 -0.1437 -0.1431
 1280TIP3    H125255   6.010   4.512  14.550  0.3739  2.9156 -0.1680
 1280TIP3    H225256   5.975   4.534  14.404  0.1756 -2.0091 -1.0329
 1281TIP3   OH225257   5.989   1.471   4.775  0.2392 -0.0060 -0.5250
 1281TIP3    H125258   5.942   1.524   4.839 -0.2354  1.6745 -2.1846
 1281TIP3    H225259   5.967   1.381   4.798  1.6208  0.3557  2.8055
 1282TIP3   OH225260   4.333   4.908  12.361 -0.6122  0.4232  0.7265
 1282TIP3    H125261   4.386   4.977  12.401 -0.8827  0.8335  0.3764
 1282TIP3    H225262   4.396   4.853  12.316 -0.4745  0.8813  0.3545
 1283TIP3   OH225263   2.362   5.364  16.725  0.1738 -0.2368 -0.3686
 1283TIP3    H125264   2.451   5.350  16.692  0.3372  0.7602 -0.3710
 1283TIP3    H225265   2.319   5.278  16.715  0.5775 -0.2752 -2.0993
 1284TIP3   OH225266   4.606   3.493  14.879 -0.5970  0.4511  0.0872
 1284TIP3    H125267   4.543   3.447  14.824  0.3876 -2.9895  1.5247
 1284TIP3    H225268   4.679   3.431  14.887  0.8604  2.3091  2.2973
 1285TIP3   OH225269   0.820   0.114   0.803  0.0636 -0.1969  0.1376
 1285TIP3    H125270   0.842   0.048   0.869 -0.5379 -1.0254 -0.4628
 1285TIP3    H225271   0.847   0.197   0.842  1.4888 -0.8655  0.6171
 1286TIP3   OH225272   6.139   3.534   3.617 -0.2953 -0.3229 -0.2483
 1286TIP3    H125273   6.168   3.623   3.597 -0.0821  0.1983  2.0974
 1286TIP3    H225274   6.173   3.481   3.545 -0.4628  1.4812 -1.7240
 1287TIP3   OH225275   4.431   5.503   1.872  0.0263  0.1940  0.2833
 1287TIP3    H125276   4.421   5.591   1.907 -0.7575  0.8418 -1.4445
 1287TIP3    H225277   4.415   5.445   1.946  1.4069  1.4867  1.6633
 1288TIP3   OH225278   6.391   0.398   4.826 -0.0001 -0.0533  0.4846
 1288TIP3    H125279   6.486   0.395   4.835 -0.0729 -2.4593  1.1677
 1288TIP3    H225280   6.373   0.353   4.743 -0.5464  0.7891  0.1272
 1289TIP3   OH225281   6.262   5.021   0.777 -0.0993  0.8635  0.3425
 1289TIP3    H125282   6.220   5.051   0.696 -0.9998 -1.1987 -0.0101
 1289TIP3    H225283   6.209   4.948   0.807  1.7645 -0.1807  1.3138
 1290TIP3   OH225284   4.132   5.687   2.800 -0.0175  0.6239  0.2362
 1290TIP3    H125285   4.131   5.769   2.752  0.7045  0.6462  0.2546
 1290TIP3    H225286   4.221   5.680   2.835 -0.7357  1.0380  2.3197
 1291TIP3   OH225287   2.185   1.283   0.880  0.2393 -0.6334  0.7631
 1291TIP3    H125288   2.211   1.299   0.789 -1.6693  0.0989  0.3017
 1291TIP3    H225289   2.216   1.194   0.898 -0.7560 -1.4222 -1.1776
 1292TIP3   OH225290   4.457   5.264  16.020 -0.3796 -0.4242 -0.2972
 1292TIP3    H125291   4.511   5.297  15.948 -1.4065  0.2776 -0.7718
 1292TIP3    H225292   4.489   5.176  16.036  0.6230 -0.1684 -0.8440
 1293TIP3   OH225293   6.459   4.692   3.213 -0.8517 -0.2310  0.6043
 1293TIP3    H125294   6.419   4.779   3.213  1.4910  1.0112 -1.8574
 1293TIP3    H225295   6.544   4.706   3.256  0.8136 -0.4650 -2.3355
 1294TIP3   OH225296   5.027   5.142   1.420 -0.1928  0.2319  0.6050
 1294TIP3    H125297   5.083   5.065   1.431  0.8892  1.2468  2.8426
 1294TIP3    H225298   4.960   5.133   1.488  0.0694  1.3475  1.0359
 1295TIP3   OH225299   1.725   2.310   5.402 -0.2999  0.3018  0.1456
 1295TIP3    H125300   1.770   2.390   5.428  0.1892 -0.0898  0.5224
 1295TIP3    H225301   1.769   2.283   5.321  0.4458 -0.3063  0.7343
 1296TIP3   OH225302   3.535   5.736   3.325  0.0560 -0.7536 -0.1625
 1296TIP3    H125303   3.519   5.707   3.415 -0.6576 -1.0811 -0.3906
 1296TIP3    H225304   3.615   5.788   3.331 -0.2454 -0.3786  0.7425
 1297TIP3   OH225305   0.379   4.697  15.192 -0.0703  0.4901  0.2755
 1297TIP3    H125306   0.421   4.710  15.107 -0.9251 -0.6834 -0.3584
 1297TIP3    H225307   0.440   4.640  15.240 -0.1075  0.2305  0.0186
 1298TIP3   OH225308   3.367   1.509  15.857  0.1739  0.4210  0.2973
 1298TIP3    H125309   3.441   1.449  15.857 -0.2255 -0.0890 -0.3784
 1298TIP3    H225310   3.406   1.596  15.862  0.7454  0.1054  1.7032
 1299TIP3   OH225311   6.532   4.626   1.290 -0.4236 -0.5385  0.7371
 1299TIP3    H125312   6.518   4.617   1.196 -0.4725  2.5941  0.3453
 1299TIP3    H225313   6.599   4.560   1.310 -2.1625 -2.9737 -0.9396
 1300TIP3   OH225314   5.883   0.269   0.139  0.1869 -0.6326  0.3339
 1300TIP3    H125315   5.896   0.225   0.055 -3.4356  0.8503 -1.2041
 1300TIP3    H225316   5.835   0.206   0.193  1.3192 -1.0861  0.8426
 1301TIP3   OH225317   4.744   0.108  13.336 -0.1222  0.3709 -0.0207
 1301TIP3    H125318   4.736   0.026  13.288  1.9880 -0.2565  0.6004
 1301TIP3    H225319   4.686   0.099  13.411 -2.4424  0.8340 -1.6543
 1302TIP3   OH225320   6.585   2.795   4.382  0.4143  0.0757  0.3407
 1302TIP3    H125321   6.515   2.730   4.378  1.6007 -1.3805  1.9439
 1302TIP3    H225322   6.665   2.744   4.385  1.6961  1.6950 -2.1766
 1303TIP3   OH225323   3.289   5.134  11.482 -0.6244 -0.2452  0.0600
 1303TIP3    H125324   3.303   5.134  11.387 -0.5257 -1.5853  0.0623
 1303TIP3    H225325   3.278   5.227  11.504 -1.4614  0.0274 -1.3689
 1304TIP3   OH225326   0.481   1.587  11.518 -0.8406  0.3087  1.1412
 1304TIP3    H125327   0.529   1.656  11.564  0.8590 -0.3557  0.4513
 1304TIP3    H225328   0.496   1.605  11.425  0.2370 -1.3627  0.9545
 1305TIP3   OH225329   2.904   4.107   2.241 -0.0070 -0.7012 -0.2106
 1305TIP3    H125330   2.845   4.041   2.276 -0.2534 -1.1827 -1.4903
 1305TIP3    H225331   2.849   4.163   2.186  0.6788 -1.1360 -1.3879
 1306TIP3   OH225332   2.705   3.312   0.674  0.2124  0.0908  0.2158
 1306TIP3    H125333   2.645   3.238   0.676  0.2369  0.0318 -0.5656
 1306TIP3    H225334   2.712   3.334   0.580  1.8107 -0.2365  0.2358
 1307TIP3   OH225335   5.572   4.498   0.715 -0.3349  0.4395  0.7061
 1307TIP3    H125336   5.540   4.486   0.626  1.4746  2.5314 -0.3209
 1307TIP3    H225337   5.619   4.416   0.735  2.9458  1.3982 -2.0330
 1308TIP3   OH225338   1.186   4.484   3.783 -0.1434 -0.0100 -0.2788
 1308TIP3    H125339   1.246   4.493   3.709 -0.8451  2.6389 -0.6323
 1308TIP3    H225340   1.114   4.430   3.749  1.3161 -2.0917 -0.2489
 1309TIP3   OH225341   0.487   0.161   4.301 -0.1099  0.1118 -0.0531
 1309TIP3    H125342   0.564   0.166   4.244 -1.3345  2.5423 -1.6797
 1309TIP3    H225343   0.443   0.080   4.275  1.0848 -0.5145 -0.1719
 1310TIP3   OH225344   2.858   6.249  16.844 -0.2213  0.2584  0.0111
 1310TIP3    H125345   2.814   6.326  16.879 -0.8417 -0.4252  0.7696
 1310TIP3    H225346   2.945   6.280  16.819 -1.0878  1.6362 -1.4911
 1311TIP3   OH225347   5.035   0.263   1.436  0.6767  0.2059 -0.2917
 1311TIP3    H125348   4.979   0.250   1.512  2.5900 -0.7991  1.0346
 1311TIP3    H225349   5.005   0.198   1.372  0.1282 -0.0879  0.2605
 1312TIP3   OH225350   3.575   6.634   5.679 -0.8986 -0.1749 -0.3894
 1312TIP3    H125351   3.660   6.599   5.707 -0.6896 -0.2647 -1.1092
 1312TIP3    H225352   3.527   6.650   5.761  0.0979  0.6218  0.0573
 1313TIP3   OH225353   0.310   2.435  16.360  0.0443 -0.1216 -0.1514
 1313TIP3    H125354   0.405   2.444  16.362 -0.1049  1.7744 -0.5143
 1313TIP3    H225355   0.279   2.497  16.426 -1.0477  1.2833 -1.9220
 1314TIP3   OH225356   2.744   3.945   2.400  0.7806 -0.8394 -0.4616
 1314TIP3    H125357   2.651   3.940   2.424  1.0353 -2.8538  0.3282
 1314TIP3    H225358   2.789   3.960   2.483  1.1602  0.9317 -0.9427
 1315TIP3   OH225359   6.368   0.898   5.947 -0.3477 -0.0052 -0.0369
 1315TIP3    H125360   6.283   0.896   5.903 -0.2666  0.3729 -0.2072
 1315TIP3    H225361   6.432   0.909   5.877 -0.0490 -1.5645 -0.0499
 1316TIP3   OH225362   2.988   5.884  16.475  0.3753  0.4235  0.0557
 1316TIP3    H125363   3.042   5.805  16.475 -0.9486 -0.5515 -1.3841
 1316TIP3    H225364   2.991   5.916  16.565 -1.1340 -2.7663  1.3847
 1317TIP3   OH225365   2.280   2.025  11.076  0.5358 -0.3836  0.1758
 1317TIP3    H125366   2.192   1.996  11.053  0.3364  0.0703  0.3560
 1317TIP3    H225367   2.315   1.953  11.130 -0.3936  0.2029  1.6138
 1318TIP3   OH225368   1.854   3.835  14.656 -0.3954 -0.1954 -0.6353
 1318TIP3    H125369   1.875   3.843  14.749 -0.7688 -1.5396 -0.4070
 1318TIP3    H225370   1.900   3.907  14.614  0.7536 -0.2788  0.4418
 1319TIP3   OH225371   3.408   3.558   5.748 -0.3444  0.5259 -0.2152
 1319TIP3    H125372   3.475   3.608   5.796  0.2266 -0.3332 -0.1058
 1319TIP3    H225373   3.457   3.507   5.684 -0.5620 -2.0379  1.4916
 1320TIP3   OH225374   1.154   6.237   4.281  0.0677  0.1596 -0.3499
 1320TIP3    H125375   1.205   6.179   4.337 -0.9173 -0.5556 -0.1733
 1320TIP3    H225376   1.209   6.251   4.204  0.4217 -0.8107 -0.2866
 1321TIP3   OH225377   3.629   4.506   5.666  0.0586  0.3372 -0.0677
 1321TIP3    H125378   3.680   4.546   5.737 -1.0632  1.2119  0.2778
 1321TIP3    H225379   3.666   4.418   5.657 -0.2588 -0.0820  2.1365
 1322TIP3   OH225380   4.066   1.389  11.877 -0.7014  0.0742 -0.2070
 1322TIP3    H125381   4.053   1.380  11.971 -0.2834  1.1843 -0.0242
 1322TIP3    H225382   4.148   1.343  11.859 -1.7530 -1.8400 -0.3823
 1323TIP3   OH225383   2.380   2.666   6.170  0.1738  0.7497 -0.2947
 1323TIP3    H125384   2.304   2.716   6.201  0.0731  1.3536 -1.4844
 1323TIP3    H225385   2.444   2.674   6.241 -0.8156  0.3159  0.6825
 1324TIP3   OH225386   3.974   4.858  15.908 -0.5547 -0.4355 -0.2912
 1324TIP3    H125387   3.944   4.901  15.828 -2.1517  0.5055  0.7848
 1324TIP3    H225388   4.059   4.899  15.926 -0.9381  0.5328 -0.6090
 1325TIP3   OH225389   0.475   4.261  14.466  0.8713 -0.7532  0.6004
 1325TIP3    H125390   0.569   4.269  14.451  0.7224  0.2431  0.1014
 1325TIP3    H225391   0.436   4.284  14.382  0.1424  0.3844  1.2294
 1326TIP3   OH225392   3.638   0.930  15.132  0.0112  0.3000  0.6299
 1326TIP3    H125393   3.577   0.959  15.065  1.0564  0.7930 -0.1309
 1326TIP3    H225394   3.587   0.871  15.187 -1.1700  0.7918  0.0827
 1327TIP3   OH225395   2.665   0.870   2.010 -0.0189  0.2220 -0.0406
 1327TIP3    H125396   2.618   0.787   2.018 -1.2382  0.9801  1.0398
 1327TIP3    H225397   2.632   0.908   1.928  1.3162 -0.7892 -1.0942
 1328TIP3   OH225398   0.954   0.662  16.130 -0.0313  0.0442 -0.4801
 1328TIP3    H125399   0.932   0.752  16.107  0.7259  0.2199 -0.5409
 1328TIP3    H225400   1.005   0.669  16.211 -2.2963 -0.5277  1.0988
 1329TIP3   OH225401   0.376   0.565  17.116  0.0243  0.1890 -0.3385
 1329TIP3    H125402   0.354   0.477  17.086 -1.5800 -0.2917  1.9830
 1329TIP3    H225403   0.466   0.559  17.145  0.6538 -0.0581 -2.1950
 1330TIP3   OH225404   1.044   5.205  14.349 -0.0444 -0.1104 -0.2314
 1330TIP3    H125405   1.029   5.248  14.433  2.0801  0.7069 -0.2272
 1330TIP3    H225406   0.985   5.249  14.288  0.6199  1.4263  0.2042
 1331TIP3   OH225407   1.647   5.397  13.328 -0.4337  0.3073 -0.2478
 1331TIP3    H125408   1.621   5.435  13.412  1.1715  1.9588 -0.4399
 1331TIP3    H225409   1.630   5.303  13.338  0.9265  0.2436  2.4572
 1332TIP3   OH225410   1.384   2.446   1.921  0.6604 -0.1755 -0.5198
 1332TIP3    H125411   1.458   2.463   1.980 -0.3831  1.1844  0.4797
 1332TIP3    H225412   1.341   2.369   1.957  1.2081 -0.5849 -0.7293
 1333TIP3   OH225413   0.385   6.291   7.000  0.1247  0.5242  0.2232
 1333TIP3    H125414   0.456   6.254   6.948  0.1170  1.7007 -0.6830
 1333TIP3    H225415   0.392   6.385   6.986  0.7907  1.0169  3.2800
 1334TIP3   OH225416   2.871   0.721   1.649  0.0826  0.6103 -0.1044
 1334TIP3    H125417   2.899   0.677   1.568 -1.5304  0.4259 -0.6131
 1334TIP3    H225418   2.911   0.669   1.719 -1.1959 -1.3228 -0.7119
 1335TIP3   OH225419   3.203   6.498  17.307  0.4424  1.2205  0.0840
 1335TIP3    H125420   3.221   6.541  17.224 -0.6344  1.8614  0.1595
 1335TIP3    H225421   3.166   6.413  17.283  1.3735  0.8481 -0.0720
 1336TIP3   OH225422   0.929   4.741   1.826  1.0545  0.1766 -0.2015
 1336TIP3    H125423   1.002   4.784   1.872  1.5677 -0.9117  0.0302
 1336TIP3    H225424   0.908   4.801   1.754  2.0571  0.6021 -0.1588
 1337TIP3   OH225425   2.030   4.774   3.996 -0.0070  0.1443 -0.1826
 1337TIP3    H125426   2.012   4.859   4.034 -0.5893 -0.6987  1.5424
 1337TIP3    H225427   2.125   4.764   4.000 -0.1291 -1.1605  4.1669
 1338TIP3   OH225428   6.302   6.275  12.734  0.4383  0.2688 -0.6708
 1338TIP3    H125429   6.354   6.335  12.681  2.1105  0.5129  1.1322
 1338TIP3    H225430   6.365   6.232  12.792 -0.8246 -2.6292 -1.2588
 1339TIP3   OH225431   3.411   2.904   4.948  0.4308  0.0818 -0.6383
 1339TIP3    H125432   3.460   2.823   4.941  0.4903 -0.2551  2.2988
 1339TIP3    H225433   3.319   2.877   4.945  0.4427  0.1019 -1.2018
 1340TIP3   OH225434   2.685   4.446   1.120  0.0727 -0.3143 -0.0244
 1340TIP3    H125435   2.592   4.466   1.126  0.1763  0.8617 -1.4548
 1340TIP3    H225436   2.689   4.352   1.102 -0.8000 -0.4912  0.6553
 1341TIP3   OH225437   0.106   4.641   1.433 -0.5409 -0.4029 -0.1179
 1341TIP3    H125438   0.028   4.654   1.487 -0.6592  0.5583 -0.5001
 1341TIP3    H225439   0.073   4.643   1.343 -0.3589 -2.0711 -0.2580
 1342TIP3   OH225440   3.474   3.583  14.213 -0.0033  0.6426  0.0750
 1342TIP3    H125441   3.503   3.493  14.197  1.5308  1.0562  0.3793
 1342TIP3    H225442   3.554   3.636  14.207 -0.9585  2.0640 -0.6044
 1343TIP3   OH225443   2.312   1.754  13.376 -0.4226  0.5720  0.0110
 1343TIP3    H125444   2.271   1.726  13.294  1.6466  1.6703 -1.4837
 1343TIP3    H225445   2.335   1.672  13.420  0.0845 -0.0678 -1.3870
 1344TIP3   OH225446   2.667   3.905  13.533 -0.4814 -0.1234 -0.2188
 1344TIP3    H125447   2.612   3.866  13.466  0.7526 -1.4800 -0.4980
 1344TIP3    H225448   2.654   4.000  13.523 -0.4099 -0.2882 -2.3008
 1345TIP3   OH225449   3.846   4.758   5.459  0.1081 -0.3830 -0.0035
 1345TIP3    H125450   3.805   4.766   5.373 -1.2081 -1.4287  0.4854
 1345TIP3    H225451   3.786   4.803   5.519  0.8987  0.1442  0.4032
 1346TIP3   OH225452   1.939   3.233   5.731 -0.3882  0.0384 -0.1388
 1346TIP3    H125453   1.946   3.140   5.708  0.9821 -0.2860  1.4121
 1346TIP3    H225454   1.847   3.254   5.714 -0.1045 -0.7778 -3.2829
 1347TIP3   OH225455   2.882   1.559   1.689 -0.6884 -0.1593 -0.1750
 1347TIP3    H125456   2.868   1.512   1.607  0.6370  1.5878 -1.4759
 1347TIP3    H225457   2.951   1.509   1.734  0.6665  0.4327 -1.5101
 1348TIP3   OH225458   1.604   1.950   4.203  0.2436 -0.1558 -0.0462
 1348TIP3    H125459   1.513   1.975   4.187  0.3313 -0.1070 -0.4866
 1348TIP3    H225460   1.608   1.932   4.297 -0.0763  0.4424  0.0851
 1349TIP3   OH225461   6.751   3.672  17.231 -0.3838  0.4369 -0.1051
 1349TIP3    H125462   6.827   3.639  17.279 -0.3317  1.6552  0.7145
 1349TIP3    H225463   6.722   3.598  17.178  0.5706 -0.4566  0.5647
 1350TIP3   OH225464   3.170   4.078   0.174  0.9050 -0.1716 -0.3545
 1350TIP3    H125465   3.237   4.044   0.234  0.9650 -0.7533 -0.7334
 1350TIP3    H225466   3.215   4.148   0.126  0.9870  0.0021 -0.0307
 1351TIP3   OH225467   6.267   0.060   0.922  0.5217 -0.5450 -0.2765
 1351TIP3    H125468   6.226  -0.019   0.958 -0.9748 -1.1606 -3.0358
 1351TIP3    H225469   6.303   0.031   0.838 -0.7338  1.8248 -1.7286
 1352TIP3   OH225470   2.858   1.786  13.132 -0.9253  0.5302 -0.4448
 1352TIP3    H125471   2.780   1.737  13.159 -1.7351  0.3832 -2.8083
 1352TIP3    H225472   2.931   1.732  13.161 -1.7368 -0.2490  0.2049
 1353TIP3   OH225473   5.113   6.722   4.076 -0.5060  0.3160 -0.4558
 1353TIP3    H125474   5.061   6.744   3.999 -0.9219 -1.0352 -0.5813
 1353TIP3    H225475   5.103   6.798   4.134 -1.0940  0.8659 -1.2574
 1354TIP3   OH225476   3.291   6.674   0.903  0.2197 -0.5740 -0.7008
 1354TIP3    H125477   3.345   6.635   0.971 -0.3874  1.3413  0.9607
 1354TIP3    H225478   3.210   6.623   0.905  0.2520 -0.6066 -0.0674
 1355TIP3   OH225479   6.053   1.660   6.345  0.3889  0.1020 -0.1868
 1355TIP3    H125480   6.069   1.719   6.419  1.7112  0.9439 -1.0846
 1355TIP3    H225481   6.127   1.600   6.346 -0.7242 -1.3125  0.4482
 1356TIP3   OH225482   1.872   2.286  12.395 -0.1325  0.2016 -0.0504
 1356TIP3    H125483   1.934   2.262  12.326  0.0980  1.2189 -0.2145
 1356TIP3    H225484   1.882   2.381  12.404 -1.0297  0.2495  0.5424
 1357TIP3   OH225485   0.034   6.554  13.193 -0.0450  0.6844 -0.0365
 1357TIP3    H125486   0.097   6.570  13.263  0.8299  1.8005 -1.0453
 1357TIP3    H225487  -0.002   6.468  13.213  0.2651  0.9180  1.7110
 1358TIP3   OH225488   3.677   6.205  13.639 -0.3670  0.3359 -0.2382
 1358TIP3    H125489   3.596   6.226  13.592 -1.3488 -0.3006  1.1045
 1358TIP3    H225490   3.667   6.245  13.724  0.9388  0.5992 -0.1844
 1359TIP3   OH225491   6.142   0.688   2.018  0.3242  0.0536  0.6757
 1359TIP3    H125492   6.074   0.724   1.962 -1.2411  0.4928  2.7307
 1359TIP3    H225493   6.145   0.595   1.997  0.7247  0.4268 -1.0182
 1360TIP3   OH225494   4.069   2.104  14.177 -0.2904  0.0404 -0.1172
 1360TIP3    H125495   4.119   2.180  14.206 -0.3995  0.1990 -0.3381
 1360TIP3    H225496   3.999   2.095  14.241 -1.9833  1.8502 -1.5788
 1361TIP3   OH225497   1.786   1.596   3.796  0.0757  0.1543 -0.1824
 1361TIP3    H125498   1.725   1.570   3.866 -0.4226  0.8359 -0.3483
 1361TIP3    H225499   1.872   1.595   3.837 -0.1103 -0.3120  0.2011
 1362TIP3   OH225500   4.473   4.837   4.720 -0.4446 -0.1745 -0.0469
 1362TIP3    H125501   4.492   4.789   4.640 -1.0289 -0.9682  0.2705
 1362TIP3    H225502   4.515   4.785   4.789  0.8270  0.9797  0.0855
 1363TIP3   OH225503   6.284   2.934  16.645  0.0277 -0.2729  0.1892
 1363TIP3    H125504   6.252   3.014  16.604  1.0812 -0.8649 -1.9416
 1363TIP3    H225505   6.338   2.965  16.718 -0.9100  0.8806  0.4201
 1364TIP3   OH225506   1.059   2.205  13.391 -0.2643  0.4194 -0.0327
 1364TIP3    H125507   1.113   2.133  13.424 -0.5541 -0.4349 -1.3518
 1364TIP3    H225508   0.989   2.213  13.456 -0.7962 -1.1880 -0.3562
 1365TIP3   OH225509   0.067   4.116   5.753 -0.7748 -0.2360  0.1332
 1365TIP3    H125510  -0.001   4.048   5.746 -1.2612  0.2407  0.1862
 1365TIP3    H225511   0.035   4.188   5.699 -0.3828  0.0497  0.2756
 1366TIP3   OH225512   1.439   2.913  13.070  0.3631 -0.4162  0.0763
 1366TIP3    H125513   1.347   2.921  13.097  0.1740  1.0813 -0.8773
 1366TIP3    H225514   1.488   2.909  13.151 -0.3477  1.7815  0.6855
 1367TIP3   OH225515   0.232   4.561   0.150 -0.3263 -0.4819  0.3654
 1367TIP3    H125516   0.158   4.535   0.095  0.5076  1.5320 -1.9066
 1367TIP3    H225517   0.202   4.639   0.196  0.1864  0.0421 -0.1701
 1368TIP3   OH225518   5.009   0.667  16.541  0.0150 -0.1686  0.3677
 1368TIP3    H125519   4.924   0.709  16.535  0.8419  1.3596 -1.5699
 1368TIP3    H225520   5.059   0.702  16.468  1.7362 -2.4106  0.3577
 1369TIP3   OH225521   3.067   3.202   4.171  0.2299 -0.3793  0.4524
 1369TIP3    H125522   3.141   3.184   4.112  0.1073 -2.1818  0.7859
 1369TIP3    H225523   3.091   3.284   4.214  2.7971 -1.5965  1.6075
 1370TIP3   OH225524   5.166   4.379   4.540 -0.2887  0.2445 -0.3346
 1370TIP3    H125525   5.229   4.376   4.613  1.2353 -0.3576 -1.6049
 1370TIP3    H225526   5.101   4.313   4.562 -0.0831  0.3572  0.6781
 1371TIP3   OH225527   2.734   0.060  13.712 -0.0821 -0.0251  0.5898
 1371TIP3    H125528   2.703   0.015  13.790  0.4044  0.4207  1.0508
 1371TIP3    H225529   2.660   0.113  13.683  0.2903  1.2775  1.8609
 1372TIP3   OH225530   4.001   1.968  11.969  0.3760  0.4740 -0.4826
 1372TIP3    H125531   4.034   1.989  11.881  3.0766  2.0813  0.7973
 1372TIP3    H225532   3.967   2.051  12.002  1.7015  0.5026  0.8799
 1373TIP3   OH225533   1.655   1.303  13.092 -0.1733 -0.2086  0.5393
 1373TIP3    H125534   1.705   1.221  13.101  1.0709  0.5059  0.3844
 1373TIP3    H225535   1.607   1.311  13.174  2.7263  0.8233  2.2764
 1374TIP3   OH225536   4.506   1.183  13.776  0.0349 -0.1308  0.1579
 1374TIP3    H125537   4.504   1.126  13.699  0.2593 -1.5526  1.1721
 1374TIP3    H225538   4.414   1.193  13.801 -0.4158  3.0410 -2.1370
 1375TIP3   OH225539   0.939   0.752   0.562  0.2421 -0.0761  0.0602
 1375TIP3    H125540   0.986   0.741   0.479  0.5435 -0.1710  0.2430
 1375TIP3    H225541   0.858   0.702   0.550  1.7833 -3.0835  1.0548
 1376TIP3   OH225542   0.991   2.274   1.976  0.0763  0.0833 -0.1126
 1376TIP3    H125543   0.997   2.284   2.071 -0.2982  0.0640 -0.0848
 1376TIP3    H225544   1.024   2.185   1.959 -0.6673 -0.2413  0.0940
 1377TIP3   OH225545   0.432   2.536  14.322 -0.1711  0.4606 -0.1024
 1377TIP3    H125546   0.406   2.444  14.328  0.1889  0.4317  1.4225
 1377TIP3    H225547   0.375   2.581  14.384 -0.0100  1.1894 -0.4725
 1378TIP3   OH225548   5.424   6.706  14.927  0.1095 -0.3087 -0.3136
 1378TIP3    H125549   5.450   6.748  14.845 -0.9788 -0.8114 -0.9420
 1378TIP3    H225550   5.451   6.615  14.917  0.3983 -0.2703  0.0936
 1379TIP3   OH225551   1.731   3.459   0.007  0.3451  0.1752  0.1778
 1379TIP3    H125552   1.811   3.509   0.019  1.7009 -1.7081 -0.4956
 1379TIP3    H225553   1.755   3.390  -0.055 -1.5776 -0.9474  0.5909
 1380TIP3   OH225554   2.955   0.574  12.638  0.6487  0.0251 -0.0663
 1380TIP3    H125555   2.895   0.596  12.567  1.3089  0.3081 -0.5312
 1380TIP3    H225556   2.913   0.610  12.717  0.0923  0.0129 -0.3538
 1381TIP3   OH225557   5.525   0.123  16.998  0.4968 -0.1714 -0.1979
 1381TIP3    H125558   5.600   0.073  16.965  0.7276 -0.0805  0.1749
 1381TIP3    H225559   5.472   0.058  17.045 -0.1263 -0.4156 -1.2114
 1382TIP3   OH225560   1.288   3.826  11.807  0.1583 -0.1149  0.4929
 1382TIP3    H125561   1.356   3.833  11.741 -0.1750  0.9954  0.2517
 1382TIP3    H225562   1.217   3.778  11.764  0.7117 -1.1697  0.7084
 1383TIP3   OH225563   2.206   5.547   1.792  0.4040  0.4036 -0.4444
 1383TIP3    H125564   2.288   5.515   1.754  0.8146 -0.1745  0.8702
 1383TIP3    H225565   2.188   5.487   1.864 -0.4403  1.3475  0.1536
 1384TIP3   OH225566   3.887   2.327   3.100 -0.1080 -0.1116  0.4363
 1384TIP3    H125567   3.815   2.330   3.163 -1.6363  1.7040 -1.2204
 1384TIP3    H225568   3.957   2.377   3.141 -1.4052  1.8380  0.4283
 1385TIP3   OH225569   1.174   4.765   2.704  0.2842 -0.0548 -0.8338
 1385TIP3    H125570   1.248   4.754   2.644 -0.2182 -0.7889 -1.3348
 1385TIP3    H225571   1.098   4.738   2.653 -0.2175 -0.1519 -0.0422
 1386TIP3   OH225572   3.378   4.269  15.018 -0.4553 -0.1973 -0.1341
 1386TIP3    H125573   3.397   4.212  15.092 -1.0064  1.2087  1.1694
 1386TIP3    H225574   3.430   4.348  15.035 -0.8301  0.2667 -1.0783
 1387TIP3   OH225575   4.158   5.469   4.032 -0.2168  0.2991 -0.3922
 1387TIP3    H125576   4.102   5.545   4.048 -0.3647  0.5418 -1.8945
 1387TIP3    H225577   4.210   5.494   3.956 -0.4322 -1.1945 -1.0655
 1388TIP3   OH225578   1.497   3.168  12.472 -0.7013  0.4503 -0.5726
 1388TIP3    H125579   1.501   3.263  12.484 -0.4530  0.4340 -0.5179
 1388TIP3    H225580   1.416   3.153  12.424 -2.0401  0.4473  1.5968
 1389TIP3   OH225581   3.884   2.020  14.364  0.3385 -0.3825 -0.5592
 1389TIP3    H125582   3.794   2.050  14.348  0.0495 -0.9002  0.0545
 1389TIP3    H225583   3.873   1.934  14.406  1.1107 -0.1746  0.0857
 1390TIP3   OH225584   1.125   1.761  16.685  0.3355 -0.3807 -0.2053
 1390TIP3    H125585   1.056   1.712  16.640 -1.7760  0.0956  2.2536
 1390TIP3    H225586   1.186   1.694  16.715 -1.2223 -1.3180  1.0114
 1391TIP3   OH225587   4.047   5.016   0.190  0.1511 -0.4683 -0.1982
 1391TIP3    H125588   4.020   5.107   0.204 -2.1088 -1.1421  0.1276
 1391TIP3    H225589   4.101   4.995   0.267  0.0428  0.3518  0.1084
 1392TIP3   OH225590   4.132   2.633   1.315 -0.2510  0.0906 -0.4348
 1392TIP3    H125591   4.037   2.642   1.327 -0.2376 -0.5862  0.2730
 1392TIP3    H225592   4.164   2.604   1.400  0.7743  1.5108 -0.2921
 1393TIP3   OH225593   4.926   5.154   0.730  0.3062  0.3737  0.3190
 1393TIP3    H125594   4.880   5.178   0.649 -0.8794  1.6691  1.3195
 1393TIP3    H225595   4.866   5.095   0.775  1.2083 -0.8033  0.0391
 1394TIP3   OH225596   0.788   0.997   5.818 -0.3150  0.2081  0.2859
 1394TIP3    H125597   0.767   0.983   5.910  1.7098 -2.0256  0.4756
 1394TIP3    H225598   0.883   1.001   5.815 -0.3678  1.9112 -1.5580
 1395TIP3   OH225599   0.732   6.617  15.359  0.6299  0.3542  0.0403
 1395TIP3    H125600   0.779   6.534  15.361  2.2628  1.2433  0.4159
 1395TIP3    H225601   0.778   6.669  15.294  0.0898  1.2269  0.3396
 1396TIP3   OH225602   6.628   6.691  16.115  0.0397 -0.3156 -0.4031
 1396TIP3    H125603   6.548   6.639  16.119 -0.3776  0.4044  1.0570
 1396TIP3    H225604   6.609   6.769  16.167  0.9344  0.9312 -1.8534
 1397TIP3   OH225605   6.478   0.660  14.410 -0.0315  0.4261  0.0936
 1397TIP3    H125606   6.540   0.719  14.368 -0.7390  1.8546  0.9622
 1397TIP3    H225607   6.393   0.682  14.371 -0.3132  0.0694  0.4931
 1398TIP3   OH225608   5.601   3.739  14.298 -0.7563  0.0097 -0.1402
 1398TIP3    H125609   5.507   3.756  14.307 -0.2833  3.1902 -0.0889
 1398TIP3    H225610   5.616   3.738  14.204 -0.7648 -0.0200 -0.1416
 1399TIP3   OH225611   2.760   1.543  15.755  0.2066  0.3083  0.5606
 1399TIP3    H125612   2.735   1.557  15.847 -1.2243 -2.0061  0.5924
 1399TIP3    H225613   2.689   1.583  15.705  0.9674  1.5332  0.4276
 1400TIP3   OH225614   0.179   1.186   0.731 -0.0617  0.3044 -0.1965
 1400TIP3    H125615   0.139   1.127   0.795 -0.8824  0.5378 -0.4822
 1400TIP3    H225616   0.195   1.130   0.654 -3.1777  0.9209 -1.4222
 1401TIP3   OH225617   0.417   4.047  15.324  0.2451  0.1737 -0.4208
 1401TIP3    H125618   0.451   3.973  15.373  0.8226  0.6914 -0.0153
 1401TIP3    H225619   0.492   4.106  15.315 -0.1817  0.6692 -0.8122
 1402TIP3   OH225620   0.659   5.532   4.291  0.2443  1.0898  0.4770
 1402TIP3    H125621   0.582   5.554   4.240  1.5108  1.1344 -1.5189
 1402TIP3    H225622   0.632   5.458   4.345 -0.6982 -0.1208 -1.5445
 1403TIP3   OH225623   3.552   0.128   5.018 -0.5158 -0.2714  0.0526
 1403TIP3    H125624   3.481   0.113   4.956 -1.3931  2.7398  0.1941
 1403TIP3    H225625   3.624   0.162   4.965  0.1711 -1.4558  0.1892
 1404TIP3   OH225626   6.256   1.068  16.294  0.3929 -0.4720 -0.3301
 1404TIP3    H125627   6.291   1.086  16.207 -0.4862 -0.1808 -0.6310
 1404TIP3    H225628   6.332   1.072  16.352  0.8905 -0.0933 -0.9996
 1405TIP3   OH225629   4.681   6.683   0.822 -0.1054 -0.1069  0.6395
 1405TIP3    H125630   4.675   6.756   0.884 -1.0375  1.0031 -0.6922
 1405TIP3    H225631   4.759   6.635   0.848  0.3247  1.1661  1.7748
 1406TIP3   OH225632   4.222   0.969   0.807 -0.6573  0.1376 -0.2884
 1406TIP3    H125633   4.236   0.984   0.901  0.8883 -2.0430 -0.0937
 1406TIP3    H225634   4.294   1.016   0.765 -0.6826  0.1723 -0.2927
 1407TIP3   OH225635   0.068   3.502   1.704  0.7034 -1.1086  0.1184
 1407TIP3    H125636   0.129   3.440   1.745 -0.7567 -2.0751  0.9335
 1407TIP3    H225637   0.082   3.490   1.610  2.2928 -0.7391  0.2706
 1408TIP3   OH225638   5.289   0.766  12.321 -0.4394 -0.1622  0.0035
 1408TIP3    H125639   5.258   0.676  12.329  2.5416 -1.3577 -0.4759
 1408TIP3    H225640   5.367   0.759  12.266  2.5559  1.9603  3.5594
 1409TIP3   OH225641   0.060   5.506   3.520 -0.0848  0.0941  0.8225
 1409TIP3    H125642  -0.032   5.533   3.518 -0.3322 -0.6885  1.2532
 1409TIP3    H225643   0.105   5.577   3.565 -0.3328  0.8787 -0.1325
 1410TIP3   OH225644   0.334   0.075   4.603 -0.0436 -0.0412  0.4482
 1410TIP3    H125645   0.251   0.122   4.611  0.4561  0.9414 -0.0310
 1410TIP3    H225646   0.349   0.039   4.691 -0.7385  0.1606  0.6559
 1411TIP3   OH225647   2.214   6.608   0.561  0.3036  0.0971 -0.0273
 1411TIP3    H125648   2.133   6.637   0.519 -0.0370  0.3996  0.8050
 1411TIP3    H225649   2.278   6.602   0.490  0.0766  1.7636 -0.4045
 1412TIP3   OH225650   1.032   6.448   0.375  0.2275 -0.1939 -0.0995
 1412TIP3    H125651   1.057   6.382   0.310  0.9597 -1.4637  1.4049
 1412TIP3    H225652   0.959   6.408   0.423 -0.0746  0.5880  0.1123
 1413TIP3   OH225653   3.258   4.763  13.226 -0.5501 -0.1466 -0.6782
 1413TIP3    H125654   3.250   4.673  13.258 -1.3491  0.4223  0.8457
 1413TIP3    H225655   3.320   4.804  13.286  0.6771  0.0526 -2.0322
 1414TIP3   OH225656   2.796   3.205  11.813 -0.1666 -0.2716  0.3541
 1414TIP3    H125657   2.799   3.226  11.906  2.6910 -2.0475  0.7670
 1414TIP3    H225658   2.752   3.281  11.773  1.5969  2.1859  2.7253
 1415TIP3   OH225659   6.203   5.686  13.628  0.0165 -0.1850 -0.1974
 1415TIP3    H125660   6.213   5.695  13.723 -1.1759  2.5358 -0.2497
 1415TIP3    H225661   6.292   5.683  13.595  0.4509 -0.9184  0.9757
 1416TIP3   OH225662   3.937   1.309  15.624  0.1625 -0.0340  0.5191
 1416TIP3    H125663   3.915   1.390  15.670  1.3056  0.2943  0.5022
 1416TIP3    H225664   3.908   1.240  15.683  0.9024  0.3845  1.3982
 1417TIP3   OH225665   2.115   5.809  13.724 -0.2862  0.3712 -0.0326
 1417TIP3    H125666   2.120   5.760  13.806  0.8109  0.9549  0.2667
 1417TIP3    H225667   2.174   5.764  13.665  0.1467  0.8633  0.0092
 1418TIP3   OH225668   2.177   6.122   3.097 -0.6504  0.5082 -0.0498
 1418TIP3    H125669   2.102   6.102   3.041 -1.9142 -0.3738  1.8309
 1418TIP3    H225670   2.225   6.040   3.104 -2.2288 -0.3320  2.4932
 1419TIP3   OH225671   5.247   0.712   5.644 -0.0223  0.2911 -0.1351
 1419TIP3    H125672   5.223   0.713   5.736 -3.1012 -1.8540 -0.7428
 1419TIP3    H225673   5.280   0.623   5.629 -2.8492 -0.6318 -1.6600
 1420TIP3   OH225674   0.504   5.669  14.558 -0.1969  0.0197  0.3764
 1420TIP3    H125675   0.519   5.622  14.640  1.9236 -1.7051 -0.8747
 1420TIP3    H225676   0.566   5.741  14.560  0.0308 -0.1682  0.2106
 1421TIP3   OH225677   4.004   5.971  11.771 -0.2084  0.1537 -0.0035
 1421TIP3    H125678   4.055   5.964  11.689  2.6897  1.9962  1.4650
 1421TIP3    H225679   3.951   6.049  11.759 -0.0423  0.2305 -0.2682
 1422TIP3   OH225680   0.371   5.312   1.284  0.4765  0.2308  0.0222
 1422TIP3    H125681   0.279   5.317   1.256 -0.4433 -1.0551  2.4436
 1422TIP3    H225682   0.390   5.400   1.317  0.0408  0.4560 -0.3185
 1423TIP3   OH225683   0.927   5.035   1.781 -0.6473  0.2610  0.8004
 1423TIP3    H125684   0.877   5.073   1.854 -1.4994  3.0630 -1.0715
 1423TIP3    H225685   0.872   5.050   1.704  1.6094  0.4313 -0.8885
 1424TIP3   OH225686   2.134   0.542  15.038 -0.1928  0.3010 -0.8686
 1424TIP3    H125687   2.175   0.491  14.968  1.6494  1.1589 -0.4572
 1424TIP3    H225688   2.049   0.500  15.051  0.2577 -1.1212 -2.2224
 1425TIP3   OH225689   0.285   0.397  12.081  0.0280 -1.0846  0.3293
 1425TIP3    H125690   0.190   0.408  12.080  0.1129 -0.2336 -0.6019
 1425TIP3    H225691   0.319   0.480  12.047  1.1398 -1.0929  1.3665
 1426TIP3   OH225692   1.604   5.655   6.141  0.3524  0.0454 -0.0236
 1426TIP3    H125693   1.540   5.719   6.110  0.1963 -1.6013 -3.5620
 1426TIP3    H225694   1.689   5.695   6.121  0.3024 -0.0624 -0.4529
 1427TIP3   OH225695   2.929   2.152  17.188  0.3655 -0.0478 -0.0733
 1427TIP3    H125696   2.937   2.162  17.283  0.2650  1.6996 -0.2218
 1427TIP3    H225697   2.961   2.235  17.152  0.0773 -0.5459 -1.5571
 1428TIP3   OH225698   6.691   6.064   0.440  0.5927  0.3318  0.2454
 1428TIP3    H125699   6.661   6.138   0.493  0.4545  1.1260 -0.8920
 1428TIP3    H225700   6.659   6.083   0.352  1.4486 -0.5666 -0.2882
 1429TIP3   OH225701   0.422   3.224  12.469  0.7015 -0.5539 -1.1739
 1429TIP3    H125702   0.399   3.217  12.561  2.3703 -0.7627 -0.7555
 1429TIP3    H225703   0.340   3.202  12.423  0.4592 -3.0514  0.2277
 1430TIP3   OH225704   4.590   4.358   3.164  0.0401  1.2423  0.5553
 1430TIP3    H125705   4.532   4.365   3.240 -0.9297 -2.8354  0.4438
 1430TIP3    H225706   4.677   4.342   3.201 -0.1644  0.7188  0.8250
 1431TIP3   OH225707   6.745   1.235   5.799  0.3193 -0.0791 -0.4103
 1431TIP3    H125708   6.839   1.247   5.785  0.5165 -1.8323 -0.8288
 1431TIP3    H225709   6.718   1.178   5.728 -1.2644  1.0647 -0.7807
 1432TIP3   OH225710   4.849   5.493   0.737  0.0373 -0.3418  0.0328
 1432TIP3    H125711   4.852   5.460   0.826 -2.3548 -0.7720  0.0248
 1432TIP3    H225712   4.870   5.417   0.683  2.5538  0.1598  0.1744
 1433TIP3   OH225713   4.664   1.424   2.375 -0.0324  0.2708 -0.5457
 1433TIP3    H125714   4.757   1.407   2.367 -0.3243 -0.8759 -2.0720
 1433TIP3    H225715   4.640   1.392   2.462  1.5741  3.9063  1.4632
 1434TIP3   OH225716   0.656   0.862   1.259  0.0478  0.1317  0.1694
 1434TIP3    H125717   0.642   0.779   1.213 -0.7580  0.6388 -0.5458
 1434TIP3    H225718   0.568   0.898   1.270  0.3849  0.8800  0.4905
 1435TIP3   OH225719   6.573   4.581   6.235 -0.4228  0.2303 -0.5394
 1435TIP3    H125720   6.653   4.617   6.274 -0.4050  0.7976 -1.0740
 1435TIP3    H225721   6.557   4.500   6.284 -0.0003  0.5444  0.1425
 1436TIP3   OH225722   3.217   4.735  14.331 -0.4313 -0.4123  0.0314
 1436TIP3    H125723   3.175   4.796  14.392  0.7367 -0.1703  0.6267
 1436TIP3    H225724   3.296   4.781  14.302 -0.3885 -0.9882 -0.7999
 1437TIP3   OH225725   1.752   1.000  11.753 -0.2077 -0.0176 -0.1889
 1437TIP3    H125726   1.793   1.062  11.813  1.7776 -0.4346 -1.0501
 1437TIP3    H225727   1.700   1.055  11.694  2.0273  0.9557 -1.3430
 1438TIP3   OH225728   1.207   1.927   6.463  0.4023 -0.0871  0.0718
 1438TIP3    H125729   1.202   2.022   6.470  0.9858  0.0527 -1.2362
 1438TIP3    H225730   1.254   1.911   6.382 -2.2501 -1.5218 -1.3044
 1439TIP3   OH225731   0.125   3.516  12.520 -0.4153  0.0825  0.7427
 1439TIP3    H125732   0.155   3.539  12.608  0.2950  0.3072  0.4490
 1439TIP3    H225733   0.101   3.599  12.479  3.3726  0.6424 -0.7721
 1440TIP3   OH225734   3.437   3.803  13.463  0.4618  0.6116 -0.3983
 1440TIP3    H125735   3.400   3.741  13.399  0.6403  0.0391  0.0508
 1440TIP3    H225736   3.530   3.781  13.467  0.5779  1.0802 -0.4205
 1441TIP3   OH225737   1.394   1.460  16.351 -0.6359  0.3369 -0.1286
 1441TIP3    H125738   1.404   1.389  16.288  2.5314  0.6464 -0.1681
 1441TIP3    H225739   1.393   1.539  16.298 -4.0599  0.4669 -0.0772
 1442TIP3   OH225740   2.143   1.566   6.729 -0.0665 -0.0675 -0.6809
 1442TIP3    H125741   2.226   1.613   6.718 -0.7053  0.7653 -2.2758
 1442TIP3    H225742   2.169   1.478   6.756  1.3060  0.3330 -0.6135
 1443TIP3   OH225743   1.684   0.693   2.895 -0.4570  0.4872  0.0932
 1443TIP3    H125744   1.661   0.740   2.976 -0.4952 -0.4778  0.6679
 1443TIP3    H225745   1.709   0.762   2.834  0.4472  1.1959  1.2070
 1444TIP3   OH225746   5.867   5.116   0.450 -0.0381  0.3044  0.2709
 1444TIP3    H125747   5.817   5.136   0.370 -0.7152  0.4574  0.7234
 1444TIP3    H225748   5.850   5.191   0.508 -0.1616 -0.1523  0.8368
 1445TIP3   OH225749   6.544   4.389  17.279 -0.7180  0.3516  0.2536
 1445TIP3    H125750   6.520   4.433  17.361 -1.4169  0.4332  0.0104
 1445TIP3    H225751   6.470   4.333  17.260 -0.4698  0.1869 -0.2275
 1446TIP3   OH225752   1.750   1.935  15.464  0.1075 -0.1064  0.0569
 1446TIP3    H125753   1.700   1.892  15.533  2.6155  0.6460  2.5008
 1446TIP3    H225754   1.784   2.015  15.505  2.6247 -0.1807 -1.6674
 1447TIP3   OH225755   0.515   3.720  17.238 -0.2559  0.1091 -0.3258
 1447TIP3    H125756   0.449   3.702  17.305  1.1793  1.3419  1.4897
 1447TIP3    H225757   0.491   3.806  17.203 -0.7267 -0.3252 -1.1210
 1448TIP3   OH225758   4.561   2.952   0.985  0.3238  0.0985 -0.3969
 1448TIP3    H125759   4.597   2.985   1.068  0.5977  1.2975 -0.9747
 1448TIP3    H225760   4.595   2.863   0.978 -0.9235 -0.5781  1.5062
 1449TIP3   OH225761   0.771   5.479  17.309 -0.3855  0.4045 -0.2790
 1449TIP3    H125762   0.736   5.401  17.266 -1.1147  1.0577 -0.9141
 1449TIP3    H225763   0.740   5.473  17.399 -1.1839  0.3871 -0.5467
 1450TIP3   OH225764   4.778   2.957  13.844 -0.1356 -0.1517  0.2238
 1450TIP3    H125765   4.796   2.919  13.930  1.7213  0.3925  0.1166
 1450TIP3    H225766   4.827   3.039  13.844  0.9505 -0.7537 -1.8131
 1451TIP3   OH225767   5.406   0.269   3.133 -0.0562  0.1984 -0.3439
 1451TIP3    H125768   5.410   0.224   3.049 -0.1935 -1.6742  0.6054
 1451TIP3    H225769   5.336   0.225   3.181 -0.2010  1.4435  0.6539
 1452TIP3   OH225770   2.671   2.846  14.407  0.3637 -0.3167 -0.0987
 1452TIP3    H125771   2.591   2.852  14.356 -0.9363 -0.4663  1.8441
 1452TIP3    H225772   2.643   2.820  14.495  2.1796  2.3899  1.4493
 1453TIP3   OH225773   3.258   1.699   5.053 -0.2337 -0.2358 -0.4608
 1453TIP3    H125774   3.172   1.656   5.059 -1.0245  1.4021  0.5773
 1453TIP3    H225775   3.243   1.775   4.997  0.9578 -0.8069 -1.6061
 1454TIP3   OH225776   0.760   3.706  15.647  0.0113  0.6614  0.1368
 1454TIP3    H125777   0.782   3.622  15.606 -0.5367 -0.0031  1.1677
 1454TIP3    H225778   0.819   3.713  15.722 -1.7132 -0.1157  1.6504
 1455TIP3   OH225779   2.806   2.345   3.381 -0.2764  0.4288  0.1936
 1455TIP3    H125780   2.871   2.336   3.450 -1.0077  0.1274  0.8602
 1455TIP3    H225781   2.796   2.257   3.344 -2.3623 -0.1860  2.0305
 1456TIP3   OH225782   0.798   1.891  13.553  0.1310  0.3900  0.0116
 1456TIP3    H125783   0.853   1.861  13.625 -1.4102  1.6973  1.8267
 1456TIP3    H225784   0.723   1.831  13.554  0.6599 -0.3415 -1.3556
 1457TIP3   OH225785   3.626   0.686  11.688  0.3103  0.1987  0.1450
 1457TIP3    H125786   3.582   0.633  11.621 -1.2172  2.1000 -0.4322
 1457TIP3    H225787   3.709   0.712  11.646  0.3192 -0.3431 -0.1875
 1458TIP3   OH225788   6.689   4.170  11.225  0.2686  0.2592  0.2290
 1458TIP3    H125789   6.730   4.129  11.149  0.3336 -0.9567  0.9032
 1458TIP3    H225790   6.668   4.259  11.196  1.2543  0.1483 -0.8627
 1459TIP3   OH225791   5.617   0.599   0.595 -0.1513  0.3495 -0.5933
 1459TIP3    H125792   5.560   0.593   0.518 -2.0707 -3.0725  0.8844
 1459TIP3    H225793   5.701   0.565   0.563  0.0731  1.9594 -1.8757
 1460TIP3   OH225794   1.659   0.846   5.868  0.2448  0.2800  0.1384
 1460TIP3    H125795   1.664   0.926   5.921  1.0799  0.5108 -0.2730
 1460TIP3    H225796   1.708   0.781   5.918  3.3753  1.1947 -1.5251
 1461TIP3   OH225797   1.368   0.914   0.880  0.0821  0.8277 -0.3789
 1461TIP3    H125798   1.405   0.828   0.855 -1.5476  0.6529 -2.4629
 1461TIP3    H225799   1.445   0.967   0.900  1.1595 -1.0345  0.7607
 1462TIP3   OH225800   4.498   6.469   3.912  0.0469 -0.2262  0.4632
 1462TIP3    H125801   4.473   6.551   3.869 -2.8329 -0.8265  0.8206
 1462TIP3    H225802   4.528   6.495   3.998  1.0679  0.5756 -0.1130
 1463TIP3   OH225803   1.690   2.493  13.249 -0.2925  0.1121  0.1113
 1463TIP3    H125804   1.618   2.439  13.217 -1.8201  2.4506 -0.6873
 1463TIP3    H225805   1.663   2.521  13.336 -0.4817  1.1594 -0.2680
 1464TIP3   OH225806   6.193   2.699   0.654  0.3895 -0.4519 -0.1008
 1464TIP3    H125807   6.269   2.757   0.647  1.2390 -1.5297 -0.1057
 1464TIP3    H225808   6.167   2.682   0.563  1.4477 -1.6956 -0.2146
 1465TIP3   OH225809   2.860   2.240   2.175 -0.2626 -0.2553  0.0976
 1465TIP3    H125810   2.921   2.179   2.133  0.5332  0.4066  0.2544
 1465TIP3    H225811   2.879   2.324   2.132 -1.7840 -0.2300 -0.5726
 1466TIP3   OH225812   4.469   4.111   0.669  0.4474  0.5325 -0.4251
 1466TIP3    H125813   4.493   4.035   0.616 -0.1691 -0.7480  1.0435
 1466TIP3    H225814   4.448   4.074   0.755 -1.8501  2.1471 -0.2196
 1467TIP3   OH225815   2.908   0.587   4.218  0.0235  0.1131 -0.7277
 1467TIP3    H125816   2.963   0.566   4.142 -0.0222 -0.3430 -0.6391
 1467TIP3    H225817   2.962   0.644   4.273  0.2786 -0.0523 -0.8086
 1468TIP3   OH225818   3.737   4.647   4.569 -0.4141 -0.1877 -0.0056
 1468TIP3    H125819   3.793   4.672   4.642 -1.6962  0.2313  0.8617
 1468TIP3    H225820   3.730   4.726   4.516 -0.0920 -0.2774 -0.1853
 1469TIP3   OH225821   5.116   2.463  11.838 -0.1515 -0.3911  0.2181
 1469TIP3    H125822   5.023   2.445  11.847  0.2480 -2.7177  0.1919
 1469TIP3    H225823   5.139   2.513  11.917 -1.1127 -1.1632  1.0080
 1470TIP3   OH225824   0.614   1.696   0.351 -0.0247  0.1895  0.3860
 1470TIP3    H125825   0.572   1.681   0.436  0.2802 -0.7442  0.3846
 1470TIP3    H225826   0.672   1.621   0.340  0.0113  0.3551 -0.6082
 1471TIP3   OH225827   4.323   1.672  16.367  0.7115  0.7036  0.7031
 1471TIP3    H125828   4.414   1.684  16.338  0.0718  1.0728 -1.2965
 1471TIP3    H225829   4.276   1.646  16.288 -0.9655  0.6202  1.6791
 1472TIP3   OH225830   4.645   4.633   3.814  0.6073 -0.0921 -0.8810
 1472TIP3    H125831   4.555   4.611   3.790  0.8992 -1.4350 -0.8472
 1472TIP3    H225832   4.680   4.677   3.736 -0.3103  1.2200 -0.5815
 1473TIP3   OH225833   1.866   3.445  16.589  0.5984 -0.5003 -0.0729
 1473TIP3    H125834   1.870   3.351  16.604 -0.1139 -0.8400 -1.7969
 1473TIP3    H225835   1.957   3.474  16.592  0.7882 -1.1785  0.8413
 1474TIP3   OH225836   5.276   6.582  12.018  0.6003  0.4334  0.2803
 1474TIP3    H125837   5.353   6.627  12.052  0.0213  1.2862  0.4733
 1474TIP3    H225838   5.284   6.589  11.922 -0.1082  2.0233  0.3205
 1475TIP3   OH225839   0.516   4.859  12.281  0.2752 -0.3155  0.2604
 1475TIP3    H125840   0.508   4.921  12.354 -0.2448  0.6169 -0.5617
 1475TIP3    H225841   0.504   4.773  12.321  0.3159  0.1541  1.3222
 1476TIP3   OH225842   1.578   5.354  15.445 -0.2094 -0.3500 -0.1046
 1476TIP3    H125843   1.487   5.325  15.459  0.1329 -1.3652  0.1024
 1476TIP3    H225844   1.585   5.435  15.495 -0.5801 -1.0615  1.1580
 1477TIP3   OH225845   1.144   4.160   3.429  0.1119  0.0961  0.0270
 1477TIP3    H125846   1.150   4.255   3.428 -2.0208  0.2956 -1.0716
 1477TIP3    H225847   1.119   4.136   3.339  0.0202 -1.4283  0.4251
 1478TIP3   OH225848   6.092   4.475   3.383 -0.3637  0.2978 -0.0095
 1478TIP3    H125849   6.013   4.509   3.425 -0.4985 -1.2148  1.0345
 1478TIP3    H225850   6.158   4.543   3.399 -1.2851  1.3119 -0.3965
 1479TIP3   OH225851   0.599   0.035  15.746 -0.2624  0.2759  0.5468
 1479TIP3    H125852   0.552   0.109  15.708  1.9767  0.5575 -1.9586
 1479TIP3    H225853   0.662   0.075  15.806  0.8510  0.4708 -0.7018
 1480TIP3   OH225854   6.016   6.581  15.486  0.3274  0.4569 -0.3139
 1480TIP3    H125855   6.100   6.565  15.443 -0.1997  2.2669 -2.1937
 1480TIP3    H225856   6.014   6.676  15.499 -2.3326  0.8278 -2.4853
 1481TIP3   OH225857   4.276   2.853   2.370  0.0069 -0.0090 -0.0876
 1481TIP3    H125858   4.247   2.891   2.287 -2.6343  0.7915  1.0861
 1481TIP3    H225859   4.200   2.805   2.402  1.2685 -1.0837  1.4736
 1482TIP3   OH225860   3.426   4.076  14.434 -0.1603 -0.3435  0.6417
 1482TIP3    H125861   3.391   4.137  14.369 -2.8680  0.3172  2.5253
 1482TIP3    H225862   3.353   4.061  14.494  1.2182 -3.4181  1.7691
 1483TIP3   OH225863   0.797   2.180  11.915  0.2943 -0.0310 -0.2045
 1483TIP3    H125864   0.865   2.156  11.977 -0.5710  1.0552  1.2473
 1483TIP3    H225865   0.831   2.259  11.871 -0.3842  1.1230  1.2521
 1484TIP3   OH225866   2.416   0.115   2.537 -0.4676 -0.1465  0.9792
 1484TIP3    H125867   2.427   0.033   2.488 -1.0620  0.4527 -0.1938
 1484TIP3    H225868   2.504   0.135   2.570  0.3394  0.2753 -1.2716
 1485TIP3   OH225869   3.652   3.325  13.219  0.2450  0.5583 -0.2982
 1485TIP3    H125870   3.600   3.306  13.297  1.4176  1.4790  0.7411
 1485TIP3    H225871   3.645   3.420  13.208  2.1589  0.7946  0.2244
 1486TIP3   OH225872   3.109   2.958  12.229 -0.3583  0.1653 -0.5384
 1486TIP3    H125873   3.074   2.909  12.155  0.8579  0.2799 -1.2098
 1486TIP3    H225874   3.032   2.993  12.273 -1.3492 -2.6642  0.2333
 1487TIP3   OH225875   2.285   5.779  15.523  0.0266 -0.1567 -0.3594
 1487TIP3    H125876   2.196   5.747  15.514  0.3260 -1.3435  0.6299
 1487TIP3    H225877   2.301   5.830  15.443 -1.3109 -0.4312 -0.8173
 1488TIP3   OH225878   0.314   4.257  15.540 -0.1085 -0.1139  0.2555
 1488TIP3    H125879   0.391   4.302  15.505 -0.1818 -0.6476 -0.6361
 1488TIP3    H225880   0.307   4.177  15.487 -1.3108 -0.0404  0.2783
 1489TIP3   OH225881   6.468   6.195  15.748 -0.6262 -0.0842 -0.4738
 1489TIP3    H125882   6.517   6.209  15.667 -1.6167  1.4268 -0.8500
 1489TIP3    H225883   6.377   6.185  15.720 -0.7018 -1.8509  0.2914
 1490TIP3   OH225884   1.028   0.236  15.633 -0.6717  0.3616  0.2990
 1490TIP3    H125885   0.979   0.290  15.571  0.1663  0.1076 -0.6075
 1490TIP3    H225886   1.095   0.294  15.669 -0.6447  0.2919  0.3630
 1491TIP3   OH225887   3.328   0.119   3.800  0.3513 -0.1239 -0.2324
 1491TIP3    H125888   3.338   0.143   3.708  0.4935 -0.5323 -0.3257
 1491TIP3    H225889   3.412   0.079   3.824 -0.0819 -1.0736 -0.2505
 1492TIP3   OH225890   0.262   0.459   0.088  0.4266 -0.2476 -0.0887
 1492TIP3    H125891   0.270   0.388   0.026  1.6178 -0.1840 -0.0220
 1492TIP3    H225892   0.264   0.539   0.035  1.6635 -0.1850  0.0263
 1493TIP3   OH225893   0.395   4.667   3.829 -0.0098  0.0114 -0.1433
 1493TIP3    H125894   0.321   4.671   3.769 -1.2417 -2.1106  1.1024
 1493TIP3    H225895   0.357   4.639   3.912  2.3245 -2.4582  0.2208
 1494TIP3   OH225896   0.156   2.923  12.715  0.1340 -0.1506 -0.0242
 1494TIP3    H125897   0.164   2.987  12.644  0.6950  0.4996  0.6037
 1494TIP3    H225898   0.105   2.969  12.782  1.4290  0.0470  0.8676
 1495TIP3   OH225899   1.417   2.793   3.283  0.5377 -0.0737 -0.7748
 1495TIP3    H125900   1.461   2.710   3.303 -0.9269 -0.7521 -0.2137
 1495TIP3    H225901   1.448   2.816   3.196  1.2835 -1.0008 -0.7714
 1496TIP3   OH225902   4.996   3.545  15.268  0.0005 -0.5342 -0.8012
 1496TIP3    H125903   5.054   3.620  15.284  0.1283 -0.8864  0.4696
 1496TIP3    H225904   4.984   3.544  15.173 -0.2448  1.2728 -0.8148
 1497TIP3   OH225905   5.637   5.060  14.151  0.3940 -0.2346  0.4242
 1497TIP3    H125906   5.660   4.967  14.156  0.4799 -0.3229 -1.2491
 1497TIP3    H225907   5.625   5.086  14.243  1.3756 -1.6315  0.9923
 1498TIP3   OH225908   1.660   3.724  11.041  0.1737  0.2062  0.1944
 1498TIP3    H125909   1.685   3.715  11.133  1.0760  0.0336 -0.0552
 1498TIP3    H225910   1.743   3.720  10.993 -0.3299 -0.2113 -0.6658
 1499TIP3   OH225911   4.194   5.272  14.698  0.0814  0.2288 -0.0365
 1499TIP3    H125912   4.245   5.350  14.679  0.7687 -0.1361  0.2927
 1499TIP3    H225913   4.253   5.199  14.680 -0.0033 -0.1781  1.2270
 1500TIP3   OH225914   6.713   2.859  15.048 -0.1642  0.0472 -0.4387
 1500TIP3    H125915   6.622   2.832  15.041 -0.1179 -1.2477  2.3638
 1500TIP3    H225916   6.748   2.854  14.959 -2.2905 -1.4296 -1.2542
 1501TIP3   OH225917   5.912   3.298  11.149  0.1420  0.6152  0.2874
 1501TIP3    H125918   5.943   3.208  11.155  2.0725  1.2697  0.8860
 1501TIP3    H225919   5.860   3.300  11.068  2.5368 -0.3679 -1.4062
 1502TIP3   OH225920   1.935   5.599   1.836 -0.5057  0.5674 -0.0827
 1502TIP3    H125921   2.005   5.661   1.859 -0.8413  1.0837 -0.4108
 1502TIP3    H225922   1.959   5.568   1.749  0.1988 -0.5571  0.5001
 1503TIP3   OH225923   0.048   5.112  11.982  0.2511  0.8338  0.2762
 1503TIP3    H125924  -0.047   5.103  11.975  0.2636  0.2926  0.7289
 1503TIP3    H225925   0.077   5.128  11.892 -0.1797  0.0739 -0.0143
 1504TIP3   OH225926   3.634   3.874   0.145 -0.2781  0.1275 -0.0315
 1504TIP3    H125927   3.670   3.887   0.232 -0.6751  1.0167  0.0122
 1504TIP3    H225928   3.633   3.779   0.133  0.4282  0.0225  0.6481
 1505TIP3   OH225929   0.382   4.534   0.787 -0.2773 -0.5278  0.0676
 1505TIP3    H125930   0.463   4.508   0.832  0.1159 -0.2574 -0.4853
 1505TIP3    H225931   0.325   4.457   0.796  0.0410 -0.7247  0.4511
 1506TIP3   OH225932   0.825   2.710   4.630  0.0144  0.7712  0.2454
 1506TIP3    H125933   0.795   2.695   4.720 -0.2147 -1.2628 -0.1231
 1506TIP3    H225934   0.777   2.787   4.601  1.6643  2.8260  2.5325
 1507TIP3   OH225935   1.200   6.223   2.030  0.3841 -0.2907  0.4820
 1507TIP3    H125936   1.226   6.254   2.117  1.0583 -2.3792  1.0729
 1507TIP3    H225937   1.268   6.256   1.971  1.8692 -1.7720  1.3126
 1508TIP3   OH225938   1.844   3.175  16.341 -0.1519  0.0361 -0.2154
 1508TIP3    H125939   1.864   3.200  16.431  0.5777 -0.9827 -0.0848
 1508TIP3    H225940   1.748   3.166  16.339 -0.3309  1.5872  0.0364
 1509TIP3   OH225941   3.135   1.387   4.044 -0.5321  0.2806  0.0840
 1509TIP3    H125942   3.140   1.331   4.121 -2.3028  0.5382  0.4391
 1509TIP3    H225943   3.188   1.342   3.978 -0.1108 -0.6571  1.0271
 1510TIP3   OH225944   0.905   4.422   3.629 -0.0323  0.0070  0.2837
 1510TIP3    H125945   0.870   4.363   3.563 -1.8153  1.0154  0.2794
 1510TIP3    H225946   0.919   4.505   3.583  1.9655 -0.2033  0.4102
 1511TIP3   OH225947   5.498   0.251  12.756  0.1599  0.3130  0.1080
 1511TIP3    H125948   5.498   0.292  12.669 -2.3283 -0.1265 -0.1739
 1511TIP3    H225949   5.468   0.161  12.740  3.3347 -1.0656  0.9994
 1512TIP3   OH225950   6.377   4.145  11.232 -0.2366 -0.6250  0.2958
 1512TIP3    H125951   6.300   4.194  11.201 -0.8507 -1.5075  0.4055
 1512TIP3    H225952   6.433   4.138  11.155  0.0838  0.6339  0.3819
 1513TIP3   OH225953   4.121   4.419  16.882 -0.0871  0.1422 -0.0133
 1513TIP3    H125954   4.102   4.482  16.812  0.1785  0.4902  0.2214
 1513TIP3    H225955   4.141   4.473  16.958 -2.5718 -0.1945  0.9776
 1514TIP3   OH225956   0.999   2.009  14.758  0.3572 -0.2741  0.0768
 1514TIP3    H125957   1.085   1.967  14.756  0.3567 -0.3095  0.6526
 1514TIP3    H225958   0.991   2.043  14.847  0.3308  0.8886 -0.3521
 1515TIP3   OH225959   4.753   3.450   6.151  0.3595 -0.6208 -0.2632
 1515TIP3    H125960   4.724   3.470   6.240  1.8041  0.0086  0.1013
 1515TIP3    H225961   4.716   3.520   6.097  0.1258 -0.5576 -0.0194
 1516TIP3   OH225962   2.900   4.274  12.917 -0.3453 -0.5359  0.4691
 1516TIP3    H125963   2.808   4.260  12.895 -0.9141  0.3038  2.1127
 1516TIP3    H225964   2.899   4.352  12.974  1.6595  1.0373 -1.4542
 1517TIP3   OH225965   3.157   5.667  16.518  0.4554  0.1220  0.3210
 1517TIP3    H125966   3.139   5.622  16.435  1.0539  1.3099 -0.4828
 1517TIP3    H225967   3.170   5.597  16.581 -0.3704 -0.8045 -0.5159
 1518TIP3   OH225968   4.738   2.357   4.340  0.0605 -0.1228 -0.5713
 1518TIP3    H125969   4.801   2.410   4.389  0.2841 -1.7471  0.9786
 1518TIP3    H225970   4.752   2.268   4.371 -3.1353 -0.5370 -0.0073
 1519TIP3   OH225971   4.050   1.030   5.449 -0.1755 -0.3287 -0.3464
 1519TIP3    H125972   3.983   1.086   5.488  0.4824  0.5618 -0.4861
 1519TIP3    H225973   4.008   0.944   5.443 -0.7833 -0.1400  0.9632
 1520TIP3   OH225974   6.631   4.400  11.101  0.8115  0.2441 -0.3634
 1520TIP3    H125975   6.673   4.485  11.119 -0.2714  0.4036  1.7778
 1520TIP3    H225976   6.565   4.420  11.034  0.4986  1.1591  0.1840
 1521TIP3   OH225977   5.514   4.555   1.186 -0.8162 -0.0991  0.3632
 1521TIP3    H125978   5.505   4.527   1.277 -1.8275  0.3600  0.4187
 1521TIP3    H225979   5.543   4.477   1.140  0.9583 -0.0381  1.2644
 1522TIP3   OH225980   3.513   5.208   3.169  0.0636 -0.1557 -0.0901
 1522TIP3    H125981   3.576   5.136   3.174 -0.2336 -0.4663 -0.6672
 1522TIP3    H225982   3.514   5.234   3.077  0.5931  0.9718  0.2208
 1523TIP3   OH225983   6.455   5.177  12.942 -0.5550  0.3851  0.5915
 1523TIP3    H125984   6.498   5.248  12.895  0.4808 -1.5948 -1.6969
 1523TIP3    H225985   6.495   5.177  13.029 -1.1078  2.9725  0.9049
 1524TIP3   OH225986   3.425   5.590  13.215  0.3348 -0.2517 -0.4945
 1524TIP3    H125987   3.340   5.598  13.258  0.7542  1.3750  0.1070
 1524TIP3    H225988   3.477   5.661  13.251  1.0250  0.6169 -2.9590
 1525TIP3   OH225989   5.616   0.459  16.186  0.3996 -0.3496 -0.5364
 1525TIP3    H125990   5.547   0.454  16.120  0.4202 -0.6290 -0.5394
 1525TIP3    H225991   5.607   0.546  16.225  0.3784 -0.1887 -0.8992
 1526TIP3   OH225992   2.762   5.824  11.547 -0.0845  0.5010  0.3360
 1526TIP3    H125993   2.761   5.858  11.458 -2.0019  0.2182  0.1957
 1526TIP3    H225994   2.718   5.740  11.541  0.8274 -0.0728  1.3674
 1527TIP3   OH225995   0.520   3.278   4.137 -0.2355 -0.2957 -0.7546
 1527TIP3    H125996   0.436   3.290   4.093 -0.9454 -0.3368  0.5408
 1527TIP3    H225997   0.497   3.243   4.223  1.0522  0.4116 -0.0986
 1528TIP3   OH225998   6.463   0.740  11.356 -0.2213 -0.1386  0.6370
 1528TIP3    H125999   6.498   0.737  11.267 -2.3012 -0.5068 -0.2232
 1528TIP3    H226000   6.430   0.829  11.366 -0.5634 -0.2860  0.8288
 1529TIP3   OH226001   6.441   6.516  16.375 -0.4481  0.1255 -0.0641
 1529TIP3    H126002   6.390   6.544  16.299  0.0394  2.0141  0.2454
 1529TIP3    H226003   6.375   6.486  16.438 -1.1609  1.8415  0.0579
 1530TIP3   OH226004   0.090   6.068   4.412  0.2124 -0.2321 -0.3782
 1530TIP3    H126005   0.083   6.159   4.383  3.0554  0.4435  0.7904
 1530TIP3    H226006   0.008   6.028   4.383 -1.0096  2.5999 -1.1911
 1531TIP3   OH226007   3.253   2.387   2.619  0.2060  0.5107  0.2713
 1531TIP3    H126008   3.184   2.441   2.579  0.4746 -0.4625 -1.5589
 1531TIP3    H226009   3.332   2.441   2.613  0.5779 -0.1707 -1.9957
 1532TIP3   OH226010   2.218   6.042  14.431 -0.5801 -0.1411 -0.5147
 1532TIP3    H126011   2.297   6.066  14.384 -1.7319  0.7904 -2.0534
 1532TIP3    H226012   2.208   6.110  14.498 -0.4377  0.1087 -0.7460
 1533TIP3   OH226013   5.202   2.774   2.180  0.2720 -0.3551 -0.1286
 1533TIP3    H126014   5.161   2.709   2.123  0.8339  0.4569 -1.5079
 1533TIP3    H226015   5.293   2.745   2.189  0.7090  0.5484 -1.3058
 1534TIP3   OH226016   4.139   4.571  11.598 -0.5045 -0.1618  0.7781
 1534TIP3    H126017   4.050   4.585  11.566  0.1840  0.6779 -0.8812
 1534TIP3    H226018   4.180   4.657  11.592  0.7533 -0.7713  0.4258
 1535TIP3   OH226019   5.392   6.495  14.729 -0.0070  0.2447  0.2878
 1535TIP3    H126020   5.347   6.416  14.697  0.4191  0.3258 -0.5620
 1535TIP3    H226021   5.437   6.467  14.808 -2.7097  0.5180  2.0220
 1536TIP3   OH226022   0.556   3.809  15.836  0.1259 -0.3693 -0.0719
 1536TIP3    H126023   0.596   3.772  15.757 -1.7017 -1.0675 -0.7291
 1536TIP3    H226024   0.585   3.751  15.907 -0.1176 -1.1646 -0.6020
 1537TIP3   OH226025   0.995   1.333   2.952 -0.1103  0.0287  0.1514
 1537TIP3    H126026   1.086   1.353   2.932 -0.7080  1.7940 -1.0050
 1537TIP3    H226027   0.957   1.306   2.869 -0.3532 -2.1535  0.8934
 1538TIP3   OH226028   6.322   3.684  16.244 -0.1311  0.2591 -0.6475
 1538TIP3    H126029   6.338   3.601  16.198  4.0621  1.5209 -1.9275
 1538TIP3    H226030   6.322   3.750  16.175  1.1091  1.7218  0.6665
 1539TIP3   OH226031   0.103   1.494   0.246  0.2136  0.1904  0.7494
 1539TIP3    H126032   0.195   1.505   0.223  0.1461 -1.5593 -0.5186
 1539TIP3    H226033   0.057   1.496   0.163 -0.8467  0.4195  1.3215
 1540TIP3   OH226034   5.152   0.959   2.603 -0.1351  0.3449  0.7336
 1540TIP3    H126035   5.080   1.014   2.571 -0.0956  1.3675  2.2666
 1540TIP3    H226036   5.230   0.996   2.563 -0.1500  1.2050  1.4723
 1541TIP3   OH226037   6.295   3.358   4.563  0.0924  0.2151 -0.2102
 1541TIP3    H126038   6.231   3.417   4.524  0.5867 -0.6351 -2.4790
 1541TIP3    H226039   6.303   3.286   4.500 -0.6972 -2.4810  2.5547
 1542TIP3   OH226040   1.225   5.142   1.686  0.1084  0.2902  0.3707
 1542TIP3    H126041   1.166   5.195   1.632 -0.4008 -0.5555  0.0696
 1542TIP3    H226042   1.167   5.099   1.750  0.5990  0.6200  1.0493
 1543TIP3   OH226043   5.124   0.638   1.624  0.0567  0.2541  0.6334
 1543TIP3    H126044   5.144   0.600   1.539 -1.4205 -0.2312  0.4742
 1543TIP3    H226045   5.209   0.647   1.667  1.1148  2.6063 -1.7032
 1544TIP3   OH226046   5.887   1.729  16.336 -0.0976 -0.0153 -0.6882
 1544TIP3    H126047   5.961   1.767  16.289 -1.5079  1.3555 -1.9064
 1544TIP3    H226048   5.851   1.664  16.276 -0.5151  0.0980 -0.5653
 1545TIP3   OH226049   6.643   1.831  15.388 -0.5579  0.0085 -0.4172
 1545TIP3    H126050   6.684   1.824  15.302  0.3744  1.3465 -0.1012
 1545TIP3    H226051   6.705   1.789  15.448  0.2696  1.7861  0.0212
 1546TIP3   OH226052   0.469   4.505   4.405 -0.1372  0.1122 -0.5198
 1546TIP3    H126053   0.455   4.476   4.495 -0.2987 -0.0695 -0.6026
 1546TIP3    H226054   0.528   4.580   4.413  1.2660 -0.9662 -0.3948
 1547TIP3   OH226055   5.441   3.163  14.278  1.0011  0.6057 -0.5709
 1547TIP3    H126056   5.365   3.211  14.246 -1.1600 -1.4459  1.1251
 1547TIP3    H226057   5.460   3.099  14.209  0.6272  0.5508 -0.6231
 1548TIP3   OH226058   3.125   5.947  13.969 -0.0541 -0.3923 -0.1754
 1548TIP3    H126059   3.034   5.933  13.941 -0.5787 -1.9368  1.9967
 1548TIP3    H226060   3.121   6.025  14.024 -0.0201 -0.3185 -0.2774
 1549TIP3   OH226061   0.329   2.084   3.287 -0.2350  0.3029  0.2959
 1549TIP3    H126062   0.390   2.010   3.283  0.7215  1.1163 -1.0692
 1549TIP3    H226063   0.349   2.126   3.370  1.3877  0.7771 -0.2930
 1550TIP3   OH226064   2.560   3.040   5.192  0.3760  0.3277 -0.6000
 1550TIP3    H126065   2.641   3.090   5.182  0.2277  0.6838 -0.0622
 1550TIP3    H226066   2.526   3.066   5.277  0.0468 -0.3423 -0.5210
 1551TIP3   OH226067   4.757   1.499   3.431 -0.4557 -0.3116  0.0495
 1551TIP3    H126068   4.776   1.408   3.406  0.7537 -0.2834  0.7669
 1551TIP3    H226069   4.712   1.536   3.355  0.4538 -1.0595 -0.8870
 1552TIP3   OH226070   0.683   5.588   1.822  0.0399  0.0031  0.0648
 1552TIP3    H126071   0.651   5.653   1.759 -0.7415 -2.1512 -1.8722
 1552TIP3    H226072   0.749   5.538   1.773 -0.4028 -1.5703  1.0343
 1553TIP3   OH226073   2.680   6.284   1.850 -0.1211  0.5416 -0.1382
 1553TIP3    H126074   2.598   6.329   1.829 -0.8958  1.2433  3.6370
 1553TIP3    H226075   2.652   6.199   1.884  0.6303  0.9257  1.5226
 1554TIP3   OH226076   5.403   1.466   4.113 -0.5627 -0.8041  0.4561
 1554TIP3    H126077   5.384   1.500   4.201  0.1673 -0.8151  0.6256
 1554TIP3    H226078   5.361   1.528   4.054 -0.7956 -0.6237  0.8072
 1555TIP3   OH226079   6.081   0.824   2.843  0.5649  0.6818  0.2595
 1555TIP3    H126080   6.137   0.748   2.858 -0.3766 -0.0142  0.3135
 1555TIP3    H226081   6.027   0.830   2.922 -2.0632 -0.9683 -1.2795
 1556TIP3   OH226082   6.608   1.811   4.566  0.2471 -0.0558  0.3181
 1556TIP3    H126083   6.691   1.848   4.537 -0.7615  1.1853 -1.1375
 1556TIP3    H226084   6.576   1.873   4.631  0.0674 -0.0886  0.2611
 1557TIP3   OH226085   4.701   1.965   5.296  0.2181  0.0744  0.4091
 1557TIP3    H126086   4.678   1.929   5.211 -0.4678  2.7793 -0.6607
 1557TIP3    H226087   4.680   1.895   5.358 -1.5904 -1.1378 -1.4180
 1558TIP3   OH226088   3.385   1.769  13.894  0.0832 -0.1009 -0.3360
 1558TIP3    H126089   3.408   1.837  13.830 -0.9672  0.5033 -0.0861
 1558TIP3    H226090   3.290   1.767  13.894  0.0813 -0.4919  0.7976
 1559TIP3   OH226091   2.682   1.929   0.115 -0.0093  0.4383 -0.2769
 1559TIP3    H126092   2.712   1.862   0.177  1.0459  0.5549 -0.6342
 1559TIP3    H226093   2.656   1.879   0.037 -0.2968  0.3711 -0.1406
 1560TIP3   OH226094   2.941   3.716   4.914 -0.2022 -0.2307  0.0200
 1560TIP3    H126095   2.981   3.771   4.982 -0.1532 -0.5407  0.2464
 1560TIP3    H226096   2.923   3.633   4.959  0.8724 -0.8394 -0.6299
 1561TIP3   OH226097   4.853   4.245  16.353 -0.4840  0.6476  0.9014
 1561TIP3    H126098   4.847   4.152  16.377  0.1923  0.4283  0.2550
 1561TIP3    H226099   4.842   4.246  16.258 -2.6458  1.4641  1.1139
 1562TIP3   OH226100   3.351   3.112  13.290 -0.0606 -0.0433  0.3615
 1562TIP3    H126101   3.403   3.053  13.236 -0.1082 -0.6778  0.9891
 1562TIP3    H226102   3.362   3.079  13.379 -1.3870 -0.0922  0.5322
 1563TIP3   OH226103   3.896   6.628   4.517  0.6906  0.1901 -0.5236
 1563TIP3    H126104   3.807   6.612   4.549  0.5687  1.5733 -0.1206
 1563TIP3    H226105   3.944   6.657   4.594  2.0550 -2.4193 -0.2827
 1564TIP3   OH226106   4.904   4.811  16.331  0.1475  0.1270 -0.2798
 1564TIP3    H126107   4.985   4.855  16.305  0.2199 -0.3582 -0.8899
 1564TIP3    H226108   4.866   4.781  16.248 -0.4984  0.0789  0.0315
 1565TIP3   OH226109   3.873   0.125   6.691  0.2366  0.5638  0.1803
 1565TIP3    H126110   3.904   0.034   6.693 -1.0778  0.0185 -1.5983
 1565TIP3    H226111   3.901   0.158   6.606 -2.2946  0.6291 -0.7079
 1566TIP3   OH226112   1.352   0.358   0.718  0.6854  0.6140  0.3877
 1566TIP3    H126113   1.404   0.355   0.798  1.6128  1.1048 -0.1870
 1566TIP3    H226114   1.348   0.451   0.695  2.0132  0.3379 -1.1415
 1567TIP3   OH226115   2.853   1.041   0.687  0.6820  0.3841  0.5355
 1567TIP3    H126116   2.844   1.012   0.597  2.1239  1.1358  0.1116
 1567TIP3    H226117   2.774   1.093   0.704 -0.5689 -1.3954  0.3976
 1568TIP3   OH226118   1.075   4.253  11.031 -0.0572  0.1106  0.2596
 1568TIP3    H126119   1.111   4.164  11.026  1.3754  0.5376  2.1134
 1568TIP3    H226120   1.035   4.267  10.945  1.4421 -1.5840 -0.7796
 1569TIP3   OH226121   3.170   1.685   0.862 -0.1501  0.4325 -0.8890
 1569TIP3    H126122   3.252   1.703   0.909 -0.7466  1.2177 -0.1136
 1569TIP3    H226123   3.167   1.590   0.854  1.1835  0.4232 -1.5636
 1570TIP3   OH226124   1.141   4.435   1.912 -0.6936 -0.0310  0.1443
 1570TIP3    H126125   1.127   4.344   1.938  1.0884 -0.7938 -1.3355
 1570TIP3    H226126   1.061   4.459   1.864 -1.7747 -0.3012  1.7370
 1571TIP3   OH226127   0.870   4.535  11.462 -0.1374 -0.1031 -0.3904
 1571TIP3    H126128   0.903   4.459  11.413 -0.7963 -0.1523 -0.7708
 1571TIP3    H226129   0.796   4.566  11.410  0.7431  1.4375 -0.7779
 1572TIP3   OH226130   0.017   3.160  12.826  0.0162 -0.0627  0.2138
 1572TIP3    H126131   0.029   3.217  12.902 -1.2317  0.6254 -0.0810
 1572TIP3    H226132   0.070   3.200  12.758  1.3698 -0.8398  0.7700
 1573TIP3   OH226133   4.737   3.348  11.995  0.2957 -0.6028 -0.5503
 1573TIP3    H126134   4.714   3.271  12.047 -1.3466 -0.5733 -1.1856
 1573TIP3    H226135   4.653   3.383  11.965  0.8467  2.2222  0.8088
 1574TIP3   OH226136   6.371   3.977   0.720 -0.4471  0.3598  0.2449
 1574TIP3    H126137   6.297   3.968   0.780 -0.1953 -1.2684  0.3505
 1574TIP3    H226138   6.369   3.897   0.668  1.3590  0.1964  0.3750
 1575TIP3   OH226139   6.080   0.146   3.475 -0.1017  0.3324  0.1310
 1575TIP3    H126140   6.033   0.082   3.529  1.2923  0.4911  1.6069
 1575TIP3    H226141   6.030   0.149   3.394 -1.4769 -0.9779  0.8608
 1576TIP3   OH226142   5.598   5.304   3.687 -0.4548 -0.0780  0.0286
 1576TIP3    H126143   5.547   5.263   3.617 -0.7305 -1.3518  0.9521
 1576TIP3    H226144   5.689   5.292   3.661 -0.5605 -0.3862 -0.1939
 1577TIP3   OH226145   2.261   4.723  17.156  0.1643  0.1834 -0.3651
 1577TIP3    H126146   2.310   4.801  17.182  2.9207 -1.2851 -0.7190
 1577TIP3    H226147   2.237   4.740  17.065  0.4997  0.7636 -0.3512
 1578TIP3   OH226148   5.708   6.304   0.920 -0.2399  0.3576  0.2969
 1578TIP3    H126149   5.787   6.285   0.870 -0.9640 -2.4637  0.0715
 1578TIP3    H226150   5.738   6.356   0.994  2.0494 -1.6317  0.8669
 1579TIP3   OH226151   2.839   5.612  16.443 -0.2740 -0.0508 -0.4927
 1579TIP3    H126152   2.850   5.706  16.429  3.2044 -0.0810  0.9647
 1579TIP3    H226153   2.807   5.605  16.533  0.7868 -0.2572 -0.1233
 1580TIP3   OH226154   5.191   5.044  11.478 -0.1118 -0.3320 -0.1191
 1580TIP3    H126155   5.254   5.093  11.425 -0.3624 -0.2120 -0.3122
 1580TIP3    H226156   5.148   5.110  11.532 -0.5937 -0.3086 -0.5268
 1581TIP3   OH226157   1.417   0.307   3.969 -0.0506 -0.2568 -0.2967
 1581TIP3    H126158   1.479   0.270   4.032  1.6532  1.5342 -0.8234
 1581TIP3    H226159   1.447   0.273   3.884 -0.2378  0.0574 -0.4902
 1582TIP3   OH226160   2.633   1.623  16.625  0.5092  0.0211 -0.0599
 1582TIP3    H126161   2.610   1.653  16.713  1.4258 -1.5156  0.7307
 1582TIP3    H226162   2.623   1.701  16.570 -0.2119  0.9691  1.3708
 1583TIP3   OH226163   2.369   1.617  10.895 -0.2401  0.3325  0.4149
 1583TIP3    H126164   2.358   1.711  10.908  0.1353  0.4726 -0.2306
 1583TIP3    H226165   2.283   1.586  10.867 -1.0126  0.0629  2.8007
 1584TIP3   OH226166   3.455   3.433  13.870 -0.1256 -0.0676  0.0103
 1584TIP3    H126167   3.474   3.424  13.776 -2.6449 -1.3293 -0.4879
 1584TIP3    H226168   3.541   3.440  13.912  1.0664  2.1375 -2.4825
 1585TIP3   OH226169   1.142   2.557  12.379  0.2503 -0.0461 -0.3394
 1585TIP3    H126170   1.132   2.651  12.391  0.8195 -0.1552  1.2461
 1585TIP3    H226171   1.113   2.519  12.462  0.5549 -1.2411 -0.7529
 1586TIP3   OH226172   6.635   1.601   5.659  0.4664  0.0795 -0.2758
 1586TIP3    H126173   6.726   1.633   5.664 -0.2798  2.3534 -0.1345
 1586TIP3    H226174   6.605   1.630   5.573 -0.7422  1.2445  0.4910
 1587TIP3   OH226175   2.219   4.008   0.206  0.2268  0.6023 -0.6349
 1587TIP3    H126176   2.268   4.088   0.190  2.1526 -0.2082  0.8062
 1587TIP3    H226177   2.208   4.005   0.301  0.2324 -0.8563 -0.6601
 1588TIP3   OH226178   6.013   5.479  12.745  0.0112  0.0483 -0.5077
 1588TIP3    H126179   5.927   5.521  12.749 -0.4409 -0.9143  1.6440
 1588TIP3    H226180   6.056   5.506  12.826  0.6565 -1.6176 -0.2542
 1589TIP3   OH226181   4.883   1.473  11.896 -0.3402 -0.0954  0.1594
 1589TIP3    H126182   4.908   1.550  11.846 -0.4043  0.1497  0.4993
 1589TIP3    H226183   4.839   1.416  11.834 -0.2238  0.1098 -0.1109
 1590TIP3   OH226184   4.532   1.186  12.595 -0.3205  0.0565  0.0261
 1590TIP3    H126185   4.519   1.254  12.529  0.5900  1.3233  1.0937
 1590TIP3    H226186   4.548   1.106  12.544  1.5545  1.2085 -1.3295
 1591TIP3   OH226187   0.049   1.016   3.261 -0.1913 -0.5527  0.8493
 1591TIP3    H126188  -0.026   0.971   3.221 -0.2983 -0.5285  1.0234
 1591TIP3    H226189   0.090   1.062   3.188 -0.8488  0.1399  0.9066
 1592TIP3   OH226190   0.710   3.943  11.104 -0.0069 -0.1259 -0.1145
 1592TIP3    H126191   0.803   3.945  11.129 -0.0816 -0.7622  0.2511
 1592TIP3    H226192   0.707   3.983  11.018  0.4017  1.3011  0.4975
 1593TIP3   OH226193   3.774   5.749  15.704  0.2543  0.3691  0.1803
 1593TIP3    H126194   3.740   5.697  15.777 -0.2823 -4.5055 -3.0172
 1593TIP3    H226195   3.696   5.779  15.657  0.3290 -1.4870 -1.2826
 1594TIP3   OH226196   5.153   5.564   6.594 -0.3265 -0.5416 -0.5920
 1594TIP3    H126197   5.059   5.552   6.586 -0.1896 -0.9522 -2.0036
 1594TIP3    H226198   5.184   5.483   6.635 -0.3555 -1.4805 -2.3197
 1595TIP3   OH226199   4.768   3.496  11.554 -0.2823 -0.1681  0.0249
 1595TIP3    H126200   4.807   3.460  11.474  0.1759 -2.0528  1.0497
 1595TIP3    H226201   4.834   3.482  11.622 -1.4552 -0.4371  1.1455
 1596TIP3   OH226202   6.450   3.312  13.912 -0.2878 -0.2558 -0.2242
 1596TIP3    H126203   6.446   3.312  13.817  0.9480  1.3509 -0.3279
 1596TIP3    H226204   6.424   3.401  13.937  2.6457  0.4936  0.6584
 1597TIP3   OH226205   1.854   5.103  15.155 -0.4722 -0.1375 -0.8639
 1597TIP3    H126206   1.921   5.036  15.169  0.6911  1.3186  1.2039
 1597TIP3    H226207   1.864   5.162  15.230 -5.3144 -0.7745  0.6158
 1598TIP3   OH226208   3.595   3.230   5.562  0.6574  0.0384 -0.3487
 1598TIP3    H126209   3.690   3.243   5.553  0.6291  0.2698 -0.3194
 1598TIP3    H226210   3.572   3.174   5.487  0.6760  0.7059 -0.8609
 1599TIP3   OH226211   6.108   5.001   1.496 -0.3755  0.1922 -0.0864
 1599TIP3    H126212   6.085   5.035   1.583  2.2080 -1.0510  1.1782
 1599TIP3    H226213   6.024   4.975   1.458 -1.5560  0.3607  2.2289
 1600TIP3   OH226214   3.168   0.116  11.513  0.2455 -0.1269 -0.6117
 1600TIP3    H126215   3.162   0.211  11.496 -0.1862 -0.4540 -2.6538
 1600TIP3    H226216   3.259   0.102  11.538  0.3570  0.8086 -0.4299
 1601TIP3   OH226217   0.996   3.174  12.613 -0.3929 -0.2385  0.0983
 1601TIP3    H126218   1.060   3.233  12.575  0.8597 -0.1532  2.2348
 1601TIP3    H226219   0.978   3.111  12.543 -0.8086  1.8348 -1.7902
 1602TIP3   OH226220   5.533   2.115  13.862 -0.1154  0.2525 -0.2055
 1602TIP3    H126221   5.447   2.074  13.873 -0.2834  1.1317  2.6762
 1602TIP3    H226222   5.578   2.098  13.945  1.8581  1.3048 -0.9851
 1603TIP3   OH226223   3.124   1.726   1.355 -0.2057 -0.4228  0.2310
 1603TIP3    H126224   3.034   1.735   1.384 -0.6694  0.3165 -1.3455
 1603TIP3    H226225   3.173   1.790   1.407 -0.6404 -0.5801  0.8369
 1604TIP3   OH226226   5.829   2.012   4.249  0.5071 -0.2254 -0.3801
 1604TIP3    H126227   5.864   2.061   4.175 -0.0995  0.1490 -0.4189
 1604TIP3    H226228   5.759   2.066   4.284  1.6642  0.2590  1.3264
 1605TIP3   OH226229   3.395   3.312  14.823  0.6674 -0.0082  0.7017
 1605TIP3    H126230   3.456   3.264  14.767  1.0962 -1.0012  1.9816
 1605TIP3    H226231   3.440   3.393  14.844  0.7016  0.1570 -0.0051
 1606TIP3   OH226232   1.577   3.035   2.790 -0.3809  0.0274 -0.3010
 1606TIP3    H126233   1.591   3.081   2.873 -0.9126 -0.7370  0.2275
 1606TIP3    H226234   1.653   3.057   2.736  0.2663  0.0533  0.6131
 1607TIP3   OH226235   5.398   3.618  14.957 -0.3169  0.5881 -0.3647
 1607TIP3    H126236   5.358   3.580  15.036 -0.5926 -0.0093 -0.7852
 1607TIP3    H226237   5.370   3.561  14.886  0.7172  0.5602 -0.7738
 1608TIP3   OH226238   3.523   3.017  12.299 -0.1029  0.1076  0.1066
 1608TIP3    H126239   3.506   2.932  12.258 -0.1345  0.4242 -0.5365
 1608TIP3    H226240   3.518   2.999  12.393  0.7028 -0.7738 -0.0029
 1609TIP3   OH226241   0.532   1.002  11.330  0.0959 -0.1966  0.0322
 1609TIP3    H126242   0.613   0.955  11.351  0.0007  0.3160  1.6754
 1609TIP3    H226243   0.552   1.050  11.250  1.1109 -0.7973 -0.0935
 1610TIP3   OH226244   5.852   1.655  12.110  0.0931 -0.0165 -0.1659
 1610TIP3    H126245   5.895   1.703  12.040 -0.6894 -0.2864 -0.8486
 1610TIP3    H226246   5.923   1.627  12.167  0.8845 -0.8064 -1.4868
 1611TIP3   OH226247   4.226   6.066  10.670  0.0464  0.4633 -0.0354
 1611TIP3    H126248   4.254   5.980  10.703 -1.9546  0.0880  0.8439
 1611TIP3    H226249   4.138   6.077  10.704 -0.7741  1.7131 -2.3365
 1612TIP3   OH226250   5.384   1.205  15.843 -0.2701 -0.2382 -0.0264
 1612TIP3    H126251   5.391   1.137  15.776 -0.1698 -0.7732  0.5123
 1612TIP3    H226252   5.403   1.286  15.797  0.8379 -0.7077 -0.4430
 1613TIP3   OH226253   1.476   2.304  16.148 -0.0711  0.4530  0.0511
 1613TIP3    H126254   1.398   2.346  16.185  0.5670  2.5113 -0.8579
 1613TIP3    H226255   1.446   2.266  16.065 -0.2792  0.4933  0.1074
 1614TIP3   OH226256   3.506   3.633   2.208  0.1040  0.1940 -0.4694
 1614TIP3    H126257   3.483   3.541   2.214 -0.7950  0.4977  2.9821
 1614TIP3    H226258   3.583   3.643   2.264 -1.5823  1.9135  1.7354
 1615TIP3   OH226259   2.220   2.068   5.561 -0.0307  0.6107 -0.2015
 1615TIP3    H126260   2.206   2.056   5.467  1.2966  0.5768 -0.4143
 1615TIP3    H226261   2.134   2.052   5.600 -0.7078  1.0647 -1.4387
 1616TIP3   OH226262   2.596   2.889  16.231 -0.1715  0.7626 -0.0965
 1616TIP3    H126263   2.679   2.924  16.201  0.0241 -1.3534 -2.3612
 1616TIP3    H226264   2.530   2.932  16.177 -0.0546 -0.9784 -1.7593
 1617TIP3   OH226265   5.827   6.458   5.948 -0.3599 -0.1337  0.3919
 1617TIP3    H126266   5.804   6.427   5.860  0.7526  0.8280 -0.2709
 1617TIP3    H226267   5.922   6.469   5.945 -0.6502  3.7305  0.3830
 1618TIP3   OH226268   4.048   6.158  12.645  0.5420  0.2069  0.3718
 1618TIP3    H126269   3.991   6.136  12.719  1.9475 -0.3546  1.3377
 1618TIP3    H226270   4.135   6.129  12.673  0.8613 -1.6417 -2.1971
 1619TIP3   OH226271   1.059   6.386   3.810 -1.0414  0.3795  0.4970
 1619TIP3    H126272   1.055   6.474   3.847  0.4356  0.2784  0.9600
 1619TIP3    H226273   1.136   6.346   3.851 -1.0114 -0.7219 -0.5677
 1620TIP3   OH226274   2.590   6.041  13.813  0.5821 -0.2243 -0.1078
 1620TIP3    H126275   2.590   6.069  13.721 -0.6211  0.5403  0.0897
 1620TIP3    H226276   2.532   5.964  13.814 -0.5294  0.5808  0.1923
 1621TIP3   OH226277   3.380   2.201  12.606  0.0681  0.3930 -0.3933
 1621TIP3    H126278   3.432   2.261  12.659  2.4064 -1.3006 -0.6036
 1621TIP3    H226279   3.412   2.215  12.516 -1.9190  1.2992 -1.0170
 1622TIP3   OH226280   3.635   4.417  13.921  0.3969  0.0832 -0.5874
 1622TIP3    H126281   3.625   4.332  13.963 -1.7675  0.9038  0.6853
 1622TIP3    H226282   3.673   4.473  13.988  2.1255  0.1167 -1.5213
 1623TIP3   OH226283   0.199   2.745   5.468  0.0270 -0.2706  0.2393
 1623TIP3    H126284   0.164   2.661   5.498  1.8935 -1.5568 -0.9446
 1623TIP3    H226285   0.234   2.786   5.548 -1.5825 -0.2187  0.9529
 1624TIP3   OH226286   1.044   1.194   3.199 -0.3613 -0.2587  0.2798
 1624TIP3    H126287   1.007   1.242   3.126 -1.8492 -0.3200  0.9676
 1624TIP3    H226288   0.978   1.200   3.268  1.0606 -0.0860  1.6757
 1625TIP3   OH226289   4.239   1.016   2.272 -0.2411  0.0090 -1.0207
 1625TIP3    H126290   4.161   1.039   2.321 -0.2205 -1.2382 -0.3794
 1625TIP3    H226291   4.310   1.022   2.336  0.1531  0.7632 -1.5077
 1626TIP3   OH226292   0.402   5.831  15.290  0.1027 -0.0010 -0.4409
 1626TIP3    H126293   0.366   5.750  15.324  1.4881 -0.4886 -0.0651
 1626TIP3    H226294   0.361   5.900  15.342 -0.4786 -0.5097 -0.2178
 1627TIP3   OH226295   2.793   1.091  17.359 -0.2955  0.0813  0.9879
 1627TIP3    H126296   2.731   1.055  17.295  0.4899 -2.0552  1.3771
 1627TIP3    H226297   2.773   1.045  17.440 -0.6191  2.0603  2.0870
 1628TIP3   OH226298   5.598   6.446  16.308 -0.0761  0.5825  0.9092
 1628TIP3    H126299   5.559   6.460  16.221  1.3077 -0.6517  0.0339
 1628TIP3    H226300   5.619   6.353  16.310  2.3067  1.0570  1.4946
 1629TIP3   OH226301   5.606   5.077  11.145 -0.4945  0.3089  0.8919
 1629TIP3    H126302   5.599   5.033  11.230 -0.0586  0.3926  0.9756
 1629TIP3    H226303   5.528   5.132  11.141 -1.3325 -0.8703  0.5369
 1630TIP3   OH226304   6.133   0.429  13.407  0.2350  0.4695 -0.2870
 1630TIP3    H126305   6.200   0.488  13.374  0.9624  0.6113  1.3760
 1630TIP3    H226306   6.167   0.398  13.490 -1.1351 -0.5746 -0.0852
 1631TIP3   OH226307   3.076   1.828  16.355 -0.2372 -0.2229  0.0951
 1631TIP3    H126308   2.999   1.825  16.412  0.3244 -1.9017  0.8241
 1631TIP3    H226309   3.040   1.849  16.269 -1.2622  0.9713  0.7710
 1632TIP3   OH226310   2.448   3.389   2.603 -0.3446 -0.2668  0.2320
 1632TIP3    H126311   2.467   3.299   2.575  0.7758  0.2028 -0.5668
 1632TIP3    H226312   2.386   3.422   2.538 -0.0820 -0.1827  0.0206
 1633TIP3   OH226313   5.662   1.456  13.231  0.2517  0.0287  0.2793
 1633TIP3    H126314   5.746   1.433  13.191  0.6025 -0.0273  1.0424
 1633TIP3    H226315   5.602   1.463  13.156  0.6666 -1.0352 -0.1768
 1634TIP3   OH226316   6.015   0.853  11.436  0.9192  0.3674 -0.1761
 1634TIP3    H126317   6.084   0.886  11.494  1.6104 -1.3846  0.0530
 1634TIP3    H226318   5.976   0.932  11.397  2.9364  1.4032 -0.1930
 1635TIP3   OH226319   6.282   5.177  15.408  0.3495 -0.1526  0.4137
 1635TIP3    H126320   6.189   5.157  15.420  0.2800  0.4892  0.9402
 1635TIP3    H226321   6.325   5.091  15.412 -0.2362 -0.4788 -0.0620
 1636TIP3   OH226322   1.138   3.667  11.656 -0.0887 -0.0463 -0.3868
 1636TIP3    H126323   1.190   3.673  11.576 -1.2019  0.3475 -1.0942
 1636TIP3    H226324   1.053   3.635  11.628 -0.1715 -0.9129  0.7985
 1637TIP3   OH226325   4.080   4.902   3.594 -0.0877  0.4555  0.0149
 1637TIP3    H126326   4.105   4.931   3.506 -0.4211 -1.3539 -0.7225
 1637TIP3    H226327   3.984   4.910   3.595 -0.1580 -0.2597 -0.0947
 1638TIP3   OH226328   5.332   3.603  15.895 -0.0515 -0.3290 -0.1489
 1638TIP3    H126329   5.366   3.551  15.823 -1.3382 -1.6240  0.1304
 1638TIP3    H226330   5.344   3.549  15.973  1.1295  0.9674  0.6113
 1639TIP3   OH226331   3.098   0.245   6.007  0.1695  0.0850 -0.6764
 1639TIP3    H126332   3.092   0.234   5.912  0.2713 -1.1561 -0.5599
 1639TIP3    H226333   3.180   0.292   6.020  0.2575  0.0861 -1.1947
 1640TIP3   OH226334   4.949   0.449   1.133  0.3841 -0.8699  0.4245
 1640TIP3    H126335   4.883   0.502   1.177 -1.2658 -0.8459 -1.8836
 1640TIP3    H226336   4.985   0.507   1.065  2.1616 -1.1770  1.0562
 1641TIP3   OH226337   1.783   1.645   4.593  0.0303  0.5401 -0.6148
 1641TIP3    H126338   1.858   1.586   4.599 -0.0773  0.2755 -1.7226
 1641TIP3    H226339   1.790   1.700   4.672  0.4459 -0.5566  0.1420
 1642TIP3   OH226340   5.895   0.319  14.233  0.0331  0.0036 -0.1810
 1642TIP3    H126341   5.872   0.343  14.323 -2.4283 -0.6924 -0.5426
 1642TIP3    H226342   5.906   0.224  14.236  1.6891  0.1679 -0.3120
 1643TIP3   OH226343   4.954   6.433   2.598 -0.7485  0.2620 -0.4635
 1643TIP3    H126344   5.037   6.460   2.636  0.5913  0.6213 -3.3283
 1643TIP3    H226345   4.888   6.484   2.645  0.6664  0.2567  1.6357
 1644TIP3   OH226346   4.076   5.446  14.425 -0.6795  0.0611 -0.7232
 1644TIP3    H126347   4.034   5.369  14.463 -0.1951 -0.4070 -1.1240
 1644TIP3    H226348   4.147   5.467  14.486 -2.0190  1.3967  0.4317
 1645TIP3   OH226349   4.733   2.100   2.784  0.3347 -0.0586 -0.0408
 1645TIP3    H126350   4.742   2.066   2.873  0.5625 -0.8197 -0.3457
 1645TIP3    H226351   4.816   2.146   2.767  2.6139 -4.1788 -1.6210
 1646TIP3   OH226352   0.273   2.375   1.474 -0.2317  0.5885  0.2989
 1646TIP3    H126353   0.181   2.400   1.470  0.0858  1.6420 -0.6958
 1646TIP3    H226354   0.273   2.291   1.520 -1.6019  0.9911  1.0702
 1647TIP3   OH226355   4.568   5.274  15.772  0.4937  0.0540  0.4845
 1647TIP3    H126356   4.567   5.185  15.736 -1.8954  1.0717 -2.3082
 1647TIP3    H226357   4.648   5.313  15.736  0.2757 -0.2250 -0.3195
 1648TIP3   OH226358   3.771   3.880   4.444  0.2392  0.6254  0.1924
 1648TIP3    H126359   3.744   3.874   4.352 -1.8035 -0.4671  0.8044
 1648TIP3    H226360   3.866   3.865   4.442  0.3481  1.3337 -1.7808
 1649TIP3   OH226361   0.221   3.593   4.182  0.2528 -0.0809 -0.7663
 1649TIP3    H126362   0.212   3.503   4.214 -0.9000  0.1149 -0.4932
 1649TIP3    H226363   0.216   3.647   4.261  2.2764  0.1898 -0.7695
 1650TIP3   OH226364   3.152   4.644  11.613 -0.1395  0.2850 -0.1220
 1650TIP3    H126365   3.245   4.648  11.593  0.3164 -1.1530  1.5450
 1650TIP3    H226366   3.132   4.729  11.652  1.2548 -0.4462  2.4222
 1651TIP3   OH226367   1.986   4.733  11.736 -0.2542 -0.1222  0.5536
 1651TIP3    H126368   1.961   4.708  11.825 -0.4340 -0.0390  0.5261
 1651TIP3    H226369   1.903   4.745  11.690 -0.1800  1.0064  0.6989
 1652TIP3   OH226370   4.000   6.198   2.572 -0.8169  0.0445  0.3320
 1652TIP3    H126371   4.028   6.128   2.513  2.7008  1.0651  0.5563
 1652TIP3    H226372   4.081   6.232   2.610 -2.4066  3.5602  1.0313
 1653TIP3   OH226373   2.086   2.372   2.915  0.0915  0.0904  1.2102
 1653TIP3    H126374   2.002   2.326   2.915  0.5326 -0.9822 -1.8214
 1653TIP3    H226375   2.134   2.334   2.988 -0.5359 -2.4642  0.4129
 1654TIP3   OH226376   0.545   6.037   3.594  0.7289 -0.0950  0.1099
 1654TIP3    H126377   0.580   6.124   3.574  0.5075  0.2912  1.3120
 1654TIP3    H226378   0.451   6.046   3.582  0.7655 -0.3717 -0.4293
 1655TIP3   OH226379   6.681   4.883   3.341 -0.0410 -0.3968 -0.2345
 1655TIP3    H126380   6.591   4.890   3.373 -0.9238  1.5549 -2.7645
 1655TIP3    H226381   6.734   4.918   3.412 -1.3746 -0.4548  0.8468
 1656TIP3   OH226382   3.735   3.521  15.855  0.2796 -0.0058  0.6621
 1656TIP3    H126383   3.799   3.556  15.793  0.7362 -0.2912  0.9642
 1656TIP3    H226384   3.666   3.586  15.858  0.6616  0.4128  0.4961
 1657TIP3   OH226385   0.962   2.479   4.195  0.4172  0.3226  0.0805
 1657TIP3    H126386   1.039   2.461   4.141  0.1776  2.0114 -0.8957
 1657TIP3    H226387   0.927   2.561   4.160 -2.9067 -1.2735 -0.7350
 1658TIP3   OH226388   0.410   2.716  12.619 -0.4522  0.9275  0.4201
 1658TIP3    H126389   0.459   2.638  12.593 -2.0542  0.0630 -0.1756
 1658TIP3    H226390   0.402   2.767  12.538 -0.8424  0.8751  0.4231
 1659TIP3   OH226391   2.611   0.094   4.888 -0.2376 -0.1065  0.7802
 1659TIP3    H126392   2.549   0.167   4.896  0.1296  0.0837  2.2329
 1659TIP3    H226393   2.607   0.050   4.973 -0.0541 -1.4692  0.1039
 1660TIP3   OH226394   1.356   3.870   1.757 -0.4021  0.0773 -0.2760
 1660TIP3    H126395   1.311   3.890   1.840  0.0982 -0.3939  0.1177
 1660TIP3    H226396   1.374   3.776   1.762  1.0728  0.3445 -0.1914
 1661TIP3   OH226397   1.473   0.954  10.988 -0.2487 -0.1715 -0.3242
 1661TIP3    H126398   1.383   0.952  11.021 -0.5705  0.9497 -1.0870
 1661TIP3    H226399   1.471   1.016  10.916  1.0806 -0.3774 -0.5660
 1662TIP3   OH226400   5.375   2.712  11.958  0.0422 -0.3637  0.1436
 1662TIP3    H126401   5.287   2.748  11.950 -0.3164 -1.4350 -1.1559
 1662TIP3    H226402   5.418   2.733  11.875  0.0559 -2.1989 -0.3619
 1663TIP3   OH226403   0.597   1.557   1.640  0.6036  0.0578 -0.3331
 1663TIP3    H126404   0.508   1.572   1.673  0.5863 -1.3043  0.3093
 1663TIP3    H226405   0.646   1.528   1.717  1.4537  0.1956 -0.8132
 1664TIP3   OH226406   3.609   4.030   1.404 -0.0379 -0.2573  0.2168
 1664TIP3    H126407   3.568   4.091   1.343 -0.9617  1.4116  2.3732
 1664TIP3    H226408   3.593   3.943   1.365 -0.5745  0.7014 -1.8597
 1665TIP3   OH226409   6.418   1.852  15.584  0.0315 -0.4070 -0.0248
 1665TIP3    H126410   6.488   1.802  15.542  1.5224 -0.4028  2.2955
 1665TIP3    H226411   6.367   1.787  15.631 -0.0919 -0.1350  0.2193
 1666TIP3   OH226412   3.804   0.930  13.507 -0.0647 -0.1843  0.5390
 1666TIP3    H126413   3.886   0.964  13.544 -1.1784  1.9411  1.2264
 1666TIP3    H226414   3.736   0.959  13.569 -1.6831  0.9172 -1.6151
 1667TIP3   OH226415   1.115   4.923   3.365  0.2057  0.2258  0.2582
 1667TIP3    H126416   1.144   4.910   3.455  0.7267  2.4429  0.4819
 1667TIP3    H226417   1.167   4.862   3.314  1.1368  0.1298  1.2865
 1668TIP3   OH226418   0.410   0.296   4.053 -0.0930  0.3428  0.5353
 1668TIP3    H126419   0.404   0.392   4.056  0.7290  0.4468 -0.5189
 1668TIP3    H226420   0.414   0.270   4.145  1.7025  1.4962  0.8461
 1669TIP3   OH226421   6.512   2.926   1.659  0.2755  0.3893  0.4089
 1669TIP3    H126422   6.605   2.904   1.654  0.5612  1.7491 -2.3634
 1669TIP3    H226423   6.467   2.843   1.642  1.0686  0.0603 -0.1642
 1670TIP3   OH226424   3.245   5.890   4.342 -0.1854 -0.1071  0.1888
 1670TIP3    H126425   3.232   5.961   4.405  0.2932 -0.9895  1.3352
 1670TIP3    H226426   3.331   5.908   4.303  0.7959 -0.9896  1.8230
 1671TIP3   OH226427   5.042   6.754  13.421  0.3126  0.2442 -0.3034
 1671TIP3    H126428   5.017   6.676  13.373 -0.3506  0.4963 -0.3748
 1671TIP3    H226429   5.113   6.726  13.478  0.4900 -0.2650 -0.7739
 1672TIP3   OH226430   4.784   5.723  10.957  0.7933  0.6593 -0.3844
 1672TIP3    H126431   4.830   5.743  10.875 -0.7962  2.3008 -0.9302
 1672TIP3    H226432   4.721   5.794  10.967  0.6604  0.2678  2.0779
 1673TIP3   OH226433   6.379   6.604   0.432 -0.2132 -0.3925 -0.2933
 1673TIP3    H126434   6.465   6.564   0.445 -1.0923 -2.4096 -0.4001
 1673TIP3    H226435   6.365   6.602   0.337 -0.0096  0.8244 -0.3722
 1674TIP3   OH226436   6.210   0.949   5.168 -0.0470  0.1737 -0.0119
 1674TIP3    H126437   6.138   0.970   5.227  0.5605  0.1565  0.7506
 1674TIP3    H226438   6.174   0.883   5.108 -0.4835 -0.2994  0.7582
 1675TIP3   OH226439   0.098   1.171   4.039 -0.3416 -0.3048  0.2370
 1675TIP3    H126440   0.180   1.218   4.053 -0.1325 -0.1991 -1.2266
 1675TIP3    H226441   0.069   1.148   4.127  1.8547 -1.4033  0.7311
 1676TIP3   OH226442   4.199   3.539   5.800  0.3901 -0.2367  0.0684
 1676TIP3    H126443   4.250   3.497   5.869 -0.8324  1.1004  1.8790
 1676TIP3    H226444   4.207   3.633   5.818 -1.3326  0.0764 -0.5640
 1677TIP3   OH226445   4.986   6.116   5.982 -0.1793 -0.0232  0.4905
 1677TIP3    H126446   5.002   6.196   6.032 -1.4104 -0.0166  0.9006
 1677TIP3    H226447   5.069   6.098   5.939 -0.1648  2.0121 -0.4166
 1678TIP3   OH226448   4.508   5.016   2.061 -0.5255 -0.2361  0.3646
 1678TIP3    H126449   4.522   4.922   2.072 -2.8110 -0.8141 -1.0004
 1678TIP3    H226450   4.518   5.031   1.967  0.9543  1.1327  0.7090
 1679TIP3   OH226451   6.150   6.525   1.436 -0.2258 -0.3277  0.2542
 1679TIP3    H126452   6.158   6.620   1.441 -0.7165 -0.2536 -0.2366
 1679TIP3    H226453   6.139   6.497   1.527 -0.8355  0.1656  0.3456
 1680TIP3   OH226454   1.752   5.637   3.091 -0.0467  0.3601 -0.2380
 1680TIP3    H126455   1.662   5.651   3.120 -0.2265  0.7923 -0.9809
 1680TIP3    H226456   1.756   5.544   3.070 -0.6105  0.5317 -1.1473
 1681TIP3   OH226457   0.880   0.331  12.046 -0.1359  0.2367 -0.2301
 1681TIP3    H126458   0.810   0.269  12.028 -0.0458  0.1975 -0.4477
 1681TIP3    H226459   0.836   0.416  12.054 -0.1099  0.3632 -1.2928
 1682TIP3   OH226460   3.221   3.617  15.321 -0.5941 -0.0275  0.2983
 1682TIP3    H126461   3.154   3.626  15.388 -0.7165 -2.6012  0.6328
 1682TIP3    H226462   3.186   3.552  15.260  1.6239 -1.6574  0.6284
 1683TIP3   OH226463   5.022   6.613   4.793 -0.1914  0.5646 -0.3124
 1683TIP3    H126464   4.941   6.636   4.836  0.4957 -0.1975  1.4876
 1683TIP3    H226465   5.076   6.573   4.862  2.0408  1.8069 -1.2158
 1684TIP3   OH226466   6.077   0.858  13.192 -0.5871  0.3786  0.3335
 1684TIP3    H126467   6.165   0.845  13.156  0.6105  2.3779  2.2455
 1684TIP3    H226468   6.085   0.830  13.283 -2.4036 -0.8399  0.1569
 1685TIP3   OH226469   1.266   3.830  17.038 -0.0398  0.2133 -0.3186
 1685TIP3    H126470   1.224   3.843  16.953  1.0777  2.1543 -0.6411
 1685TIP3    H226471   1.354   3.800  17.017  0.4852  1.4064  0.0898
 1686TIP3   OH226472   1.435   5.741   0.170 -0.6406 -0.9863  0.1366
 1686TIP3    H126473   1.340   5.743   0.166 -0.8095 -2.0796  2.2947
 1686TIP3    H226474   1.457   5.800   0.242  0.2586 -1.3041  0.1332
 1687TIP3   OH226475   2.042   4.101   5.346 -0.1558 -0.1072 -0.3699
 1687TIP3    H126476   2.114   4.163   5.356 -0.2558 -0.2022  1.1217
 1687TIP3    H226477   2.077   4.018   5.377 -1.0673 -0.0133  1.0241
 1688TIP3   OH226478   2.757   0.618  11.799  0.0599 -0.4159  0.6325
 1688TIP3    H126479   2.684   0.680  11.802  1.4510  1.3655 -0.3177
 1688TIP3    H226480   2.763   0.585  11.889 -0.9615  0.5507  1.0907
 1689TIP3   OH226481   4.436   0.403  17.349 -0.0207 -0.8045 -0.6247
 1689TIP3    H126482   4.512   0.350  17.373  1.3440  0.5249 -1.8646
 1689TIP3    H226483   4.400   0.432  17.433  0.4487 -1.9474  0.0004
 1690TIP3   OH226484   2.411   1.564   6.772 -0.2862 -0.4456  0.1957
 1690TIP3    H126485   2.491   1.562   6.824 -0.2170 -0.2486  0.0962
 1690TIP3    H226486   2.424   1.635   6.710 -0.1986 -0.9367 -0.3637
 1691TIP3   OH226487   0.284   5.459   1.820 -0.1798 -0.3241  0.3506
 1691TIP3    H126488   0.329   5.541   1.837 -0.8975  0.4099 -1.1250
 1691TIP3    H226489   0.238   5.473   1.737 -0.5176 -2.1315  0.1879
 1692TIP3   OH226490   6.217   6.111   4.021  0.9300  0.4985 -0.2829
 1692TIP3    H126491   6.135   6.157   4.002  1.8747  2.7536  0.7371
 1692TIP3    H226492   6.234   6.130   4.113  1.1876 -2.3647  0.3624
 1693TIP3   OH226493   5.149   1.557   2.263 -0.2166 -0.0336  0.6306
 1693TIP3    H126494   5.202   1.597   2.194 -0.8281  0.5716  0.5042
 1693TIP3    H226495   5.098   1.629   2.299 -0.5391 -0.5073  1.1356
 1694TIP3   OH226496   0.306   2.127   4.105 -0.0313  0.5225  0.1546
 1694TIP3    H126497   0.264   2.047   4.071 -0.3647  1.1439 -0.9447
 1694TIP3    H226498   0.346   2.167   4.028  0.1009  1.4374  0.6950
 1695TIP3   OH226499   3.465   5.805  12.421  0.6337 -0.2205 -0.8757
 1695TIP3    H126500   3.397   5.853  12.469  2.3706  1.2099  0.3199
 1695TIP3    H226501   3.451   5.714  12.445  0.3855  0.2679  1.0716
 1696TIP3   OH226502   5.609   0.695  14.334  0.2160  0.1117  0.1008
 1696TIP3    H126503   5.528   0.744  14.325  0.0299  0.0048  1.1128
 1696TIP3    H226504   5.657   0.739  14.404  1.4434  0.7030 -1.0492
 1697TIP3   OH226505   3.739   4.920   5.888 -0.1833  0.3085 -0.1499
 1697TIP3    H126506   3.657   4.932   5.841 -1.1121 -3.0307  0.3253
 1697TIP3    H226507   3.726   4.967   5.971 -2.1170 -0.9681  0.3537
 1698TIP3   OH226508   3.903   2.092  15.651 -0.4308 -0.1773 -0.3526
 1698TIP3    H126509   3.941   2.018  15.605 -0.7176  0.0152 -0.9076
 1698TIP3    H226510   3.971   2.118  15.715  0.5054  0.3318 -1.5089
 1699TIP3   OH226511   2.135   3.138   1.080 -1.0879 -0.4738  0.3670
 1699TIP3    H126512   2.066   3.200   1.102 -0.3941 -0.2117  1.8955
 1699TIP3    H226513   2.103   3.053   1.111 -1.4466 -0.6603 -0.4853
 1700TIP3   OH226514   5.540   4.510  12.952 -0.0312  0.1534  1.1526
 1700TIP3    H126515   5.451   4.544  12.960  0.0277  0.5319  0.3246
 1700TIP3    H226516   5.530   4.415  12.947 -0.2138  0.0048  3.2801
 1701TIP3   OH226517   0.892   2.619  15.255  0.2595 -0.4742 -0.6834
 1701TIP3    H126518   0.969   2.658  15.297  0.7812 -1.6216 -0.5164
 1701TIP3    H226519   0.886   2.663  15.170  2.0866 -1.4424 -1.3913
 1702TIP3   OH226520   0.949   3.494  15.277  0.2559 -0.8667 -0.6048
 1702TIP3    H126521   0.987   3.571  15.320 -0.1781 -0.1420 -1.4937
 1702TIP3    H226522   0.918   3.440  15.349  0.4333 -0.1448  0.0322
 1703TIP3   OH226523   1.827   6.036   2.340 -0.6838 -0.5355 -0.2586
 1703TIP3    H126524   1.795   5.994   2.261 -2.6079 -0.2870  0.3417
 1703TIP3    H226525   1.782   5.991   2.412 -1.0269  0.9925  0.5285
 1704TIP3   OH226526   2.451   5.670   0.581  0.0940 -0.1064  0.0319
 1704TIP3    H126527   2.524   5.610   0.562 -1.4722 -2.0630 -0.1647
 1704TIP3    H226528   2.383   5.613   0.616 -2.1230  1.2838 -1.7718
 1705TIP3   OH226529   3.800   2.794   2.466 -0.3515 -0.7811 -0.0128
 1705TIP3    H126530   3.880   2.743   2.481  0.2259  0.3021  0.7066
 1705TIP3    H226531   3.801   2.860   2.535 -0.8664  0.4608 -1.1680
 1706TIP3   OH226532   5.202   0.759  16.339 -0.1625  0.2364  0.5000
 1706TIP3    H126533   5.268   0.733  16.404 -0.0392 -2.6581 -0.6266
 1706TIP3    H226534   5.234   0.842  16.304  2.2312 -0.4480  0.9007
 1707TIP3   OH226535   5.810   0.498   1.268  0.1018  0.7572  0.3961
 1707TIP3    H126536   5.839   0.587   1.245  1.5686  0.2377  0.1483
 1707TIP3    H226537   5.819   0.449   1.186  2.8130 -0.4768  1.3377
 1708TIP3   OH226538   4.297   6.104  12.774 -0.3771  0.6609 -0.3152
 1708TIP3    H126539   4.262   6.148  12.851  1.7552 -0.0521  1.1353
 1708TIP3    H226540   4.330   6.020  12.806  1.5132  0.7768 -1.7684
 1709TIP3   OH226541   1.395   2.344  17.202 -0.5304 -0.2447 -0.4117
 1709TIP3    H126542   1.471   2.293  17.172 -1.3335 -1.3169 -0.6898
 1709TIP3    H226543   1.418   2.371  17.291  0.9311  1.0240 -1.1120
 1710TIP3   OH226544   1.148   1.923  12.787  0.3341  0.4393 -0.1046
 1710TIP3    H126545   1.132   1.907  12.694 -1.1745 -0.0176  0.2079
 1710TIP3    H226546   1.068   1.894  12.830  1.5035 -0.5742  1.4697
 1711TIP3   OH226547   5.702   4.834   1.223 -0.0529  0.3113 -0.2636
 1711TIP3    H126548   5.706   4.854   1.316 -2.0877  0.9581 -0.2731
 1711TIP3    H226549   5.653   4.752   1.218 -0.4833  0.5957 -0.7920
 1712TIP3   OH226550   5.791   5.995   4.853 -0.2144  0.0789 -0.5540
 1712TIP3    H126551   5.827   6.082   4.835 -0.2589  0.0508 -0.7861
 1712TIP3    H226552   5.866   5.943   4.881 -0.0607  0.0072 -1.0793
 1713TIP3   OH226553   0.185   0.533  13.403 -0.2203 -0.3580 -0.2295
 1713TIP3    H126554   0.164   0.494  13.488 -0.2890  0.2014  0.0149
 1713TIP3    H226555   0.167   0.626  13.415  0.5574 -0.1569 -0.6078
 1714TIP3   OH226556   5.166   0.836   1.225 -0.4995  0.0426 -0.1577
 1714TIP3    H126557   5.239   0.825   1.165  0.5145 -0.8027  1.1654
 1714TIP3    H226558   5.088   0.830   1.169  0.4073  0.7605 -1.5654
 1715TIP3   OH226559   3.814   5.949  15.254 -0.1904 -0.1499 -0.6173
 1715TIP3    H126560   3.733   5.945  15.203 -1.3281 -1.4815  1.1837
 1715TIP3    H226561   3.819   5.865  15.299  1.5633  0.3701  0.2726
 1716TIP3   OH226562   1.242   1.445   6.232  0.5742 -0.1262  0.4002
 1716TIP3    H126563   1.301   1.416   6.301 -0.3066 -0.6143  0.9670
 1716TIP3    H226564   1.300   1.471   6.160  1.4688 -0.6859  0.9020
 1717TIP3   OH226565   1.113   1.270  12.316  0.1081 -0.2387  0.3707
 1717TIP3    H126566   1.143   1.359  12.300 -0.2514  0.2811  2.2889
 1717TIP3    H226567   1.191   1.225  12.351 -0.4037  0.1732  2.1505
 1718TIP3   OH226568   5.291   4.671   4.184  0.5806 -0.1779 -0.4924
 1718TIP3    H126569   5.376   4.695   4.147  1.4611 -0.6461  1.1261
 1718TIP3    H226570   5.309   4.593   4.237 -0.5968  0.4207  0.8532
 1719TIP3   OH226571   2.261   1.795   5.937 -0.3637 -0.0303 -0.5241
 1719TIP3    H126572   2.309   1.858   5.883 -1.3734 -0.3604 -1.8727
 1719TIP3    H226573   2.220   1.848   6.005  1.6432  0.2905  0.5202
 1720TIP3   OH226574   1.188   5.528   6.044 -0.1595  0.3518 -0.3349
 1720TIP3    H126575   1.202   5.521   6.139  0.3704  0.5855 -0.3903
 1720TIP3    H226576   1.229   5.450   6.008  0.9584  0.9915 -0.4902
 1721TIP3   OH226577   6.110   1.497   3.648 -1.0896 -0.2926  0.1141
 1721TIP3    H126578   6.088   1.472   3.738 -2.8652 -0.3180 -0.2954
 1721TIP3    H226579   6.174   1.431   3.620 -1.0828 -0.7245  1.0951
 1722TIP3   OH226580   5.575   2.983   5.840 -0.1490 -0.3400 -0.3577
 1722TIP3    H126581   5.486   3.018   5.837 -0.1534 -0.2697  0.3813
 1722TIP3    H226582   5.571   2.910   5.902  0.9900  1.8217  2.5349
 1723TIP3   OH226583   3.494   0.838  16.914 -0.0186 -0.2772  0.6480
 1723TIP3    H126584   3.480   0.825  16.820 -0.4360  1.5442  0.4175
 1723TIP3    H226585   3.559   0.908  16.919  1.8319 -1.9661  1.7499
 1724TIP3   OH226586   1.968   3.307   4.763 -0.0572 -0.0279 -0.1134
 1724TIP3    H126587   2.050   3.339   4.800 -0.3024  1.5115 -0.8658
 1724TIP3    H226588   1.910   3.299   4.839  0.9569 -1.8380  0.5402
 1725TIP3   OH226589   1.953   6.460   6.416  0.1379 -0.1537  0.3151
 1725TIP3    H126590   1.940   6.555   6.412  0.9850 -0.0700 -1.0953
 1725TIP3    H226591   1.883   6.429   6.475 -0.2307  1.3109  0.7013
 1726TIP3   OH226592   2.886   3.650  11.629  0.5876 -0.0134  0.6799
 1726TIP3    H126593   2.814   3.648  11.692  0.5614  0.5039  0.6751
 1726TIP3    H226594   2.897   3.743  11.609 -0.8983 -0.2598 -1.7803
 1727TIP3   OH226595   2.575   2.578  16.008  0.4810 -0.2066 -0.2422
 1727TIP3    H126596   2.512   2.623  16.064  0.2850 -0.4952 -0.2300
 1727TIP3    H226597   2.660   2.615  16.033  0.3088  0.2600 -0.3364
 1728TIP3   OH226598   1.638   0.726   5.240 -0.1632 -0.0204  0.1163
 1728TIP3    H126599   1.575   0.761   5.177  0.1066  0.5842  0.1750
 1728TIP3    H226600   1.632   0.784   5.316  0.9279  0.4587 -0.1337
 1729TIP3   OH226601   2.370   1.221   2.569  0.2440 -0.5200 -0.1837
 1729TIP3    H126602   2.304   1.253   2.508  1.4876  1.3854 -0.6043
 1729TIP3    H226603   2.449   1.214   2.516  1.5591  1.9323  1.3035
 1730TIP3   OH226604   4.805   2.350  15.701 -0.1193 -0.0872  0.1795
 1730TIP3    H126605   4.757   2.269  15.684 -0.8191  0.1299  1.0167
 1730TIP3    H226606   4.736   2.415  15.717  0.4305  0.7328 -0.7348
 1731TIP3   OH226607   4.256   1.876   6.033  0.3123 -0.0371  0.8391
 1731TIP3    H126608   4.167   1.845   6.052 -0.2827 -0.3230 -2.0425
 1731TIP3    H226609   4.312   1.800   6.048 -0.0068 -0.0685  1.9461
 1732TIP3   OH226610   2.906   0.304   4.917  0.1408 -0.5020 -0.3235
 1732TIP3    H126611   2.874   0.352   4.840  0.2502 -0.7472 -0.5203
 1732TIP3    H226612   2.893   0.212   4.895  1.2619 -0.6263 -0.5367
 1733TIP3   OH226613   0.246   4.527   2.370  0.3764 -0.5763 -0.1888
 1733TIP3    H126614   0.197   4.468   2.426 -0.1817 -2.9548 -2.9753
 1733TIP3    H226615   0.191   4.605   2.363 -1.3449 -1.7747 -0.4342
 1734TIP3   OH226616   0.053   6.528   3.507  0.2927 -0.8245 -0.2807
 1734TIP3    H126617  -0.037   6.537   3.474  0.3853 -1.2199 -0.6420
 1734TIP3    H226618   0.084   6.618   3.517 -0.4133 -0.6592  0.6034
 1735TIP3   OH226619   3.268   4.905   1.941 -0.1628 -0.7910  0.0127
 1735TIP3    H126620   3.205   4.973   1.916 -0.8488 -1.1127  0.8344
 1735TIP3    H226621   3.226   4.858   2.013  0.7034 -1.4939  0.0776
 1736TIP3   OH226622   6.303   3.153  13.493 -0.0455  0.0280 -0.4669
 1736TIP3    H126623   6.272   3.076  13.445 -1.2793  0.6612 -0.7353
 1736TIP3    H226624   6.303   3.223  13.428  0.5996  0.3663 -0.1101
 1737TIP3   OH226625   6.592   4.902  12.925 -0.3253 -0.0425  0.3033
 1737TIP3    H126626   6.579   4.829  12.865 -0.1150  0.6653 -0.6185
 1737TIP3    H226627   6.520   4.962  12.906  0.5477  0.8545 -0.2568
 1738TIP3   OH226628   1.139   3.028  11.506  0.0001 -0.3925  0.0093
 1738TIP3    H126629   1.111   3.025  11.415  1.7135 -1.7189 -0.5093
 1738TIP3    H226630   1.172   2.941  11.525 -2.2463 -0.8190  2.5886
 1739TIP3   OH226631   4.831   2.081  14.304 -0.0202  0.2522  0.3474
 1739TIP3    H126632   4.900   2.121  14.250  0.5697  0.2447  1.0794
 1739TIP3    H226633   4.752   2.130  14.281 -0.2111 -0.9500 -1.8960
 1740TIP3   OH226634   2.171   1.928   1.935 -0.4745  0.1284 -0.6417
 1740TIP3    H126635   2.111   1.966   1.872 -0.0448  1.4393 -0.3152
 1740TIP3    H226636   2.256   1.966   1.913 -0.2643  0.3967  0.5249
 1741TIP3   OH226637   5.945   4.887   0.046 -0.2728  0.2531  0.2212
 1741TIP3    H126638   5.886   4.888   0.121 -2.8073  1.5755 -1.6195
 1741TIP3    H226639   5.932   4.801   0.007  0.8878 -0.3547  1.1112
 1742TIP3   OH226640   4.216   2.800  16.979 -0.1540 -0.0191  0.3359
 1742TIP3    H126641   4.123   2.789  16.999  0.3283 -2.0125  1.7491
 1742TIP3    H226642   4.236   2.889  17.007 -1.6894  0.5830 -0.3427
 1743TIP3   OH226643   3.386   2.886  16.824  0.2148  0.0723  0.5667
 1743TIP3    H126644   3.301   2.853  16.853 -0.1616  1.3554  0.9779
 1743TIP3    H226645   3.437   2.807  16.805 -0.2826 -0.7904  2.5364
 1744TIP3   OH226646   4.171   3.727   4.125  0.3999  0.1572  0.1809
 1744TIP3    H126647   4.136   3.800   4.074 -0.3801  0.7792  1.5245
 1744TIP3    H226648   4.097   3.668   4.138  1.0244 -0.8979 -0.8875
 1745TIP3   OH226649   0.264   4.014  17.357 -0.1772  0.2996  0.0241
 1745TIP3    H126650   0.332   4.080  17.360 -1.5992  1.8060  0.5858
 1745TIP3    H226651   0.288   3.952  17.426  0.0715  1.3933  0.9569
 1746TIP3   OH226652   6.214   5.314  15.883 -0.3266  0.4895  0.4899
 1746TIP3    H126653   6.231   5.406  15.901 -0.5134  0.3368  1.5039
 1746TIP3    H226654   6.211   5.273  15.969 -1.1767 -0.3069  0.0947
 1747TIP3   OH226655   4.980   5.181  11.307  0.0025 -0.3388  0.4544
 1747TIP3    H126656   4.980   5.092  11.272 -0.0480 -0.0655 -0.2645
 1747TIP3    H226657   4.997   5.236  11.230  0.7617  0.2196  1.0102
 1748TIP3   OH226658   0.196   6.373  15.300  0.0067 -0.5446 -0.0347
 1748TIP3    H126659   0.169   6.283  15.283  0.9853 -0.6297 -1.3244
 1748TIP3    H226660   0.274   6.365  15.355  0.4468 -0.5398 -0.6369
 1749TIP3   OH226661   5.863   2.065   1.022  0.0499 -0.2882  0.2074
 1749TIP3    H126662   5.815   2.006   1.080  1.1772  0.9860  2.5707
 1749TIP3    H226663   5.881   2.143   1.075  0.4187  1.3413 -2.1383
 1750TIP3   OH226664   4.287   3.054  17.078  0.6783  0.1900 -0.6065
 1750TIP3    H126665   4.333   3.124  17.124  0.4658 -0.4269  0.5784
 1750TIP3    H226666   4.194   3.076  17.087  0.5308 -0.8786  0.9076
 1751TIP3   OH226667   1.299   2.452   3.191  0.0276 -0.0381 -0.1503
 1751TIP3    H126668   1.393   2.443   3.206  0.1210  2.4156  1.2154
 1751TIP3    H226669   1.258   2.433   3.275 -0.3750  2.1647  0.2347
 1752TIP3   OH226670   1.026   1.352   4.154 -0.0806  0.4232 -0.4326
 1752TIP3    H126671   0.941   1.381   4.121 -0.0084  0.5566 -0.5019
 1752TIP3    H226672   1.056   1.290   4.089  0.7896  1.8735 -1.4619
 1753TIP3   OH226673   2.175   2.379   5.417  0.0622 -0.0175  0.2126
 1753TIP3    H126674   2.253   2.425   5.384  0.5965  0.1014  1.5596
 1753TIP3    H226675   2.180   2.292   5.377  0.7155  0.0986  0.0249
 1754TIP3   OH226676   0.096   1.704   6.355  0.2402 -0.6263  0.8094
 1754TIP3    H126677   0.098   1.799   6.360 -1.9149 -0.5826  2.0006
 1754TIP3    H226678   0.184   1.680   6.325  0.7390  1.7229  0.1698
 1755TIP3   OH226679   4.364   5.793   6.297 -0.0891  0.4201  0.1311
 1755TIP3    H126680   4.350   5.887   6.308  0.1924  0.4336  0.3574
 1755TIP3    H226681   4.455   5.785   6.271 -0.3900  0.2876 -0.9175
 1756TIP3   OH226682   3.365   4.248   3.449 -0.2707 -0.2312 -0.2389
 1756TIP3    H126683   3.442   4.268   3.395  0.0807  1.5314  0.8520
 1756TIP3    H226684   3.290   4.275   3.395  0.0991  2.0088  0.2687
 1757TIP3   OH226685   2.120   1.875  16.012 -0.2234  0.1982 -0.3059
 1757TIP3    H126686   2.046   1.935  16.003 -0.5541 -0.1406  0.1445
 1757TIP3    H226687   2.105   1.830  16.096  1.5192  1.5673  0.8332
 1758TIP3   OH226688   0.212   2.763  12.995 -0.2540 -0.1012 -0.1331
 1758TIP3    H126689   0.118   2.775  13.004  0.0056  3.5006 -0.5594
 1758TIP3    H226690   0.228   2.766  12.901  0.2513 -1.8482 -0.1447
 1759TIP3   OH226691   0.431   3.225  17.259  0.1640  0.0720  0.4424
 1759TIP3    H126692   0.470   3.273  17.331  0.1166 -0.0820  0.5700
 1759TIP3    H226693   0.437   3.285  17.184 -0.1764  0.3979  0.6714
 1760TIP3   OH226694   3.732   6.434   0.103  0.1762  0.2405 -0.2524
 1760TIP3    H126695   3.662   6.393   0.052 -1.1269  1.3681  0.5646
 1760TIP3    H226696   3.749   6.516   0.057 -1.0124  1.2679  1.0821
 1761TIP3   OH226697   1.016   4.427  13.709  0.7639 -0.6003  0.3008
 1761TIP3    H126698   0.927   4.441  13.674  0.3152 -0.2470  1.5347
 1761TIP3    H226699   1.051   4.515  13.719  0.8591 -0.6943  0.8018
 1762TIP3   OH226700   5.771   4.696  16.404 -0.2321 -0.4740  0.5265
 1762TIP3    H126701   5.766   4.713  16.498 -0.9179 -0.5967  0.5175
 1762TIP3    H226702   5.682   4.668  16.380 -0.3370  0.5665 -0.3611
 1763TIP3   OH226703   4.059   3.071   1.126  0.0688  0.3116 -0.4568
 1763TIP3    H126704   4.118   3.015   1.176  1.1364  0.8435 -1.0801
 1763TIP3    H226705   4.006   3.114   1.193  0.9836  0.4730  0.1995
 1764TIP3   OH226706   3.019   3.064  11.764 -0.0934  0.1280  0.0969
 1764TIP3    H126707   3.040   3.046  11.855  0.9847  0.0702 -0.1512
 1764TIP3    H226708   2.930   3.099  11.766  0.4515  1.5532  1.3357
 1765TIP3   OH226709   1.138   2.032  14.323  0.2428 -0.6666  0.3671
 1765TIP3    H126710   1.060   1.996  14.281  0.4988 -0.7625 -0.0303
 1765TIP3    H226711   1.148   2.119  14.284  0.3414 -0.6587  0.4101
 1766TIP3   OH226712   0.352   2.115  17.120 -0.9429  0.1255  0.4159
 1766TIP3    H126713   0.258   2.098  17.114 -0.6928 -1.9225  1.4424
 1766TIP3    H226714   0.371   2.108  17.213  0.3885 -0.3887  0.1163
 1767TIP3   OH226715   6.510   5.445  14.236 -0.7227 -0.4897 -0.1041
 1767TIP3    H126716   6.440   5.453  14.300 -0.5570 -0.1963  0.0423
 1767TIP3    H226717   6.548   5.359  14.252 -0.5167 -0.3127  0.3602
 1768TIP3   OH226718   5.237   4.710  16.455  0.0061 -0.5996 -0.7593
 1768TIP3    H126719   5.331   4.726  16.445 -0.1394  2.1687  1.2394
 1768TIP3    H226720   5.196   4.757  16.383  0.0895 -0.5332 -0.7636
 1769TIP3   OH226721   2.319   6.525  14.007 -0.5397 -0.1400 -0.3414
 1769TIP3    H126722   2.336   6.611  13.967  1.2985  0.2431  1.0988
 1769TIP3    H226723   2.227   6.508  13.990 -0.5820  1.4224 -1.9773
 1770TIP3   OH226724   4.182   1.928   0.889 -0.4922  0.5527 -0.9189
 1770TIP3    H126725   4.139   1.917   0.973 -1.0013  0.5577 -1.1719
 1770TIP3    H226726   4.275   1.918   0.907 -0.7379 -2.5027 -0.8465
 1771TIP3   OH226727   0.310   1.202  12.416 -0.4910 -0.7096 -0.5325
 1771TIP3    H126728   0.332   1.110  12.407  0.1579 -0.7263  0.9775
 1771TIP3    H226729   0.314   1.237  12.326  0.4838 -1.8684 -0.9616
 1772TIP3   OH226730   3.190   0.599   1.740 -0.0971  0.3321 -0.3750
 1772TIP3    H126731   3.176   0.654   1.662 -0.5204  0.2801 -0.3387
 1772TIP3    H226732   3.223   0.660   1.806  0.5867  0.3145 -0.6902
 1773TIP3   OH226733   3.286   3.814   3.102  0.0238  0.1437 -0.1697
 1773TIP3    H126734   3.302   3.729   3.141 -1.5196  0.1232  0.4884
 1773TIP3    H226735   3.295   3.876   3.174  2.0709  0.7080 -0.8178
 1774TIP3   OH226736   4.313   5.617   1.046 -0.6015  0.0639  0.0035
 1774TIP3    H126737   4.333   5.523   1.045 -1.5727 -0.1867  0.9757
 1774TIP3    H226738   4.219   5.621   1.031 -0.2660  1.0483 -2.1801
 1775TIP3   OH226739   4.269   3.531   5.313  0.2211  0.0413  0.1819
 1775TIP3    H126740   4.192   3.587   5.325  0.2304 -0.2955  2.0351
 1775TIP3    H226741   4.327   3.554   5.386  2.5842  1.3374 -1.9327
 1776TIP3   OH226742   5.840   4.460  17.150 -0.4237 -0.0043  0.8262
 1776TIP3    H126743   5.793   4.465  17.234 -2.1170  1.2980 -0.1141
 1776TIP3    H226744   5.932   4.466  17.174 -0.8577  0.3280  2.6052
 1777TIP3   OH226745   1.167   6.145  15.967 -0.4268  0.6485 -0.5050
 1777TIP3    H126746   1.152   6.236  15.992 -0.5790  0.5845 -0.3661
 1777TIP3    H226747   1.107   6.094  16.022  0.1597  0.4110 -0.0719
 1778TIP3   OH226748   2.299   3.869  14.887 -0.0813 -0.0564  0.4647
 1778TIP3    H126749   2.287   3.961  14.864  2.5648  0.2071 -0.2546
 1778TIP3    H226750   2.370   3.839  14.830  0.6537 -1.9013  2.2159
 1779TIP3   OH226751   3.641   0.612  17.153  0.3418  0.2675  0.2465
 1779TIP3    H126752   3.548   0.633  17.149  0.4716  0.6989 -0.4872
 1779TIP3    H226753   3.668   0.640  17.241 -0.5986 -1.4905  1.1603
 1780TIP3   OH226754   4.993   1.145   3.629 -0.2197 -0.5562 -0.2463
 1780TIP3    H126755   5.010   1.079   3.562  1.1832 -0.9903  0.5064
 1780TIP3    H226756   5.007   1.228   3.585 -1.9814 -0.6976 -1.2006
 1781TIP3   OH226757   0.360   6.131  13.459  0.1175  0.0277 -0.0946
 1781TIP3    H126758   0.356   6.040  13.430  1.6406 -0.5245  1.2438
 1781TIP3    H226759   0.450   6.158  13.439  0.5241  0.3254  1.9342
 1782TIP3   OH226760   4.892   6.139   0.764 -0.1048 -0.5454 -0.3256
 1782TIP3    H126761   4.813   6.090   0.787 -0.3993 -0.2074 -0.6148
 1782TIP3    H226762   4.925   6.096   0.685 -0.9053  0.3133 -1.1494
 1783TIP3   OH226763   2.465   1.426   2.265 -0.4575 -0.3337  0.1950
 1783TIP3    H126764   2.393   1.483   2.292 -0.9188 -0.1219 -1.4027
 1783TIP3    H226765   2.425   1.366   2.203  1.0912  1.0038 -2.2238
 1784TIP3   OH226766   5.926   6.634  11.616  0.3626 -0.0684  0.0392
 1784TIP3    H126767   5.874   6.664  11.541 -1.7619 -0.2740  1.3412
 1784TIP3    H226768   6.008   6.682  11.609 -0.2647  0.8360 -1.7365
 1785TIP3   OH226769   1.740   6.319  15.185 -0.5400 -0.4011  0.1479
 1785TIP3    H126770   1.682   6.271  15.244 -1.0717 -0.4426 -0.4016
 1785TIP3    H226771   1.710   6.295  15.097  0.5606 -0.7486 -0.1624
 1786TIP3   OH226772   4.591   0.409  11.687  0.2146  0.5656 -0.1381
 1786TIP3    H126773   4.564   0.404  11.596 -1.2958 -0.2367  0.3203
 1786TIP3    H226774   4.515   0.445  11.733 -0.3351 -2.1103  1.2549
 1787TIP3   OH226775   6.222   3.180  12.626 -0.2071  0.0013 -0.2450
 1787TIP3    H126776   6.240   3.122  12.700 -1.3417  1.1974  1.0429
 1787TIP3    H226777   6.307   3.219  12.605 -0.3352  2.5822  3.0913
 1788TIP3   OH226778   3.152   5.870   1.208  0.4478  0.5625 -0.2002
 1788TIP3    H126779   3.160   5.813   1.285  2.0113 -0.2183 -0.8808
 1788TIP3    H226780   3.062   5.857   1.178 -1.0556  2.6987  2.7790
 1789TIP3   OH226781   6.562   0.403  15.612 -0.2715  0.0948 -0.1701
 1789TIP3    H126782   6.595   0.458  15.683  1.5859 -0.3624 -0.6259
 1789TIP3    H226783   6.489   0.355  15.651  0.7073 -0.1407  1.4544
 1790TIP3   OH226784   0.520   5.395  11.536 -0.2589  0.1364  0.2680
 1790TIP3    H126785   0.511   5.364  11.446 -0.3446  2.3278 -0.5410
 1790TIP3    H226786   0.567   5.479  11.528 -1.0371  0.8086  2.1763
 1791TIP3   OH226787   3.107   2.263   1.771  0.0824  0.2257  0.4136
 1791TIP3    H126788   3.063   2.179   1.786 -1.2332  0.8620  0.2324
 1791TIP3    H226789   3.093   2.312   1.852 -1.6467  1.3303 -0.5097
 1792TIP3   OH226790   1.870   3.623  13.218 -0.0040 -0.0336  0.8157
 1792TIP3    H126791   1.813   3.698  13.200 -0.5640 -0.7837 -0.7218
 1792TIP3    H226792   1.926   3.617  13.141  0.7683 -0.5634  1.4078
 1793TIP3   OH226793   6.182   3.332  10.683  0.1341 -0.4650  0.1249
 1793TIP3    H126794   6.163   3.250  10.729 -0.2721 -0.9977 -0.9553
 1793TIP3    H226795   6.107   3.389  10.703  0.5596 -0.2398  1.1159
 1794TIP3   OH226796   4.765   4.616  12.631  0.3265  0.3908 -1.0815
 1794TIP3    H126797   4.750   4.622  12.537 -0.2810 -0.0723 -1.0145
 1794TIP3    H226798   4.693   4.563  12.664  1.5707 -1.1029 -0.6296
 1795TIP3   OH226799   1.648   5.621   3.912 -0.1131 -0.8694  0.4901
 1795TIP3    H126800   1.720   5.618   3.849 -1.2141  0.6047 -0.9129
 1795TIP3    H226801   1.673   5.689   3.975 -1.5288  1.9114 -1.7467
 1796TIP3   OH226802   0.740   2.294  17.169  0.8400  0.4131  0.6692
 1796TIP3    H126803   0.820   2.243  17.177  1.5589  1.5203  0.8081
 1796TIP3    H226804   0.742   2.353  17.245 -1.4942 -1.3826  2.2372
 1797TIP3   OH226805   0.947   4.398   0.164  0.2631  0.1305 -0.1729
 1797TIP3    H126806   0.893   4.459   0.114 -0.8439 -0.0241  0.7827
 1797TIP3    H226807   0.990   4.453   0.230  0.4758  0.0987 -0.2839
 1798TIP3   OH226808   5.518   1.791  14.350 -0.4179  0.6705  0.5007
 1798TIP3    H126809   5.557   1.781  14.437 -1.8087 -0.8517  1.0009
 1798TIP3    H226810   5.586   1.764  14.289  0.2320  0.7463  1.1881
 1799TIP3   OH226811   2.577   0.662  11.529  0.4340  0.0581  0.1448
 1799TIP3    H126812   2.567   0.573  11.494  2.1008  0.1809 -0.7111
 1799TIP3    H226813   2.542   0.656  11.619  2.5712 -2.0661  0.9347
 1800TIP3   OH226814   1.957   3.895   6.218  0.3393  0.1337  0.0798
 1800TIP3    H126815   1.913   3.876   6.300 -0.6003 -1.1783 -0.6821
 1800TIP3    H226816   1.967   3.990   6.217 -0.6174  0.2613  1.1993
 1801TIP3   OH226817   1.727   2.050  14.705  0.2013 -0.0496 -0.6730
 1801TIP3    H126818   1.685   2.128  14.742  1.9207  0.1057  1.1023
 1801TIP3    H226819   1.689   2.042  14.617  0.1812  2.9634 -1.0494
 1802TIP3   OH226820   0.679   5.922   4.680 -0.2423  0.0767 -0.3741
 1802TIP3    H126821   0.632   5.864   4.621  0.5179 -0.1880 -0.7157
 1802TIP3    H226822   0.761   5.942   4.636 -0.6115  1.6752 -0.4174
 1803TIP3   OH226823   2.249   2.768  15.419  0.1089 -0.3583 -0.0172
 1803TIP3    H126824   2.225   2.831  15.350 -3.8421 -1.8315 -0.2411
 1803TIP3    H226825   2.172   2.765  15.475  1.6655 -2.2563  2.1559
 1804TIP3   OH226826   4.198   3.403  11.547  0.5112 -0.0208  0.0862
 1804TIP3    H126827   4.167   3.339  11.611 -0.1035  1.8921  1.7869
 1804TIP3    H226828   4.120   3.455  11.525  0.8496 -0.2320 -1.7638
 1805TIP3   OH226829   3.843   4.338  13.737  0.4759 -0.1366  0.2826
 1805TIP3    H126830   3.772   4.372  13.793 -0.5443 -0.6308 -0.6847
 1805TIP3    H226831   3.809   4.346  13.648  2.3768  1.3477 -0.3753
 1806TIP3   OH226832   0.636   6.123  16.113 -0.5204 -0.3180 -0.1062
 1806TIP3    H126833   0.591   6.204  16.088  2.5187  1.1004 -1.3888
 1806TIP3    H226834   0.671   6.141  16.200 -0.7544 -0.7073  0.0747
 1807TIP3   OH226835   0.695   1.698  13.914  0.0528  0.1180 -0.3835
 1807TIP3    H126836   0.674   1.789  13.894  0.6796  0.1671 -0.8456
 1807TIP3    H226837   0.784   1.701  13.948 -0.4311 -0.1564  0.9664
 1808TIP3   OH226838   1.472   3.833  16.506 -0.3756 -0.5954  0.8194
 1808TIP3    H126839   1.476   3.819  16.600  0.0941  0.9130  1.0635
 1808TIP3    H226840   1.544   3.782  16.470 -0.1441 -0.6529  1.3630
 1809TIP3   OH226841   5.645   0.226  11.987 -0.2505  0.0452  0.4058
 1809TIP3    H126842   5.726   0.266  12.019  0.6912 -1.1558 -0.3713
 1809TIP3    H226843   5.601   0.295  11.937 -0.1304  0.9517  1.5346
 1810TIP3   OH226844   1.232   0.044  14.936  0.3456 -0.2385 -0.2802
 1810TIP3    H126845   1.277   0.023  15.018  0.3379 -1.0685 -0.4785
 1810TIP3    H226846   1.194  -0.039  14.907 -1.3783  0.4441 -0.0924
 1811TIP3   OH226847   5.717   0.961   4.808 -0.3236  0.1135 -0.1485
 1811TIP3    H126848   5.749   0.918   4.887 -0.2697 -1.3895 -0.9485
 1811TIP3    H226849   5.738   0.900   4.737 -1.3455  0.9267 -1.1936
 1812TIP3   OH226850   6.381   0.868   6.222  0.1755  0.4120  0.0768
 1812TIP3    H126851   6.462   0.908   6.256  0.9426 -0.4079 -0.7083
 1812TIP3    H226852   6.383   0.886   6.128 -0.4207  0.1576  0.0100
 1813TIP3   OH226853   6.446   0.461  13.014 -0.1629 -0.7086  0.4492
 1813TIP3    H126854   6.461   0.448  12.921  0.3920  2.8433 -0.1065
 1813TIP3    H226855   6.531   0.488  13.048 -1.2282  2.2900  0.9963
 1814TIP3   OH226856   5.191   1.319   4.753 -0.4279  0.3634 -0.0384
 1814TIP3    H126857   5.242   1.398   4.770 -1.9812  0.9350  2.5508
 1814TIP3    H226858   5.108   1.350   4.717 -0.4662 -0.2232 -0.4804
 1815TIP3   OH226859   4.071   1.239   1.053 -0.1678  0.2932 -0.0004
 1815TIP3    H126860   4.075   1.162   0.995 -1.7667  0.4402 -0.3712
 1815TIP3    H226861   4.023   1.304   1.002  0.2205  1.1574  0.7213
 1816TIP3   OH226862   5.366   1.567  16.843 -0.1151 -0.1243 -0.7247
 1816TIP3    H126863   5.313   1.491  16.821 -0.9983 -0.2902  1.7569
 1816TIP3    H226864   5.455   1.532  16.853 -0.1990 -0.5025 -1.2465
 1817TIP3   OH226865   6.610   6.517   2.366 -0.3995 -0.4136 -0.2851
 1817TIP3    H126866   6.655   6.432   2.372  0.7614  0.0961 -1.3463
 1817TIP3    H226867   6.681   6.581   2.359 -1.2612  0.6605  0.4447
 1818TIP3   OH226868   3.612   5.750  13.318  0.3410 -0.3984 -0.0575
 1818TIP3    H126869   3.679   5.702  13.368  0.1281 -2.4257 -1.5792
 1818TIP3    H226870   3.563   5.799  13.384  1.8857 -0.6537  1.3513
 1819TIP3   OH226871   6.661   6.076   3.389  0.1038 -0.1230  0.4762
 1819TIP3    H126872   6.720   6.005   3.361  0.4231  1.0359 -2.0100
 1819TIP3    H226873   6.720   6.146   3.417 -0.0973  0.4302 -0.4472
 1820TIP3   OH226874   3.094   2.885  16.827 -0.3636  0.0589  0.2263
 1820TIP3    H126875   3.137   2.961  16.788 -0.5965 -0.1116 -0.3857
 1820TIP3    H226876   3.111   2.814  16.765 -0.6318 -0.2510  0.5051
 1821TIP3   OH226877   5.983   5.219  12.987  0.2222  0.5739 -0.5196
 1821TIP3    H126878   5.945   5.143  13.031  0.5341  1.1636  0.8180
 1821TIP3    H226879   5.922   5.239  12.916 -0.4040 -0.2912 -0.2381
 1822TIP3   OH226880   4.967   4.052  17.030  0.1483 -0.1205  0.0112
 1822TIP3    H126881   4.985   3.964  16.997  0.0492  1.3605 -4.8319
 1822TIP3    H226882   5.041   4.072  17.087  1.0176 -2.7306 -0.0824
 1823TIP3   OH226883   2.623   2.448  14.734  0.9167 -0.0182  0.1640
 1823TIP3    H126884   2.567   2.422  14.808 -0.5503  0.2222 -0.8240
 1823TIP3    H226885   2.645   2.366  14.690  0.0576 -0.0059 -0.3167
 1824TIP3   OH226886   1.696   5.281   2.805  0.3594 -0.1734  0.0379
 1824TIP3    H126887   1.721   5.193   2.779 -1.7217 -0.9088  0.3500
 1824TIP3    H226888   1.733   5.338   2.738 -0.7799 -1.5661 -1.8436
 1825TIP3   OH226889   3.824   4.231   1.886 -0.2134 -0.1832  0.1600
 1825TIP3    H126890   3.837   4.246   1.793  1.1406 -4.0176 -0.4377
 1825TIP3    H226891   3.912   4.228   1.922 -0.5859 -1.3981  1.0298
 1826TIP3   OH226892   2.706   4.600  12.586 -0.4168 -0.2256  0.0128
 1826TIP3    H126893   2.614   4.580  12.606 -0.4245  0.4770  0.7425
 1826TIP3    H226894   2.754   4.522  12.614 -0.6132  0.0903  1.3110
 1827TIP3   OH226895   0.893   6.287   4.915 -0.0658  0.1391  0.3553
 1827TIP3    H126896   0.915   6.297   5.007  0.7973 -0.7110  0.2591
 1827TIP3    H226897   0.866   6.196   4.906  0.1293  0.1330 -0.2755
 1828TIP3   OH226898   2.903   2.286   3.825  0.4788  0.0345 -0.0973
 1828TIP3    H126899   2.886   2.199   3.790 -0.3062 -0.1264  0.6447
 1828TIP3    H226900   2.940   2.270   3.911  1.2860  0.4314 -0.3686
 1829TIP3   OH226901   0.932   4.998  15.059 -1.0916 -0.3134 -0.2039
 1829TIP3    H126902   1.001   5.056  15.025 -0.3976  0.1258  1.8012
 1829TIP3    H226903   0.973   4.953  15.133 -2.7060 -0.6826  0.5036
 1830TIP3   OH226904   3.270   2.112   3.659  0.8303 -0.0129  0.6491
 1830TIP3    H126905   3.283   2.188   3.603 -2.5830  0.5742  0.4561
 1830TIP3    H226906   3.271   2.147   3.748 -0.4974  0.2777  0.5712
 1831TIP3   OH226907   3.238   3.318  14.010  0.6932 -0.3602  0.1962
 1831TIP3    H126908   3.325   3.343  13.977  0.3232 -0.4424 -0.8659
 1831TIP3    H226909   3.212   3.391  14.065  0.7140  0.4623 -0.8485
 1832TIP3   OH226910   2.417   1.708  13.685 -0.5553  0.3182  0.1795
 1832TIP3    H126911   2.366   1.649  13.630  0.4948  0.7770 -1.3692
 1832TIP3    H226912   2.425   1.663  13.769  0.5841 -1.9913 -1.0775
 1833TIP3   OH226913   3.878   2.031   0.748 -0.1908  0.0568 -0.4815
 1833TIP3    H126914   3.929   1.950   0.757  0.9913  0.8744  0.5902
 1833TIP3    H226915   3.794   2.011   0.790 -0.3923 -0.9829 -1.3291
 1834TIP3   OH226916   4.737   6.056  16.818 -0.3221 -0.7944 -0.2771
 1834TIP3    H126917   4.804   6.015  16.763 -0.3396 -1.2458  0.0293
 1834TIP3    H226918   4.744   6.149  16.799  0.9881 -0.7285  0.3884
 1835TIP3   OH226919   3.564   6.553   5.377 -0.4021  0.5373  0.8127
 1835TIP3    H126920   3.469   6.557   5.370 -0.3903  0.5983  0.6906
 1835TIP3    H226921   3.582   6.469   5.419 -0.3675 -0.6398 -1.4431
 1836TIP3   OH226922   4.151   4.442   1.553 -0.4828  0.7488 -0.2598
 1836TIP3    H126923   4.197   4.359   1.544  0.7257  1.3163  0.3645
 1836TIP3    H226924   4.059   4.418   1.568  0.0919 -0.5367  1.5270
 1837TIP3   OH226925   1.644   5.946  17.184  0.3808  0.3804  0.1821
 1837TIP3    H126926   1.596   6.029  17.176  1.7347  1.3019  0.9945
 1837TIP3    H226927   1.583   5.886  17.226 -0.8446  0.7545 -1.0006
 1838TIP3   OH226928   2.206   2.588  12.461  0.0368 -0.4863  0.3838
 1838TIP3    H126929   2.224   2.566  12.553 -0.8286 -0.3119  0.6069
 1838TIP3    H226930   2.285   2.635  12.432  0.3914 -0.7005  0.9811
 1839TIP3   OH226931   4.579   2.053  13.176 -0.1312 -0.4249 -0.1514
 1839TIP3    H126932   4.548   2.143  13.180  0.0446 -0.4044  1.3925
 1839TIP3    H226933   4.608   2.041  13.086 -0.8555  0.8200 -0.5657
 1840TIP3   OH226934   3.238   6.586  14.871 -0.0334 -0.0057 -0.5516
 1840TIP3    H126935   3.202   6.616  14.788 -0.0169  0.9715 -0.2106
 1840TIP3    H226936   3.297   6.656  14.900 -0.4818 -0.0566  0.5611
 1841TIP3   OH226937   5.864   4.833   0.626 -0.1604 -0.3692 -0.0222
 1841TIP3    H126938   5.946   4.820   0.577 -0.1127  1.4682 -0.5338
 1841TIP3    H226939   5.862   4.928   0.641 -0.6032 -0.7719  2.8304
 1842TIP3   OH226940   0.139   0.763   0.310 -0.1209 -0.7030  0.3282
 1842TIP3    H126941   0.214   0.817   0.285  1.1080 -2.5966 -0.2760
 1842TIP3    H226942   0.068   0.792   0.253  0.4945  0.2812  0.0424
 1843TIP3   OH226943   4.183   4.390   5.027  0.4358 -0.1753 -0.2363
 1843TIP3    H126944   4.141   4.463   5.072 -0.4239 -2.4394  3.0412
 1843TIP3    H226945   4.252   4.430   4.975 -2.2886  3.2267 -1.6515
 1844TIP3   OH226946   5.488   2.151  17.105  0.1724  0.4909  0.0460
 1844TIP3    H126947   5.538   2.233  17.108  0.3511  0.3672  0.6517
 1844TIP3    H226948   5.537   2.094  17.046  0.5631  0.4877  0.3742
 1845TIP3   OH226949   4.742   5.926   3.448  0.9063  0.2002 -0.6615
 1845TIP3    H126950   4.680   5.893   3.383  1.0749  0.0602 -0.7510
 1845TIP3    H226951   4.730   6.021   3.446  3.6930  0.6502 -3.7759
 1846TIP3   OH226952   3.574   6.499   6.700  0.1273 -0.3959 -0.1642
 1846TIP3    H126953   3.609   6.587   6.687  0.2423 -0.1972  1.2757
 1846TIP3    H226954   3.495   6.496   6.647 -0.7235  1.1278  0.9318
 1847TIP3   OH226955   0.452   0.449   1.100  0.3580  0.0224 -0.0573
 1847TIP3    H126956   0.401   0.524   1.070  2.6453  1.4144 -0.7281
 1847TIP3    H226957   0.459   0.392   1.023 -0.8689 -0.6210  0.2841
 1848TIP3   OH226958   0.287   6.136  16.181 -0.0868  0.3701  0.0196
 1848TIP3    H126959   0.296   6.224  16.215  0.4413  0.8784 -1.3568
 1848TIP3    H226960   0.334   6.081  16.244 -2.4352  0.6787  2.2047
 1849TIP3   OH226961   3.582   2.411   6.493 -0.1242  0.0171 -0.2381
 1849TIP3    H126962   3.651   2.405   6.559 -0.6408 -0.3882  0.2776
 1849TIP3    H226963   3.610   2.350   6.424 -0.1090 -0.3723  0.1054
 1850TIP3   OH226964   6.283   2.805   2.532  0.1827  0.1856 -0.8107
 1850TIP3    H126965   6.252   2.886   2.572 -0.0331  0.5503 -1.6807
 1850TIP3    H226966   6.373   2.796   2.562  0.4358  1.1187 -1.2306
 1851TIP3   OH226967   3.553   3.706   4.002  0.1641  0.2218 -0.3302
 1851TIP3    H126968   3.467   3.730   3.967 -0.5530 -1.0244  0.4969
 1851TIP3    H226969   3.610   3.704   3.925 -0.7880  0.0135 -1.0503
 1852TIP3   OH226970   2.958   3.919   5.463 -0.2342  0.4347  0.4159
 1852TIP3    H126971   3.000   3.973   5.530 -0.5350  1.6520 -0.3523
 1852TIP3    H226972   2.928   3.981   5.397  1.3043 -0.7952 -1.5664
 1853TIP3   OH226973   1.582   5.269  15.164 -0.5326 -0.5113  0.3817
 1853TIP3    H126974   1.594   5.326  15.240  2.2997 -1.5802  0.8588
 1853TIP3    H226975   1.641   5.306  15.097 -1.6684 -0.6079 -0.7183
 1854TIP3   OH226976   3.216   5.051   4.428  0.1901  0.6995  0.3075
 1854TIP3    H126977   3.220   5.143   4.403 -2.2141  0.5850 -0.7039
 1854TIP3    H226978   3.136   5.043   4.480 -0.8539 -1.1665 -1.4275
 1855TIP3   OH226979   4.101   2.815  11.672 -0.1577 -0.0068  0.1415
 1855TIP3    H126980   4.015   2.773  11.660 -0.3029  0.4439 -0.4172
 1855TIP3    H226981   4.162   2.758  11.626 -0.3597  0.3944 -0.6409
 1856TIP3   OH226982   3.093   4.588   4.227 -0.3345 -0.5241  0.3009
 1856TIP3    H126983   3.134   4.595   4.313 -1.1588  0.4793  0.6213
 1856TIP3    H226984   3.166   4.597   4.165  0.0194  0.7369  0.8698
 1857TIP3   OH226985   3.119   5.209  14.219 -0.4127 -0.3898 -0.0304
 1857TIP3    H126986   3.057   5.270  14.259 -1.3642 -0.5393 -1.2418
 1857TIP3    H226987   3.205   5.240  14.249 -0.8556  1.6642 -0.7213
 1858TIP3   OH226988   5.603   3.782   2.914  0.4513  0.3505 -0.0160
 1858TIP3    H126989   5.581   3.873   2.935  0.3265  1.0947 -2.9163
 1858TIP3    H226990   5.578   3.733   2.992 -2.3539  2.4172  0.5503
 1859TIP3   OH226991   0.940   2.196  14.480 -0.2057 -0.0629 -0.2387
 1859TIP3    H126992   0.853   2.223  14.451  0.1750  0.2162 -1.1711
 1859TIP3    H226993   0.952   2.109  14.443 -0.1567 -0.1649  0.0206
 1860TIP3   OH226994   0.410   2.375   3.455 -0.0977 -0.2715 -0.1116
 1860TIP3    H126995   0.464   2.447   3.487 -0.2092  0.1443 -0.8335
 1860TIP3    H226996   0.321   2.411   3.451 -0.1168 -0.3765 -0.6905
 1861TIP3   OH226997   3.599   2.048   4.411  0.1012 -0.2938  0.3190
 1861TIP3    H126998   3.519   2.040   4.464  1.0736 -1.3942  1.7186
 1861TIP3    H226999   3.576   2.111   4.343 -1.9706 -0.6141  0.6332
 1862TIP3   OH227000   0.102   1.387  12.784  0.0265 -0.1633 -0.3064
 1862TIP3    H127001   0.113   1.366  12.877 -0.4670 -0.1646 -0.2438
 1862TIP3    H227002   0.088   1.303  12.742 -1.6963 -0.0300 -0.0914
 1863TIP3   OH227003   2.608   1.134   3.311 -0.5710  0.0373 -0.2662
 1863TIP3    H127004   2.569   1.053   3.278 -1.2921  0.9851 -1.8479
 1863TIP3    H227005   2.664   1.165   3.239 -0.7778  1.2449  0.0742
 1864TIP3   OH227006   3.071   3.023   1.065  0.1136 -0.0928 -0.0755
 1864TIP3    H127007   3.010   2.975   1.008  1.8105 -1.9073 -0.4895
 1864TIP3    H227008   3.033   3.016   1.152 -1.3014  0.6491 -0.5891
 1865TIP3   OH227009   3.393   0.552   5.948 -0.2282 -0.7497 -0.1650
 1865TIP3    H127010   3.467   0.490   5.947 -0.0839 -0.5804 -1.1819
 1865TIP3    H227011   3.432   0.635   5.974  0.0660 -0.5413 -1.2007
 1866TIP3   OH227012   0.010   2.935  16.301  0.5767  0.1463  0.1411
 1866TIP3    H127013   0.003   2.841  16.283  0.1453 -0.2272  2.1009
 1866TIP3    H227014   0.103   2.955  16.289  1.0085 -0.9398  1.5243
 1867TIP3   OH227015   1.635   5.198   2.361 -0.4282  0.2365  0.3807
 1867TIP3    H127016   1.686   5.124   2.328  0.7440  0.5654  1.3878
 1867TIP3    H227017   1.596   5.166   2.442  0.3894  0.8287  1.0151
 1868TIP3   OH227018   6.665   5.082   3.926  0.2580  0.2713  0.1410
 1868TIP3    H127019   6.734   5.029   3.966  1.6529  0.7876 -1.4704
 1868TIP3    H227020   6.707   5.167   3.909 -1.2540  1.1306  0.5706
 1869TIP3   OH227021   0.549   0.308  13.042  0.2741 -0.5376 -0.1075
 1869TIP3    H127022   0.504   0.379  12.994  0.3467  0.9240  1.8657
 1869TIP3    H227023   0.622   0.351  13.086  1.6863 -2.2979 -0.6016
 1870TIP3   OH227024   2.645   5.423   2.273 -0.3221  0.1340  0.0022
 1870TIP3    H127025   2.620   5.342   2.318 -3.7710  1.0295 -0.0283
 1870TIP3    H227026   2.565   5.453   2.231  1.6593  1.7582 -3.0338
 1871TIP3   OH227027   2.461   0.533   2.771  0.6418 -0.8996  0.1798
 1871TIP3    H127028   2.404   0.595   2.815  0.8948 -0.8393  0.4241
 1871TIP3    H227029   2.412   0.451   2.771 -0.3413 -0.3635 -1.4704
 1872TIP3   OH227030   6.586   1.791   0.455 -0.0388 -0.1972 -0.1312
 1872TIP3    H127031   6.595   1.697   0.442 -0.8676 -0.6187  2.0267
 1872TIP3    H227032   6.658   1.829   0.403 -0.4141 -1.8853 -2.0057
 1873TIP3   OH227033   2.751   5.145  11.724  0.0820  0.3552 -0.2668
 1873TIP3    H127034   2.812   5.128  11.652  0.9797  1.4475  0.2067
 1873TIP3    H227035   2.802   5.194  11.788 -0.9682  0.2298  0.7008
 1874TIP3   OH227036   5.892   1.484  13.402 -0.0412 -0.1183  0.2706
 1874TIP3    H127037   5.849   1.497  13.318 -0.8606 -0.5146  0.6171
 1874TIP3    H227038   5.943   1.404  13.391 -1.0168 -0.7885  0.4700
 1875TIP3   OH227039   2.316   3.119  15.677 -0.1558  0.4826 -0.0951
 1875TIP3    H127040   2.299   3.168  15.596 -0.8581  0.6259  0.1326
 1875TIP3    H227041   2.291   3.179  15.747 -0.2936  0.0714  0.2087
 1876TIP3   OH227042   5.035   4.229  11.635 -0.0241 -0.3556 -0.5517
 1876TIP3    H127043   5.105   4.167  11.657 -0.9753 -1.3281 -0.2121
 1876TIP3    H227044   5.016   4.213  11.543 -0.7593 -1.0783 -0.2806
 1877TIP3   OH227045   1.735   3.807  15.917 -0.3842  0.0650 -0.7870
 1877TIP3    H127046   1.693   3.752  15.982 -1.8959  1.1741 -0.7680
 1877TIP3    H227047   1.681   3.797  15.838 -0.7101  1.4845 -0.7750
 1878TIP3   OH227048   2.290   6.221  16.622  0.3331  0.3860  0.0493
 1878TIP3    H127049   2.227   6.174  16.568  1.1732 -0.1688 -0.4657
 1878TIP3    H227050   2.308   6.301  16.572 -0.4647  0.8753  0.5260
 1879TIP3   OH227051   2.428   3.173  13.476  0.3218 -0.0624 -0.3729
 1879TIP3    H127052   2.367   3.111  13.436 -0.7447  0.3047  0.6278
 1879TIP3    H227053   2.379   3.213  13.547  1.2984  1.2496 -0.3910
 1880TIP3   OH227054   6.249   4.597   3.853 -0.2671  0.5257  0.0567
 1880TIP3    H127055   6.297   4.621   3.933  0.0442  1.7828 -0.4794
 1880TIP3    H227056   6.181   4.664   3.846 -1.2939 -0.4949  0.1034
 1881TIP3   OH227057   4.418   6.466   2.723  0.0230 -0.2083 -0.3482
 1881TIP3    H127058   4.459   6.431   2.644  0.7418  1.2374 -0.6419
 1881TIP3    H227059   4.351   6.526   2.691  1.8198  2.1771  0.0133
 1882TIP3   OH227060   2.844   0.733  14.246  0.1230 -0.0218  0.2984
 1882TIP3    H127061   2.936   0.714  14.262  1.0805  3.5561 -0.0262
 1882TIP3    H227062   2.823   0.801  14.311 -1.2599  1.5785 -1.7246
 1883TIP3   OH227063   1.540   2.582  15.036 -0.1224 -0.4520  1.0317
 1883TIP3    H127064   1.578   2.620  14.956 -0.8866  0.6094  1.1432
 1883TIP3    H227065   1.612   2.582  15.099  0.1755 -0.1587  0.6940
 1884TIP3   OH227066   5.921   0.380   4.595  0.1532 -0.0127 -0.0047
 1884TIP3    H127067   5.949   0.292   4.620 -2.0402 -0.8453 -0.2803
 1884TIP3    H227068   5.944   0.387   4.502  1.7600  0.3470  0.3889
 1885TIP3   OH227069   4.468   6.097  13.526  0.5987  0.4088 -0.2681
 1885TIP3    H127070   4.525   6.022  13.507 -0.0489  0.0022 -0.6124
 1885TIP3    H227071   4.500   6.129  13.611  0.1916 -0.9251  0.4264
 1886TIP3   OH227072   4.584   0.399  11.397 -0.3348  0.1127 -0.0311
 1886TIP3    H127073   4.638   0.325  11.422 -0.4529 -0.3528 -1.1312
 1886TIP3    H227074   4.639   0.452  11.340  0.0480  1.3529  1.4084
 1887TIP3   OH227075   3.811   2.865   4.467 -0.1140 -0.1559 -0.1409
 1887TIP3    H127076   3.906   2.856   4.477 -0.0481 -0.6689 -1.1304
 1887TIP3    H227077   3.793   2.829   4.381 -0.9191  2.0428 -0.9423
 1888TIP3   OH227078   0.256   1.581   5.897 -0.1541 -0.1584 -0.2328
 1888TIP3    H127079   0.291   1.630   5.971 -0.7635  0.7396 -0.5255
 1888TIP3    H227080   0.196   1.517   5.937  0.9576 -0.9732  0.1792
 1889TIP3   OH227081   2.728   3.460   0.431  0.5441  0.1733  0.3556
 1889TIP3    H127082   2.767   3.398   0.370  0.9364 -0.1539  0.9249
 1889TIP3    H227083   2.635   3.462   0.408 -0.1323 -2.9560  2.2364
 1890TIP3   OH227084   1.316   0.001   5.093  0.1008  0.6837  0.1741
 1890TIP3    H127085   1.255  -0.064   5.059  0.6923 -0.2210  0.7854
 1890TIP3    H227086   1.263   0.080   5.104 -0.7988  0.1137  0.0700
 1891TIP3   OH227087   5.184   2.187   6.329  0.6809  0.1280 -0.2010
 1891TIP3    H127088   5.250   2.212   6.393  0.7604  0.9817 -0.5982
 1891TIP3    H227089   5.116   2.143   6.380  0.7671  0.7440  0.4598
 1892TIP3   OH227090   5.381   5.092  15.131  0.2457 -0.2478  0.7677
 1892TIP3    H127091   5.328   5.121  15.204  1.8776  0.7350  1.6176
 1892TIP3    H227092   5.332   5.117  15.053 -1.0702 -0.4609  1.5050
 1893TIP3   OH227093   4.417   6.673  13.348  0.5803 -0.1132 -0.0331
 1893TIP3    H127094   4.422   6.616  13.424  0.8512  0.6041  0.4966
 1893TIP3    H227095   4.421   6.614  13.273 -0.4863 -0.8866  0.5091
 1894TIP3   OH227096   2.062   2.002  13.084  0.1095 -0.0110 -0.6754
 1894TIP3    H127097   2.049   2.029  12.993 -0.6135  0.7519 -0.3534
 1894TIP3    H227098   2.150   2.031  13.106 -0.1199  0.7860 -0.7932
 1895TIP3   OH227099   6.116   5.420   1.443  0.0654 -0.0414 -0.2834
 1895TIP3    H127100   6.095   5.444   1.352 -2.1403 -0.0806  0.1586
 1895TIP3    H227101   6.062   5.343   1.460  1.6358 -0.9862  0.6142
 1896TIP3   OH227102   0.280   1.849  11.422 -0.1305  0.1584  0.1934
 1896TIP3    H127103   0.353   1.804  11.379 -0.4541 -1.6385  1.4107
 1896TIP3    H227104   0.202   1.806  11.390 -0.4806  0.1067  1.0798
 1897TIP3   OH227105   6.444   4.337   6.275 -0.1732  0.1206  0.4014
 1897TIP3    H127106   6.514   4.286   6.233  1.5247  0.7969  2.2307
 1897TIP3    H227107   6.364   4.289   6.255  0.7983 -0.7484 -1.7078
 1898TIP3   OH227108   5.818   6.187   3.008 -0.1327  0.5192  1.0161
 1898TIP3    H127109   5.864   6.236   2.940 -0.5973  0.0952  0.3964
 1898TIP3    H227110   5.876   6.113   3.028 -1.0173 -0.6563 -0.5684
 1899TIP3   OH227111   2.363   4.598  14.652 -0.5441 -0.2481 -0.4317
 1899TIP3    H127112   2.437   4.600  14.712 -0.4764 -4.0640 -0.1217
 1899TIP3    H227113   2.402   4.579  14.566 -1.0418 -0.4226 -0.6210
 1900TIP3   OH227114   5.063   6.256  13.294  0.2464  0.6812 -0.4795
 1900TIP3    H127115   5.096   6.273  13.206  2.4995 -1.9416 -0.2731
 1900TIP3    H227116   5.142   6.238  13.346 -1.2073 -1.1649  1.2629
 1901TIP3   OH227117   3.154   1.384   0.662 -0.5055  0.5987 -0.1597
 1901TIP3    H127118   3.077   1.346   0.620 -1.5563  0.1519  2.0411
 1901TIP3    H227119   3.129   1.397   0.753  2.2756 -0.2953  0.8470
 1902TIP3   OH227120   6.080   1.213  16.448 -0.0991  0.7005 -0.0048
 1902TIP3    H127121   6.067   1.277  16.379 -3.9064  0.9767  0.7435
 1902TIP3    H227122   6.113   1.135  16.403 -2.3018  0.9133 -2.1881
 1903TIP3   OH227123   3.521   2.904  14.998 -0.1551  0.4550 -0.6913
 1903TIP3    H127124   3.591   2.840  14.986 -0.5682  0.0602 -1.0338
 1903TIP3    H227125   3.489   2.922  14.910  0.0461  1.2394 -0.6055
 1904TIP3   OH227126   4.431   3.879  13.348 -0.9413  0.2000  0.5302
 1904TIP3    H127127   4.512   3.917  13.316 -0.8402 -0.7534 -0.3928
 1904TIP3    H227128   4.364   3.909  13.287 -1.0916  0.0636  0.6265
 1905TIP3   OH227129   3.796   3.641   1.525  0.1116 -0.3100 -0.0329
 1905TIP3    H127130   3.761   3.559   1.560 -0.0138 -0.5342 -0.6602
 1905TIP3    H227131   3.772   3.707   1.589 -1.1299 -0.5211 -0.2429
 1906TIP3   OH227132   1.876   6.485  15.929 -0.4842  0.2563 -0.2189
 1906TIP3    H127133   1.861   6.579  15.915 -1.5333  0.1817  0.3417
 1906TIP3    H227134   1.850   6.469  16.019  0.6327 -0.4014  0.0102
 1907TIP3   OH227135   6.011   5.830  10.599 -0.0727 -0.0366 -0.4618
 1907TIP3    H127136   5.994   5.920  10.572 -2.4257 -0.3444 -0.2544
 1907TIP3    H227137   6.052   5.839  10.685  0.1908  0.8426 -0.6650
 1908TIP3   OH227138   4.997   1.718   5.301 -0.0797  0.2536  0.1583
 1908TIP3    H127139   5.009   1.788   5.365  0.1029  1.1988 -0.8800
 1908TIP3    H227140   5.053   1.742   5.227 -1.6447  0.1679 -1.1309
 1909TIP3   OH227141   2.219   0.226   4.225 -0.1526  0.3024  0.1257
 1909TIP3    H127142   2.233   0.194   4.314  0.6475 -0.3317 -0.2143
 1909TIP3    H227143   2.274   0.305   4.219 -0.6271  0.6545  0.3572
 1910TIP3   OH227144   4.458   1.603   1.549  0.7667  0.2184  0.0861
 1910TIP3    H127145   4.455   1.534   1.482  1.4910  0.1633  0.0944
 1910TIP3    H227146   4.397   1.575   1.616 -0.0351  0.3086 -0.5833
 1911TIP3   OH227147   2.781   2.042   3.497 -0.5295 -0.0909 -0.0376
 1911TIP3    H127148   2.689   2.051   3.522 -0.3208 -1.9961  1.6613
 1911TIP3    H227149   2.828   2.039   3.580  0.8405 -1.2568 -0.8063
 1912TIP3   OH227150   2.295   3.802  15.635  0.4632 -0.1587  0.5020
 1912TIP3    H127151   2.220   3.758  15.674 -0.5969 -1.2806 -2.5007
 1912TIP3    H227152   2.371   3.753  15.667 -0.3462 -1.1235  1.0104
 1913TIP3   OH227153   0.871   4.985   5.888 -0.3356  0.1121  0.0850
 1913TIP3    H127154   0.883   5.073   5.924  0.6309  0.1619 -0.3291
 1913TIP3    H227155   0.958   4.960   5.857 -0.8015 -0.6060 -0.6730
 1914TIP3   OH227156   3.422   1.828   5.634 -0.1442 -0.5204 -0.2066
 1914TIP3    H127157   3.453   1.764   5.697 -3.2663  1.1600  3.4314
 1914TIP3    H227158   3.442   1.913   5.674 -2.2693  0.6548 -1.4406
 1915TIP3   OH227159   0.470   3.345  17.018 -0.3298 -0.3997  0.2115
 1915TIP3    H127160   0.396   3.401  16.995  0.0627 -0.0941 -0.3079
 1915TIP3    H227161   0.542   3.405  17.036  0.0623 -0.7330 -0.2283
 1916TIP3   OH227162   6.734   3.006   4.879 -0.3024  0.0273  0.7049
 1916TIP3    H127163   6.720   2.938   4.946 -1.3145 -1.4009 -0.8703
 1916TIP3    H227164   6.699   2.968   4.799  2.9138  0.7245 -1.2091
 1917TIP3   OH227165   0.550   2.130  15.725  0.1100  0.9682 -0.0510
 1917TIP3    H127166   0.629   2.100  15.681 -0.6519 -0.6328 -0.4098
 1917TIP3    H227167   0.582   2.184  15.798  1.6880 -1.7917  1.4608
 1918TIP3   OH227168   5.926   0.051   6.249  0.2148  0.1860  0.2326
 1918TIP3    H127169   5.852  -0.004   6.274 -0.4029 -0.1382 -2.0295
 1918TIP3    H227170   5.989  -0.009   6.210  0.5411  0.7675 -0.1565
 1919TIP3   OH227171   3.346   1.234  13.162  0.4533  0.3264 -0.0062
 1919TIP3    H127172   3.403   1.310  13.174  1.0690  0.1391 -1.5042
 1919TIP3    H227173   3.406   1.161  13.145 -0.1736  0.2484 -2.2771
 1920TIP3   OH227174   1.799   5.467   5.212  0.1563  0.0366 -0.8021
 1920TIP3    H127175   1.790   5.386   5.262 -0.6061 -0.1514 -1.2306
 1920TIP3    H227176   1.738   5.528   5.253 -0.3558 -0.0711 -1.3890
 1921TIP3   OH227177   3.787   6.680   1.163 -0.3824  0.1414  0.1249
 1921TIP3    H127178   3.773   6.712   1.073 -0.3684  0.0596  0.0940
 1921TIP3    H227179   3.725   6.731   1.215 -0.6719 -0.0852  0.0125
 1922TIP3   OH227180   2.913   1.210  15.725 -0.1991  0.3203  0.6144
 1922TIP3    H127181   2.986   1.256  15.768 -0.2721 -0.7506  1.9604
 1922TIP3    H227182   2.835   1.243  15.769 -0.5004  0.9722 -0.3742
 1923TIP3   OH227183   5.760   4.268  12.757  0.0042  0.4246 -0.0026
 1923TIP3    H127184   5.779   4.240  12.668  0.1514  1.7764 -0.4104
 1923TIP3    H227185   5.811   4.347  12.769 -0.6301  0.6969  1.0086
 1924TIP3   OH227186   1.891   4.051  17.199  0.1896 -0.0421 -0.2083
 1924TIP3    H127187   1.943   4.030  17.276 -0.9759 -0.3806  0.5053
 1924TIP3    H227188   1.954   4.049  17.127  1.8671  2.6829  0.9713
 1925TIP3   OH227189   4.409   0.288  15.124 -0.3791 -0.0062 -0.3968
 1925TIP3    H127190   4.476   0.239  15.171  1.6634 -0.1293 -3.1640
 1925TIP3    H227191   4.354   0.221  15.083 -2.0137  0.1018  1.4509
 1926TIP3   OH227192   6.577   5.370  12.797 -0.9532  0.3634  0.0505
 1926TIP3    H127193   6.589   5.424  12.718 -1.7740  2.6128  1.3698
 1926TIP3    H227194   6.650   5.393  12.854 -0.2185 -1.4438 -0.0818
 1927TIP3   OH227195   6.632   1.329   4.781 -0.2936  0.0350  0.2533
 1927TIP3    H127196   6.688   1.301   4.854  3.1933  1.5760 -1.5795
 1927TIP3    H227197   6.608   1.419   4.802  0.9669  0.5865 -0.5315
 1928TIP3   OH227198   2.508   2.816  13.044 -0.4478  0.0209  0.7296
 1928TIP3    H127199   2.489   2.884  12.979  1.3325 -0.7111 -0.6469
 1928TIP3    H227200   2.587   2.848  13.088  0.2220 -0.9572  0.2840
 1929TIP3   OH227201   1.451   5.718   0.754  0.2488 -0.5693  0.6614
 1929TIP3    H127202   1.373   5.748   0.801 -0.4761  2.3834 -2.0773
 1929TIP3    H227203   1.508   5.796   0.751  2.2549 -1.9653  0.5153
 1930TIP3   OH227204   2.625   3.960  11.556 -0.3496  0.0085 -0.1737
 1930TIP3    H127205   2.703   3.909  11.533  0.1908  0.2565  1.0195
 1930TIP3    H227206   2.647   4.050  11.531  0.2082  0.2654  1.1668
 1931TIP3   OH227207   5.816   1.128  12.170 -0.3329  0.0379  0.5558
 1931TIP3    H127208   5.807   1.055  12.109  1.4150  0.5905 -0.4118
 1931TIP3    H227209   5.860   1.090  12.247  2.4004  0.3796 -0.7218
 1932TIP3   OH227210   4.835   0.229   0.029 -0.4480 -0.0956  0.4774
 1932TIP3    H127211   4.844   0.261  -0.061 -0.8557 -0.9281  0.1341
 1932TIP3    H227212   4.746   0.195   0.034 -0.3682 -0.2272  1.1468
 1933TIP3   OH227213   2.316   3.636   4.126  0.3457  0.0244 -0.4284
 1933TIP3    H127214   2.326   3.665   4.035 -0.1701  0.8881 -0.2170
 1933TIP3    H227215   2.389   3.678   4.172  0.2682  0.0641 -0.3408
 1934TIP3   OH227216   0.065   5.145  13.113 -0.7776  0.5254  0.1442
 1934TIP3    H127217   0.098   5.141  13.203 -2.1691  1.6745  0.7441
 1934TIP3    H227218   0.087   5.060  13.076  0.1037  0.1418  1.4614
 1935TIP3   OH227219   6.043   2.391  14.632 -0.3914  0.0547  0.2331
 1935TIP3    H127220   6.094   2.329  14.580  3.3643  1.7370  1.5924
 1935TIP3    H227221   5.978   2.425  14.571 -1.1547 -3.4163 -1.1727
 1936TIP3   OH227222   0.898   0.959  16.125  0.0081  0.6946 -0.1875
 1936TIP3    H127223   0.963   1.028  16.130  0.2803  0.4387 -0.1630
 1936TIP3    H227224   0.824   0.991  16.177  0.4535  0.6128  0.5051
 1937TIP3   OH227225   0.116   1.681  12.116 -0.0110  0.4123 -0.3937
 1937TIP3    H127226   0.095   1.773  12.131 -1.3784  0.2365 -1.0833
 1937TIP3    H227227   0.068   1.634  12.185 -0.0397  0.1562 -0.5882
 1938TIP3   OH227228   0.270   6.175   5.263  0.7403 -0.4328 -0.3432
 1938TIP3    H127229   0.194   6.232   5.268  0.7679 -0.4895  0.9905
 1938TIP3    H227230   0.287   6.166   5.169  0.6350  1.6178 -0.6084
 1939TIP3   OH227231   0.956   3.178   4.663 -0.3777  0.0751 -0.0897
 1939TIP3    H127232   0.950   3.193   4.757 -2.4713 -1.4455  0.0656
 1939TIP3    H227233   0.968   3.084   4.654  0.5921  0.2881 -1.3715
 1940TIP3   OH227234   0.820   0.517   4.787 -0.0955  0.0025  0.0754
 1940TIP3    H127235   0.867   0.560   4.716  1.1522  0.3476  1.0805
 1940TIP3    H227236   0.748   0.576   4.808  0.2141  0.4573 -0.1356
 1941TIP3   OH227237   1.359   5.053  14.602  0.3871  0.0318  0.2089
 1941TIP3    H127238   1.406   5.103  14.668 -0.8564  0.4395  0.8121
 1941TIP3    H227239   1.291   5.006  14.651  0.3230 -0.7529 -0.5990
 1942TIP3   OH227240   1.911   0.285  11.915  0.7965 -0.5166 -0.1349
 1942TIP3    H127241   1.824   0.258  11.886 -0.0361  1.9082 -0.1582
 1942TIP3    H227242   1.952   0.205  11.947 -1.7758 -1.5756  0.7552
 1943TIP3   OH227243   2.009   3.597  14.412  0.0908  0.4204  0.0887
 1943TIP3    H127244   1.937   3.568  14.469  0.3740 -0.6743 -0.0875
 1943TIP3    H227245   2.039   3.517  14.369  1.8076  0.7454  0.6012
 1944TIP3   OH227246   3.222   6.099  15.866 -0.0593 -0.1918  0.2087
 1944TIP3    H127247   3.204   6.052  15.948  0.8095 -0.5749  0.2034
 1944TIP3    H227248   3.318   6.102  15.862 -0.0754 -0.8232 -1.1514
 1945TIP3   OH227249   6.573   0.346   5.192 -0.4815 -0.2031  0.7931
 1945TIP3    H127250   6.551   0.438   5.209  1.5691  0.2816  1.1086
 1945TIP3    H227251   6.612   0.347   5.104 -1.1774 -0.9213  0.4696
 1946TIP3   OH227252   2.858   2.030  16.916 -0.0877  1.0387 -0.5439
 1946TIP3    H127253   2.887   1.998  16.830  2.1169  2.4406 -0.3977
 1946TIP3    H227254   2.929   2.006  16.975 -2.4299 -1.7210  1.4447
 1947TIP3   OH227255   1.491   0.558  16.594 -0.2789 -0.3308 -0.2694
 1947TIP3    H127256   1.527   0.491  16.651  1.1350  1.2579  0.8348
 1947TIP3    H227257   1.565   0.587  16.541 -1.0318 -0.1662 -1.2641
 1948TIP3   OH227258   5.727   0.475  13.692  0.4188  0.1431  0.5375
 1948TIP3    H127259   5.746   0.547  13.632 -0.9968  0.2979  0.2611
 1948TIP3    H227260   5.814   0.441  13.715  1.0395  0.8672 -0.6090
 1949TIP3   OH227261   5.502   1.584   1.118  0.2861  0.2172  0.0339
 1949TIP3    H127262   5.470   1.602   1.207  1.4126 -0.5719  0.6154
 1949TIP3    H227263   5.590   1.549   1.131  0.5397  0.2790 -1.4163
 1950TIP3   OH227264   1.741   0.943  11.434  0.2854 -0.3273  0.2747
 1950TIP3    H127265   1.656   0.952  11.477  0.4936 -0.1670  0.6541
 1950TIP3    H227266   1.720   0.925  11.342 -0.1805  2.9763 -0.3635
 1951TIP3   OH227267   5.319   4.025   6.066  0.5662  0.1588 -0.1813
 1951TIP3    H127268   5.241   4.047   6.117 -0.5419 -0.5955 -1.4629
 1951TIP3    H227269   5.387   4.083   6.099 -0.3870  0.4716  1.3482
 1952TIP3   OH227270   5.978   5.998   1.168  0.0872  0.4200  0.0410
 1952TIP3    H127271   5.891   5.990   1.128 -0.0183 -2.2940  0.6311
 1952TIP3    H227272   6.039   5.982   1.096  0.1599  2.1278 -0.3301
 1953TIP3   OH227273   3.046   2.444   0.594 -0.0056 -0.6189 -0.1052
 1953TIP3    H127274   3.031   2.369   0.537 -0.5541 -0.8708  0.3665
 1953TIP3    H227275   3.140   2.440   0.613 -0.0156 -1.1415 -0.1438
 1954TIP3   OH227276   1.627   1.244  15.798  0.3437  0.2495 -0.1074
 1954TIP3    H127277   1.672   1.200  15.726 -0.5184  1.3064 -1.3380
 1954TIP3    H227278   1.654   1.336  15.790 -1.1348  0.7019 -0.2094
 1955TIP3   OH227279   5.096   1.094   0.275  0.3425  0.2223 -0.2382
 1955TIP3    H127280   5.182   1.066   0.243 -0.1566  0.7197 -2.1595
 1955TIP3    H227281   5.044   1.107   0.195 -1.8422 -1.0318  0.8888
 1956TIP3   OH227282   2.797   5.947  12.792 -0.1397 -0.9203 -0.2028
 1956TIP3    H127283   2.831   6.011  12.855  0.2535 -0.8556 -0.4765
 1956TIP3    H227284   2.850   5.869  12.806 -0.9137 -1.3488  0.4389
 1957TIP3   OH227285   0.626   2.127   1.546  0.2548 -0.2371  0.1378
 1957TIP3    H127286   0.537   2.105   1.517  0.2948 -2.4994  1.4629
 1957TIP3    H227287   0.616   2.209   1.594 -0.8940  0.1770 -0.7426
 1958TIP3   OH227288   6.693   0.896   6.531 -0.1405 -0.2954 -0.0720
 1958TIP3    H127289   6.648   0.920   6.450  0.0314  2.0870  0.4463
 1958TIP3    H227290   6.631   0.840   6.578 -1.0383 -0.0829 -0.9760
 1959TIP3   OH227291   1.666   1.757  15.726 -0.3822  0.1439 -0.3736
 1959TIP3    H127292   1.614   1.808  15.664  1.0186  2.0914 -0.0484
 1959TIP3    H227293   1.643   1.793  15.812  0.2217 -0.1470 -0.0818
 1960TIP3   OH227294   6.428   3.885   2.268 -0.2326  0.4865  0.3714
 1960TIP3    H127295   6.425   3.848   2.356  2.2733 -0.2618  0.2118
 1960TIP3    H227296   6.357   3.842   2.220  0.9001 -2.1389  0.9358
 1961TIP3   OH227297   2.276   1.709  15.758 -0.1529  0.8678 -0.7447
 1961TIP3    H127298   2.279   1.614  15.766 -0.0560  0.3593 -4.5614
 1961TIP3    H227299   2.183   1.730  15.761 -0.2690  0.4424 -1.2168
 1962TIP3   OH227300   0.100   4.304  15.104 -0.1146 -0.3710  0.4188
 1962TIP3    H127301   0.083   4.250  15.181  1.1464 -0.3509  0.7326
 1962TIP3    H227302   0.105   4.242  15.032 -2.0911 -0.3218  0.1753
 1963TIP3   OH227303   1.949   1.429  16.494 -0.1889 -0.3441 -0.1266
 1963TIP3    H127304   1.888   1.502  16.481 -0.2653 -0.6541 -1.6593
 1963TIP3    H227305   1.893   1.352  16.503 -0.0798 -0.3321  0.8434
 1964TIP3   OH227306   6.675   4.416   1.318 -0.0676 -0.1765  0.1290
 1964TIP3    H127307   6.624   4.340   1.289 -0.0966  0.2870 -1.1218
 1964TIP3    H227308   6.692   4.401   1.411  0.1723 -1.8474 -0.1643
 1965TIP3   OH227309   5.962   1.406  16.255  0.0646 -0.0297  0.6048
 1965TIP3    H127310   5.877   1.433  16.222 -0.3958 -0.1797  1.6350
 1965TIP3    H227311   5.973   1.317  16.222  1.2458  1.0030 -2.1481
 1966TIP3   OH227312   1.580   0.917   0.624 -0.0075 -0.1035  0.3039
 1966TIP3    H127313   1.670   0.949   0.626 -0.4338  1.2742 -1.1150
 1966TIP3    H227314   1.589   0.822   0.618  1.4576  0.1159 -2.6267
 1967TIP3   OH227315   1.771   1.706   1.669  0.0732  0.1894  0.0296
 1967TIP3    H127316   1.810   1.686   1.584 -2.3471 -0.1838 -1.0795
 1967TIP3    H227317   1.844   1.738   1.722  1.9740 -1.1655 -1.6307
 1968TIP3   OH227318   4.780   6.572   1.474  0.3994 -0.0250 -0.2701
 1968TIP3    H127319   4.699   6.593   1.522  0.4260  2.0214 -1.0353
 1968TIP3    H227320   4.811   6.491   1.514 -0.1152  1.0323  2.4973
 1969TIP3   OH227321   4.000   6.396   0.074  0.1497 -0.1517  0.2635
 1969TIP3    H127322   3.921   6.417   0.124  0.1692 -0.5869  0.4819
 1969TIP3    H227323   4.058   6.470   0.089  0.0591 -0.1623  0.6831
 1970TIP3   OH227324   3.865   0.688  11.186  0.2127  0.6068 -0.0531
 1970TIP3    H127325   3.821   0.605  11.168  1.8026 -0.6020  1.2782
 1970TIP3    H227326   3.957   0.664  11.197  1.3172  3.0375 -2.8383
 1971TIP3   OH227327   1.858   4.547  12.316  0.2087 -0.3665 -1.2463
 1971TIP3    H127328   1.883   4.456  12.333 -0.8866 -0.5963 -0.8105
 1971TIP3    H227329   1.762   4.545  12.309  0.1919  0.7116 -1.4868
 1972TIP3   OH227330   2.492   6.127  17.233 -0.1040 -0.4510  0.0291
 1972TIP3    H127331   2.497   6.033  17.216 -0.8759 -0.3103 -1.1133
 1972TIP3    H227332   2.409   6.154  17.194  0.0198  0.6739  0.5018
 1973TIP3   OH227333   0.669   4.774   4.608 -0.3219 -0.3585 -0.0666
 1973TIP3    H127334   0.613   4.809   4.539 -1.4191 -1.7142  0.1126
 1973TIP3    H227335   0.629   4.691   4.633  0.6470 -0.4061  1.4715
 1974TIP3   OH227336   6.573   6.043   3.746  0.4196  0.7388 -0.0844
 1974TIP3    H127337   6.667   6.039   3.763 -0.0592 -1.8378  2.7591
 1974TIP3    H227338   6.546   6.128   3.780  1.4049  0.5361  1.2715
 1975TIP3   OH227339   6.134   1.143  12.639  0.2501 -0.6819 -0.1064
 1975TIP3    H127340   6.169   1.205  12.703 -0.2130 -1.7803  1.2834
 1975TIP3    H227341   6.123   1.062  12.689  0.8966 -1.9046 -1.8780
 1976TIP3   OH227342   6.050   3.307  12.271 -0.4257  0.4984 -0.0024
 1976TIP3    H127343   6.118   3.269  12.216 -1.2199  1.2355 -1.5304
 1976TIP3    H227344   6.026   3.236  12.331  1.5645  0.1927  0.4757
 1977TIP3   OH227345   5.186   1.290  14.320  0.3975 -0.1613 -0.2096
 1977TIP3    H127346   5.103   1.338  14.317 -0.4397 -1.4415  1.0738
 1977TIP3    H227347   5.251   1.353  14.291 -1.1496  0.5474 -2.4315
 1978TIP3   OH227348   6.001   1.647  13.858 -0.1130  0.3663 -0.1495
 1978TIP3    H127349   6.085   1.687  13.880  0.6712 -1.0399 -0.4498
 1978TIP3    H227350   6.024   1.559  13.827 -1.7570 -0.3697  0.6087
 1979TIP3   OH227351   0.017   0.248   0.999 -0.5832  0.4283  0.5567
 1979TIP3    H127352   0.057   0.237   0.913  0.1732  0.7675  0.8580
 1979TIP3    H227353   0.019   0.160   1.038 -2.4361 -0.0894 -0.3893
 1980TIP3   OH227354   5.065   5.432  14.775 -0.0231  0.1243  0.5723
 1980TIP3    H127355   4.999   5.378  14.732 -1.3451  2.5848 -0.6903
 1980TIP3    H227356   5.148   5.387  14.757 -0.9680 -1.0632 -1.0765
 1981TIP3   OH227357   0.763   3.452   1.365  0.2803  0.0537 -0.1729
 1981TIP3    H127358   0.840   3.488   1.320  1.3738 -2.2664 -0.2659
 1981TIP3    H227359   0.789   3.364   1.391 -0.7487  0.7432  3.8790
 1982TIP3   OH227360   6.506   2.436   1.492  0.5534  0.5684 -0.4718
 1982TIP3    H127361   6.465   2.516   1.527  1.3044  1.0811 -0.7314
 1982TIP3    H227362   6.433   2.387   1.455 -0.0555  0.6969  0.5025
 1983TIP3   OH227363   2.121   2.158  16.154  0.3148  0.2893 -0.8378
 1983TIP3    H127364   2.179   2.186  16.225  0.3168  0.0869 -0.7578
 1983TIP3    H227365   2.179   2.130  16.084  0.3212 -0.2980 -0.6042
 1984TIP3   OH227366   0.970   3.869   3.914 -0.9568 -0.4643  0.8993
 1984TIP3    H127367   0.978   3.790   3.967 -1.3567  0.7485  2.8579
 1984TIP3    H227368   0.913   3.926   3.964 -1.0669  0.9097 -0.6941
 1985TIP3   OH227369   3.905   5.953   2.820  0.2612 -0.5190  0.1354
 1985TIP3    H127370   3.959   6.005   2.880 -0.9088 -0.3206  1.0700
 1985TIP3    H227371   3.955   5.948   2.739  1.1714  0.5825  0.6123
 1986TIP3   OH227372   0.711   4.984   3.261 -0.3459  0.0168 -0.3318
 1986TIP3    H127373   0.755   5.067   3.244  2.8773 -1.3360  0.6701
 1986TIP3    H227374   0.745   4.925   3.194 -0.6941 -1.0867  0.4390
 1987TIP3   OH227375   6.449   2.179   3.437 -0.1586  0.5630 -0.4167
 1987TIP3    H127376   6.532   2.136   3.418  0.8692  0.1927  3.7719
 1987TIP3    H227377   6.385   2.108   3.442  0.0637  0.3718 -0.2577
 1988TIP3   OH227378   3.135   2.440   6.743  0.6389  0.2350 -0.0687
 1988TIP3    H127379   3.082   2.520   6.750 -0.5195 -0.4355 -0.8350
 1988TIP3    H227380   3.129   2.401   6.830  1.3166  1.0229  0.3527
 1989TIP3   OH227381   4.859   3.515  13.475  0.2555 -0.5909  1.1325
 1989TIP3    H127382   4.820   3.440  13.431 -0.3493  0.6973 -0.6644
 1989TIP3    H227383   4.952   3.513  13.450 -0.1217  0.2364 -0.4406
 1990TIP3   OH227384   4.503   2.043   4.342 -0.6338 -0.1876  0.2095
 1990TIP3    H127385   4.459   2.022   4.424  0.1138 -0.7403  0.4789
 1990TIP3    H227386   4.490   1.966   4.286 -0.5796 -0.0804  0.0468
 1991TIP3   OH227387   4.160   6.370  16.407  0.6726 -0.1755  0.0280
 1991TIP3    H127388   4.108   6.321  16.471  1.5723 -0.5326  0.5095
 1991TIP3    H227389   4.171   6.310  16.333  0.3060 -0.0594 -0.1210
 1992TIP3   OH227390   0.082   3.944   0.887 -0.5129 -0.6999  0.1942
 1992TIP3    H127391  -0.001   3.984   0.860  0.6680  0.3691 -2.2574
 1992TIP3    H227392   0.144   4.017   0.890  1.1717 -1.8865 -2.0090
 1993TIP3   OH227393   3.454   2.140  17.208 -0.1074 -0.2322  0.2158
 1993TIP3    H127394   3.544   2.127  17.179 -0.2034 -2.1958  0.6959
 1993TIP3    H227395   3.461   2.172  17.297  0.1108  1.2962 -0.3243
 1994TIP3   OH227396   5.660   3.239  15.574  0.0434 -0.3705 -0.3000
 1994TIP3    H127397   5.701   3.270  15.654  1.0294 -0.6051 -0.6836
 1994TIP3    H227398   5.685   3.303  15.508  0.0826 -0.6985 -0.6098
 1995TIP3   OH227399   5.526   5.726   5.724 -0.2483  0.0505 -0.3723
 1995TIP3    H127400   5.459   5.779   5.768 -1.5166 -1.7002 -0.0566
 1995TIP3    H227401   5.494   5.718   5.634  0.1308  0.1413 -0.5151
 1996TIP3   OH227402   1.157   1.231   5.539 -0.2991 -0.3361 -0.0236
 1996TIP3    H127403   1.062   1.220   5.540 -0.2100 -1.1614 -0.4120
 1996TIP3    H227404   1.191   1.152   5.496  0.5065  0.3616 -0.7173
 1997TIP3   OH227405   1.330   6.176  16.778 -0.4985 -0.5151  0.6408
 1997TIP3    H127406   1.307   6.124  16.855  0.5312 -0.0461  1.2795
 1997TIP3    H227407   1.277   6.139  16.707 -1.1987 -1.1777  1.4954
 1998TIP3   OH227408   1.284   6.175   6.133  0.0758 -0.0993 -0.1690
 1998TIP3    H127409   1.376   6.161   6.153 -0.6962 -2.6863  2.3166
 1998TIP3    H227410   1.248   6.216   6.212 -0.8669  1.4807 -1.3393
 1999TIP3   OH227411   3.747   5.330  15.821 -0.4007 -0.3867 -0.2431
 1999TIP3    H127412   3.775   5.269  15.752  2.9116 -0.3052  0.8948
 1999TIP3    H227413   3.798   5.305  15.897 -0.6677  2.3712  0.9302
 2000TIP3   OH227414   4.610   1.661   1.231 -0.3102 -0.1911 -0.3056
 2000TIP3    H127415   4.579   1.585   1.182 -0.6175 -0.0028 -0.4063
 2000TIP3    H227416   4.603   1.635   1.323  3.6208 -1.9217 -0.3044
 2001TIP3   OH227417   1.979   4.027   1.050  0.6374  0.0481  0.1473
 2001TIP3    H127418   1.908   4.052   0.991  1.1066 -2.0210 -1.4245
 2001TIP3    H227419   2.004   4.109   1.093 -1.9236  1.0241 -0.0635
 2002TIP3   OH227420   2.742   3.139  10.875 -0.6996 -0.7062 -0.5851
 2002TIP3    H127421   2.754   3.152  10.969  0.6880  0.5174 -0.8987
 2002TIP3    H227422   2.648   3.121  10.865 -0.6704 -2.2007  1.1509
 2003TIP3   OH227423   0.257   0.594  15.948  0.0087  0.2242  0.0173
 2003TIP3    H127424   0.291   0.592  16.037 -1.0569  0.6221  0.4443
 2003TIP3    H227425   0.287   0.678  15.913 -1.5769  1.1720  0.8373
 2004TIP3   OH227426   0.480   5.417   5.182 -0.2439  0.3296 -0.0493
 2004TIP3    H127427   0.552   5.424   5.245  0.1201 -0.2120 -0.3909
 2004TIP3    H227428   0.402   5.438   5.232  0.0197 -0.2687  0.6361
 2005TIP3   OH227429   0.503   1.784   2.734  0.1533  0.3161 -0.1356
 2005TIP3    H127430   0.554   1.704   2.742  1.4273  1.1114  0.1579
 2005TIP3    H227431   0.412   1.755   2.731  0.6562 -1.2674 -2.1988
 2006TIP3   OH227432   3.903   3.220  12.416 -0.3435 -0.2710  0.0157
 2006TIP3    H127433   3.951   3.187  12.340  2.5721 -1.2520  2.1330
 2006TIP3    H227434   3.859   3.143  12.452  0.8806 -0.5132  1.0615
 2007TIP3   OH227435   1.792   4.302  12.897  0.3523 -0.2482  0.4755
 2007TIP3    H127436   1.829   4.390  12.901  1.4170 -0.6573 -0.0045
 2007TIP3    H227437   1.736   4.303  12.819  1.6514 -0.4426 -0.5053
 2008TIP3   OH227438   4.532   5.749   0.584  0.1415 -0.2766 -0.4418
 2008TIP3    H127439   4.519   5.681   0.518 -2.1476  0.6974 -1.1166
 2008TIP3    H227440   4.530   5.702   0.667  0.9799 -1.2789 -0.9582
 2009TIP3   OH227441   3.525   6.355  16.134 -0.1723 -0.3249  0.0145
 2009TIP3    H127442   3.498   6.267  16.162  1.5982 -0.3754  1.8367
 2009TIP3    H227443   3.449   6.410  16.151 -1.0576 -1.3700 -0.4558
 2010TIP3   OH227444   2.604   0.941  16.942 -0.7390  0.2153 -0.1930
 2010TIP3    H127445   2.575   0.851  16.930 -1.9060  0.3424  1.3153
 2010TIP3    H227446   2.674   0.953  16.878 -1.2559 -1.4296 -1.1152
 2011TIP3   OH227447   0.641   5.913  15.586  0.3580  0.0522 -0.1570
 2011TIP3    H127448   0.672   5.885  15.500  2.0366 -2.0279  1.0280
 2011TIP3    H227449   0.653   6.008  15.587  2.2265 -0.1205 -1.5276
 2012TIP3   OH227450   0.401   1.526  12.650  0.2043 -0.0731 -0.5119
 2012TIP3    H127451   0.341   1.507  12.579  0.0741 -0.4480 -0.3020
 2012TIP3    H227452   0.440   1.441  12.673 -1.7482 -0.4945  1.6714
 2013TIP3   OH227453   6.020   2.440  15.858  0.1291  0.5066  0.0459
 2013TIP3    H127454   5.928   2.459  15.837  0.6750  0.8424 -2.4334
 2013TIP3    H227455   6.034   2.352  15.823  1.0183  0.9201 -0.6813
 2014TIP3   OH227456   6.354   1.736   5.158  0.0882 -0.1555 -0.0351
 2014TIP3    H127457   6.297   1.706   5.086  0.0968 -1.6152  0.5380
 2014TIP3    H227458   6.326   1.826   5.174 -1.3089 -0.4780 -0.5175
 2015TIP3   OH227459   4.379   6.427   4.682 -0.0702  0.1799 -0.0194
 2015TIP3    H127460   4.287   6.426   4.657 -0.2745 -3.6898  0.2895
 2015TIP3    H227461   4.388   6.506   4.735 -3.2131  0.6377  0.0484
 2016TIP3   OH227462   0.973   2.480  17.365  0.7679  0.6085 -0.3554
 2016TIP3    H127463   0.949   2.393  17.399 -0.3784  1.4203  1.0084
 2016TIP3    H227464   1.041   2.462  17.301  2.0044 -1.1765  1.3285
 2017TIP3   OH227465   3.613   2.970   1.190 -0.3342 -0.2806 -0.3539
 2017TIP3    H127466   3.563   3.048   1.166 -0.6513 -0.8142 -1.4584
 2017TIP3    H227467   3.547   2.904   1.210 -0.1051 -0.9284 -1.6216
 2018TIP3   OH227468   1.925   1.053  14.491  0.0884 -0.5422 -0.0209
 2018TIP3    H127469   1.917   1.114  14.418  0.7788  1.0695  1.1906
 2018TIP3    H227470   1.840   1.058  14.535 -0.1937 -1.2177 -0.4797
 2019TIP3   OH227471   1.502   2.067   3.516 -0.1806  0.0492  0.0938
 2019TIP3    H127472   1.453   2.029   3.444 -0.0713  1.5106 -0.7794
 2019TIP3    H227473   1.481   2.011   3.591 -0.0311 -1.6895 -1.1141
 2020TIP3   OH227474   4.298   1.860  13.240  0.1577 -0.1211  0.4931
 2020TIP3    H127475   4.257   1.865  13.326  0.7355  0.1130  0.7620
 2020TIP3    H227476   4.362   1.931  13.239  0.0154  0.0091 -0.2098
 2021TIP3   OH227477   4.534   4.125   1.436 -0.1707 -0.6388  0.1349
 2021TIP3    H127478   4.586   4.106   1.359  0.9542 -0.3830  0.8065
 2021TIP3    H227479   4.586   4.092   1.509  0.1456  1.6303  1.0202
 2022TIP3   OH227480   5.145   4.532   0.610 -0.0488  0.0747  0.1424
 2022TIP3    H127481   5.112   4.612   0.568 -0.8511 -0.0011  0.6032
 2022TIP3    H227482   5.197   4.489   0.543  0.2774  0.9197 -0.1549
 2023TIP3   OH227483   0.458   4.336   2.077 -0.0034 -0.5521  0.0566
 2023TIP3    H127484   0.474   4.343   1.983  0.4725  0.3318  0.1925
 2023TIP3    H227485   0.372   4.294   2.084 -0.0906 -0.5231 -0.7705
 2024TIP3   OH227486   0.854   5.240   6.468 -0.5342 -0.1093 -0.4582
 2024TIP3    H127487   0.865   5.146   6.457 -1.4470 -0.0511 -2.1148
 2024TIP3    H227488   0.776   5.250   6.522  0.1948 -0.2791  0.6838
 2025TIP3   OH227489   2.192   0.664  15.296 -0.5090  0.0220  0.5549
 2025TIP3    H127490   2.190   0.633  15.205 -0.6546 -0.2572  0.6520
 2025TIP3    H227491   2.282   0.651  15.323 -0.6739 -0.7989  0.7544
 2026TIP3   OH227492   6.054   5.812   5.258 -0.4987  0.1776 -0.1699
 2026TIP3    H127493   6.025   5.898   5.288 -0.1130  0.3448 -0.2693
 2026TIP3    H227494   6.146   5.806   5.287 -0.3156  0.0876 -0.7616
 2027TIP3   OH227495   2.733   6.170   0.570 -0.6124  0.6360 -0.1803
 2027TIP3    H127496   2.645   6.168   0.606 -1.0564 -0.6001 -1.2866
 2027TIP3    H227497   2.760   6.079   0.565  1.2336  1.0269  1.2590
 2028TIP3   OH227498   0.935   2.453   1.115  0.3738  0.6882 -0.3100
 2028TIP3    H127499   0.937   2.548   1.119 -1.3078  0.7119  1.3965
 2028TIP3    H227500   0.848   2.429   1.148  0.6086 -1.4385 -1.0202
 2029TIP3   OH227501   3.090   0.405  13.307 -0.3052 -0.0797  0.4431
 2029TIP3    H127502   2.998   0.406  13.334 -0.4835 -0.8385 -0.0904
 2029TIP3    H227503   3.128   0.485  13.344 -1.3710  0.6495 -0.0110
 2030TIP3   OH227504   3.480   0.185   2.842 -1.1774 -0.3119 -0.4536
 2030TIP3    H127505   3.444   0.099   2.820 -0.7083 -1.2165  2.0012
 2030TIP3    H227506   3.410   0.230   2.888 -0.9306  0.0352 -0.4121
 2031TIP3   OH227507   6.448   0.326   2.772 -0.0525 -0.5553  0.0076
 2031TIP3    H127508   6.370   0.332   2.827  0.5583 -2.1911  1.1361
 2031TIP3    H227509   6.467   0.232   2.767  1.5214 -0.2377 -0.6926
 2032TIP3   OH227510   2.190   6.704  13.151 -0.0755  0.0061  0.4796
 2032TIP3    H127511   2.255   6.775  13.150  0.0840 -0.0824  1.7835
 2032TIP3    H227512   2.232   6.635  13.203 -0.5961 -0.6786  0.0052
 2033TIP3   OH227513   6.730   1.244   5.401 -0.5426  0.3926  0.5338
 2033TIP3    H127514   6.749   1.163   5.448 -0.4858  0.8509  1.3196
 2033TIP3    H227515   6.686   1.216   5.321  2.2662 -0.6594 -0.7919
 2034TIP3   OH227516   0.740   1.498  17.350  0.1717  0.1997 -0.3793
 2034TIP3    H127517   0.694   1.436  17.293  3.1043 -1.9151 -0.6917
 2034TIP3    H227518   0.727   1.463  17.438  0.2597  0.2494 -0.3468
 2035TIP3   OH227519   5.460   4.440  15.668  0.4494  0.1634 -0.6676
 2035TIP3    H127520   5.475   4.438  15.763  0.5822  0.1102 -0.6905
 2035TIP3    H227521   5.547   4.435  15.630  0.3197 -1.1276 -0.8190
 2036TIP3   OH227522   3.552   4.002   1.816  0.2270  0.2073 -0.2955
 2036TIP3    H127523   3.563   4.083   1.766  2.7050 -1.2154 -2.2629
 2036TIP3    H227524   3.503   3.945   1.757  0.2985 -0.4283  0.2536
 2037TIP3   OH227525   1.843   6.197   5.494  0.1505  0.3259  0.7221
 2037TIP3    H127526   1.914   6.195   5.430  0.2169  0.9021  0.7733
 2037TIP3    H227527   1.780   6.260   5.459 -0.3676 -0.2190  0.6497
 2038TIP3   OH227528   1.754   3.017  11.471  0.3430 -0.2736  0.1090
 2038TIP3    H127529   1.826   3.021  11.535 -0.3588  0.0647  0.9045
 2038TIP3    H227530   1.737   3.109  11.449  1.2428 -0.4277 -1.3601
 2039TIP3   OH227531   1.761   2.236  12.922  0.1597 -0.1289  0.4006
 2039TIP3    H127532   1.775   2.330  12.934 -1.4270  0.0186  1.3434
 2039TIP3    H227533   1.759   2.224  12.827  0.3893  0.7795  0.2700
 2040TIP3   OH227534   3.276   5.524   2.683  0.0077 -0.0097  0.0195
 2040TIP3    H127535   3.204   5.483   2.731  1.5924 -2.3907  0.5674
 2040TIP3    H227536   3.277   5.614   2.714 -1.4231 -0.4702  1.5798
 2041TIP3   OH227537   4.404   0.609   5.413  0.5865 -0.5362  0.5158
 2041TIP3    H127538   4.488   0.654   5.417  1.2214 -1.6241 -0.1240
 2041TIP3    H227539   4.371   0.611   5.503  1.2794 -0.0780  0.7649
 2042TIP3   OH227540   3.153   1.595  12.426 -0.0096  0.4681 -0.0628
 2042TIP3    H127541   3.166   1.647  12.505  1.4011  0.3819 -0.2063
 2042TIP3    H227542   3.184   1.651  12.355 -0.5906  0.2733 -0.4784
 2043TIP3   OH227543   1.653   1.780   1.389 -0.4320 -0.4229  0.0102
 2043TIP3    H127544   1.644   1.740   1.476 -0.7174  0.9409  0.6360
 2043TIP3    H227545   1.621   1.713   1.329 -0.3570 -1.3500  0.9595
 2044TIP3   OH227546   5.907   5.552   1.666  0.2472 -0.4039  0.0192
 2044TIP3    H127547   5.990   5.523   1.629  1.0496  0.3339  1.1701
 2044TIP3    H227548   5.878   5.478   1.720  1.1342  0.0234  1.1233
 2045TIP3   OH227549   1.172   6.013  13.304  0.2827  0.0164 -0.1949
 2045TIP3    H127550   1.263   6.035  13.283  0.3061 -0.5719 -0.7492
 2045TIP3    H227551   1.124   6.094  13.286  0.5763  0.0774 -0.7382
 2046TIP3   OH227552   2.160   0.805  13.179  0.3791  0.1161  0.1050
 2046TIP3    H127553   2.181   0.760  13.261 -0.1358 -0.0837  0.1309
 2046TIP3    H227554   2.068   0.785  13.164  0.6171 -0.3308 -0.8295
 2047TIP3   OH227555   4.165   2.494   5.664  0.2952 -0.0742  0.6754
 2047TIP3    H127556   4.173   2.538   5.580  0.0697  1.0938  1.2510
 2047TIP3    H227557   4.103   2.547   5.714  1.2184 -0.1426  1.9574
 2048TIP3   OH227558   3.410   0.905  11.838  0.0973 -0.0665  0.3714
 2048TIP3    H127559   3.439   0.832  11.783  1.0536 -0.2983  1.1589
 2048TIP3    H227560   3.322   0.881  11.864  0.2693 -0.7771  0.3336
 2049TIP3   OH227561   0.493   6.090   4.767  0.2146 -0.0507  0.1303
 2049TIP3    H127562   0.551   6.166   4.759 -0.3602  0.2557 -1.5131
 2049TIP3    H227563   0.542   6.018   4.726  1.1826 -0.8840  2.5626
 2050TIP3   OH227564   1.647   2.486   1.631  0.0769 -0.3676  0.1062
 2050TIP3    H127565   1.678   2.427   1.700 -2.9017  0.8314  2.7245
 2050TIP3    H227566   1.587   2.433   1.579  1.8165 -1.0921 -1.2482
 2051TIP3   OH227567   3.513   4.795   2.910  0.2826  0.3121  0.0388
 2051TIP3    H127568   3.436   4.821   2.860 -0.3675 -0.3871  0.6579
 2051TIP3    H227569   3.581   4.783   2.844 -0.0601  1.1659 -0.4927
 2052TIP3   OH227570   5.533   3.088   0.808  0.2757  0.1717  0.2823
 2052TIP3    H127571   5.465   3.116   0.747  0.7273 -1.5498 -1.0842
 2052TIP3    H227572   5.613   3.085   0.755  0.6601 -1.4792  0.8934
 2053TIP3   OH227573   1.071   0.416   3.594 -0.0418  0.2063 -0.5492
 2053TIP3    H127574   1.001   0.412   3.529 -0.3220 -3.0833 -0.2230
 2053TIP3    H227575   1.151   0.430   3.542 -0.5033 -0.1436 -1.3776
 2054TIP3   OH227576   6.442   6.477   4.860  0.7142  0.5095 -1.0882
 2054TIP3    H127577   6.448   6.571   4.847 -1.4610  0.9652  0.5371
 2054TIP3    H227578   6.467   6.464   4.951 -2.3022  0.0886 -0.1903
 2055TIP3   OH227579   0.284   3.838   1.028 -0.3538 -0.3047  0.1469
 2055TIP3    H127580   0.204   3.867   0.984 -1.6756 -1.7844  1.4228
 2055TIP3    H227581   0.289   3.744   1.009  0.5267 -0.4318  0.9131
 2056TIP3   OH227582   4.787   2.803  14.094 -0.2524  0.2218 -0.1532
 2056TIP3    H127583   4.736   2.722  14.081  1.3981 -0.6392 -1.8299
 2056TIP3    H227584   4.860   2.776  14.149 -0.9824  1.1868  1.3251
 2057TIP3   OH227585   0.118   3.088  15.310  0.1417 -0.2892  1.0761
 2057TIP3    H127586   0.067   3.012  15.338  0.8486 -1.4521 -0.6334
 2057TIP3    H227587   0.167   3.058  15.234  2.8677  0.9728  2.1888
 2058TIP3   OH227588   2.242   5.090   3.339 -0.1125 -0.1185 -1.0874
 2058TIP3    H127589   2.336   5.108   3.347 -0.1604  0.8537 -2.4375
 2058TIP3    H227590   2.202   5.176   3.336 -1.0932 -0.5318 -0.3398
 2059TIP3   OH227591   4.419   2.657  16.263 -0.4458  0.4084 -0.1165
 2059TIP3    H127592   4.454   2.734  16.309 -0.3934  0.3351 -0.0340
 2059TIP3    H227593   4.337   2.687  16.224  0.0343  0.7753 -0.8733
 2060TIP3   OH227594   2.346   3.600   4.531  0.3936 -0.3831 -0.3930
 2060TIP3    H127595   2.254   3.625   4.527  0.5296  0.1946  0.0790
 2060TIP3    H227596   2.393   3.681   4.551  0.6752 -1.2883  3.1522
 2061TIP3   OH227597   6.435   4.532  11.578 -0.0001 -0.2609 -0.5398
 2061TIP3    H127598   6.517   4.485  11.562  0.1855 -0.0710 -0.1454
 2061TIP3    H227599   6.427   4.591  11.503  0.3529 -0.1007 -0.4535
 2062TIP3   OH227600   0.599   1.574  11.087 -0.5254 -0.0417 -0.0691
 2062TIP3    H127601   0.509   1.596  11.112 -0.5994  1.1011 -1.2055
 2062TIP3    H227602   0.597   1.574  10.991  0.6552 -0.1046 -0.1053
 2063TIP3   OH227603   4.278   3.891   4.700  1.0899 -0.2428  0.0397
 2063TIP3    H127604   4.202   3.948   4.706  1.7785  0.9813 -1.7847
 2063TIP3    H227605   4.244   3.803   4.714 -1.2768 -0.1059 -3.6205
 2064TIP3   OH227606   6.416   3.444  16.078 -0.0959 -0.6781  0.0839
 2064TIP3    H127607   6.332   3.414  16.043  0.2228  0.7172 -2.0831
 2064TIP3    H227608   6.434   3.386  16.152 -2.6344 -1.4196  0.1913
 2065TIP3   OH227609   0.285   3.579   0.970  0.0266  0.0127  0.0128
 2065TIP3    H127610   0.209   3.549   0.921  0.9396 -2.3803 -0.0690
 2065TIP3    H227611   0.360   3.550   0.918  1.0141  0.9590  0.8553
 2066TIP3   OH227612   0.682   6.014  11.900  0.1638  0.4320  0.1921
 2066TIP3    H127613   0.776   6.016  11.918  0.3281  0.1503 -0.6157
 2066TIP3    H227614   0.659   5.921  11.900 -0.3379  0.5337  1.4623
 2067TIP3   OH227615   4.849   3.365  10.385  0.5191  0.2170 -0.0103
 2067TIP3    H127616   4.806   3.449  10.367 -0.2428 -0.1390  0.1115
 2067TIP3    H227617   4.919   3.387  10.445 -0.3524  0.6246  0.8867
 2068TIP3   OH227618   2.234   4.922   2.168  1.0015 -0.3393  0.4285
 2068TIP3    H127619   2.242   4.863   2.094 -1.0884 -0.4749  0.2543
 2068TIP3    H227620   2.207   5.006   2.130 -0.1918 -0.4349  1.0145
 2069TIP3   OH227621   4.601   1.572   2.135 -0.5220 -0.0901 -0.2593
 2069TIP3    H127622   4.621   1.485   2.100 -0.3813 -0.5076  0.8107
 2069TIP3    H227623   4.599   1.559   2.230 -0.3784  1.1087 -0.0849
 2070TIP3   OH227624   2.944   0.766  16.639 -0.8786 -0.0112  0.2872
 2070TIP3    H127625   2.922   0.763  16.546 -1.1959 -1.6504  0.3784
 2070TIP3    H227626   2.908   0.685  16.674 -0.5208  0.4568  1.7918
 2071TIP3   OH227627   5.146   5.177  12.218  0.4367  0.6600  0.2911
 2071TIP3    H127628   5.210   5.204  12.153  0.2521 -0.6152 -0.4532
 2071TIP3    H227629   5.197   5.127  12.282  0.1082 -1.1402 -0.7759
 2072TIP3   OH227630   3.191   0.411  16.198 -0.2192  0.4728 -0.5278
 2072TIP3    H127631   3.206   0.318  16.211  0.3345  0.6738  0.4190
 2072TIP3    H227632   3.267   0.453  16.239 -0.9075  1.3641 -0.1344
 2073TIP3   OH227633   3.378   4.694   5.668  0.1924 -0.3734 -0.3885
 2073TIP3    H127634   3.459   4.643   5.671  1.6951  1.8791 -0.5678
 2073TIP3    H227635   3.329   4.657   5.595  1.0691 -1.7617 -0.3014
 2074TIP3   OH227636   1.482   0.991   2.451  0.4090 -0.0169  0.5309
 2074TIP3    H127637   1.495   0.998   2.546  2.3902 -1.4072  0.4337
 2074TIP3    H227638   1.388   1.005   2.438  0.3790  2.1259  2.4661
 2075TIP3   OH227639   0.407   4.582  13.138  0.4695  0.4017 -0.0942
 2075TIP3    H127640   0.395   4.592  13.043  0.2367  1.6498  0.0496
 2075TIP3    H227641   0.321   4.601  13.175  0.4312 -0.5862  0.3499
 2076TIP3   OH227642   0.192   5.340  12.125  0.0396  0.1229 -0.2260
 2076TIP3    H127643   0.180   5.345  12.220 -0.5039 -0.4805 -0.2554
 2076TIP3    H227644   0.109   5.372  12.089 -0.4711 -1.4347 -0.4719
 2077TIP3   OH227645   5.933   0.192  11.757  0.1686  0.8390  0.0527
 2077TIP3    H127646   5.915   0.113  11.808 -1.0938  1.8349  1.2427
 2077TIP3    H227647   5.870   0.189  11.684  0.8706  0.2241 -0.5440
 2078TIP3   OH227648   4.458   0.822   0.981  0.0489 -0.4638 -0.2071
 2078TIP3    H127649   4.467   0.837   0.887 -0.8577  1.2523 -0.0569
 2078TIP3    H227650   4.386   0.759   0.989  0.3035 -0.8148 -0.6652
 2079TIP3   OH227651   2.722   4.848   2.450 -0.0569 -0.4739 -0.3949
 2079TIP3    H127652   2.675   4.765   2.461 -2.2284  0.4748 -1.9445
 2079TIP3    H227653   2.655   4.915   2.457  1.4069  1.0853 -0.7303
 2080TIP3   OH227654   2.104   4.700  14.702  0.1212 -0.2563 -0.6294
 2080TIP3    H127655   2.115   4.767  14.770  0.2630 -1.5193  0.6408
 2080TIP3    H227656   2.186   4.651  14.703 -0.7413 -1.7569 -0.0324
 2081TIP3   OH227657   4.390   0.613  11.708  0.1791 -0.2983 -0.0974
 2081TIP3    H127658   4.436   0.696  11.720 -0.7773  0.3389 -0.7358
 2081TIP3    H227659   4.368   0.585  11.797 -2.5475  1.9183  0.0778
 2082TIP3   OH227660   2.196   1.327   2.375  0.4107 -0.1796  0.1473
 2082TIP3    H127661   2.157   1.249   2.336 -0.6803  0.8587 -0.9329
 2082TIP3    H227662   2.128   1.394   2.369  2.0932  1.5328 -1.2007
 2083TIP3   OH227663   1.856   6.258   4.877 -0.1600 -0.5024 -0.0459
 2083TIP3    H127664   1.834   6.351   4.871 -1.2870 -0.7774 -0.3958
 2083TIP3    H227665   1.914   6.243   4.802 -1.3126 -0.4298 -0.9764
 2084TIP3   OH227666   1.063   2.967   3.879  0.8172  0.6341 -0.1611
 2084TIP3    H127667   1.088   2.932   3.964 -0.8936  2.7352  1.3225
 2084TIP3    H227668   0.981   3.014   3.896 -1.3939 -1.5296 -3.6323
 2085TIP3   OH227669   6.018   1.651  12.327  0.4768  0.2621  0.0043
 2085TIP3    H127670   6.108   1.676  12.305  0.8973 -0.2328  1.1016
 2085TIP3    H227671   5.976   1.734  12.351  0.5651  0.5241 -0.6953
 2086TIP3   OH227672   3.264   5.417   3.030  0.0865  0.6574 -0.0078
 2086TIP3    H127673   3.171   5.416   3.049  0.1360  1.5099  0.3307
 2086TIP3    H227674   3.283   5.330   2.996 -0.6065  0.0800  1.0268
 2087TIP3   OH227675   5.506   3.710  16.225 -0.4792 -0.3572 -0.4121
 2087TIP3    H127676   5.572   3.655  16.267  1.5129  2.2685  0.1992
 2087TIP3    H227677   5.429   3.701  16.280 -0.1962 -2.3891 -0.2840
 2088TIP3   OH227678   1.185   0.435  11.078  0.7175  0.0562  0.3758
 2088TIP3    H127679   1.106   0.484  11.054  0.6058  0.2295  1.0733
 2088TIP3    H227680   1.249   0.459  11.012 -0.6829 -2.5066 -2.1378
 2089TIP3   OH227681   0.228   1.407  12.020 -0.0526  0.6969 -0.5666
 2089TIP3    H127682   0.199   1.391  11.930  0.4319  2.0667 -0.9883
 2089TIP3    H227683   0.206   1.499  12.037 -1.1954  0.1500  1.1366
 2090TIP3   OH227684   0.269   2.895   2.685  0.7243 -0.3218  0.2988
 2090TIP3    H127685   0.339   2.858   2.632  1.8245  2.2980 -0.2609
 2090TIP3    H227686   0.313   2.934   2.761 -0.4417 -0.8438  1.2986
 2091TIP3   OH227687   5.708   3.603  15.731  0.1695 -0.1801  0.2156
 2091TIP3    H127688   5.676   3.685  15.693  1.3081  0.0004 -0.4114
 2091TIP3    H227689   5.723   3.624  15.824 -0.0010  0.1863  0.1631
 2092TIP3   OH227690   4.139   1.659  11.452  0.2063 -0.6475  0.7495
 2092TIP3    H127691   4.074   1.601  11.492  1.0898 -1.0520  1.6638
 2092TIP3    H227692   4.213   1.657  11.514  0.7229  0.5053  0.1887
 2093TIP3   OH227693   5.274   3.977   3.967 -0.3308  0.2173  0.1366
 2093TIP3    H127694   5.216   3.905   3.941 -1.3562  1.6143 -1.6625
 2093TIP3    H227695   5.217   4.040   4.010  0.4379  0.3174  1.0521
 2094TIP3   OH227696   4.949   2.746   5.969 -0.6320  0.5210 -0.1760
 2094TIP3    H127697   4.941   2.838   5.943  2.4162  1.2340  1.0252
 2094TIP3    H227698   4.955   2.748   6.065  1.3224 -0.7103 -0.2268
 2095TIP3   OH227699   1.566   3.489   5.902 -0.0425 -0.4840 -0.5216
 2095TIP3    H127700   1.569   3.580   5.932  1.4590 -0.7420  0.2217
 2095TIP3    H227701   1.571   3.437   5.982  0.6503 -1.2079 -1.0147
 2096TIP3   OH227702   2.534   5.508  15.148 -0.5764 -0.8655  0.2332
 2096TIP3    H127703   2.542   5.445  15.220  0.4087 -0.7852  0.2133
 2096TIP3    H227704   2.465   5.473  15.092 -1.1528 -1.0881  1.0518
 2097TIP3   OH227705   3.903   2.313  12.519  0.0989 -0.1061 -0.4316
 2097TIP3    H127706   3.832   2.333  12.457 -0.9045 -0.4009  0.5843
 2097TIP3    H227707   3.879   2.227  12.555  0.6166  0.0957  0.4170
 2098TIP3   OH227708   2.174   6.681   1.216  0.0438 -0.3433  0.5793
 2098TIP3    H127709   2.197   6.771   1.238  2.0084 -0.3146 -1.1577
 2098TIP3    H227710   2.212   6.629   1.286 -0.6787  0.1232  1.3392
 2099TIP3   OH227711   2.245   3.058   1.768  0.4923  1.1693 -0.1023
 2099TIP3    H127712   2.316   3.013   1.813  0.3472 -0.7401 -1.6442
 2099TIP3    H227713   2.278   3.073   1.679 -0.1055  2.6164 -0.1106
 2100TIP3   OH227714   1.863   4.392  11.102 -0.2925 -0.0845 -0.1864
 2100TIP3    H127715   1.949   4.370  11.066 -0.4035 -1.1162  0.1416
 2100TIP3    H227716   1.872   4.482  11.132  0.4678  0.0470 -0.7679
 2101TIP3   OH227717   1.228   6.275   0.539 -0.5820 -0.5198  0.2661
 2101TIP3    H127718   1.263   6.268   0.451 -2.1243 -1.3528 -0.3170
 2101TIP3    H227719   1.220   6.369   0.555 -0.4348 -0.3720 -0.5213
 2102TIP3   OH227720   5.826   2.866  14.188  0.3870  0.2575 -0.2170
 2102TIP3    H127721   5.893   2.850  14.255  2.3693  1.2094 -1.8521
 2102TIP3    H227722   5.823   2.785  14.137  0.2000  0.1671 -0.0613
 2103TIP3   OH227723   6.154   3.808  11.357 -0.2607  0.2569  0.8584
 2103TIP3    H127724   6.075   3.757  11.369 -1.2763  1.9073  1.4624
 2103TIP3    H227725   6.156   3.828  11.263  1.0792 -2.2326  0.2520
 2104TIP3   OH227726   0.122   4.020  13.998 -0.0276  0.0611  0.4356
 2104TIP3    H127727   0.043   3.996  14.046  0.3432 -1.2985  0.4057
 2104TIP3    H227728   0.112   3.977  13.913  0.0059  1.2282 -0.1774
 2105TIP3   OH227729   3.481   6.512  14.676  0.3968  0.2016 -0.1992
 2105TIP3    H127730   3.417   6.470  14.620  0.0180  1.4568 -0.7316
 2105TIP3    H227731   3.563   6.508  14.626  0.2882  0.3801 -0.3945
 2106TIP3   OH227732   4.266   4.819  11.531 -0.6006  0.3432 -0.1334
 2106TIP3    H127733   4.266   4.891  11.594  1.2843  0.3522 -0.1024
 2106TIP3    H227734   4.352   4.823  11.489 -1.2785 -0.5584 -1.6907
 2107TIP3   OH227735   0.147   1.833   3.392  0.5961  0.2795 -0.0404
 2107TIP3    H127736   0.084   1.762   3.374  2.2139 -1.1920 -0.1420
 2107TIP3    H227737   0.142   1.889   3.314  1.7928 -1.6916 -1.6676
 2108TIP3   OH227738   6.124   3.043  11.798  0.0387 -0.1780 -0.4222
 2108TIP3    H127739   6.087   3.085  11.721 -1.2796 -2.8375 -1.3791
 2108TIP3    H227740   6.152   2.957  11.767 -1.9680 -1.9705  2.2666
 2109TIP3   OH227741   0.376   4.779  16.338  0.0982 -0.6557  0.1309
 2109TIP3    H127742   0.330   4.721  16.398 -0.3282  0.2618  0.7008
 2109TIP3    H227743   0.370   4.735  16.253 -1.1586 -0.9209  0.3409
 2110TIP3   OH227744   4.967   2.052   0.025 -0.8736  0.2382  0.0702
 2110TIP3    H127745   4.938   2.033   0.114  0.3365 -0.8097  0.2574
 2110TIP3    H227746   5.049   2.101   0.036 -0.4605 -0.3192 -0.4604
 2111TIP3   OH227747   3.205   5.958  12.388 -0.1456  0.3348  0.2907
 2111TIP3    H127748   3.195   5.862  12.391 -0.1906  0.3006 -0.6529
 2111TIP3    H227749   3.273   5.972  12.323  0.0030  0.9449  0.5769
 2112TIP3   OH227750   3.843   2.099   2.592  0.2196 -0.8514  0.9431
 2112TIP3    H127751   3.770   2.162   2.589  1.1994  0.3871 -2.7103
 2112TIP3    H227752   3.811   2.024   2.542  1.4137 -0.1805 -0.9397
 2113TIP3   OH227753   3.818   5.699  14.368  0.4743 -0.2859 -0.0026
 2113TIP3    H127754   3.899   5.750  14.376  0.5396 -0.3536 -0.2099
 2113TIP3    H227755   3.807   5.687  14.273  0.6629 -0.9834  0.0582
 2114TIP3   OH227756   4.795   5.914   1.401 -0.4488 -0.0106  0.1762
 2114TIP3    H127757   4.713   5.865   1.394  0.2343 -1.0337 -1.0773
 2114TIP3    H227758   4.808   5.953   1.315 -0.7689  2.1158  1.0251
 2115TIP3   OH227759   1.492   5.163  14.804  0.2210 -0.1361  0.0625
 2115TIP3    H127760   1.574   5.184  14.759 -0.1129  1.1518  0.0110
 2115TIP3    H227761   1.516   5.095  14.867  1.5297  0.8084  0.6457
 2116TIP3   OH227762   6.341   3.923  12.955  0.1369  0.0966  0.1987
 2116TIP3    H127763   6.368   3.988  13.020  0.3367  0.8037 -0.5853
 2116TIP3    H227764   6.248   3.907  12.974  0.2159  0.2300  0.7116
 2117TIP3   OH227765   3.387   1.711  12.014  0.7731  0.2306 -0.0407
 2117TIP3    H127766   3.293   1.723  12.024  0.6090 -1.4009  0.7033
 2117TIP3    H227767   3.426   1.794  12.042 -0.3597  0.3002  1.4272
 2118TIP3   OH227768   1.623   1.623   0.754 -0.4136  0.3632  0.3197
 2118TIP3    H127769   1.613   1.713   0.786 -4.2526  0.2029  0.0845
 2118TIP3    H227770   1.558   1.573   0.803 -1.8490 -1.2346 -2.9041
 2119TIP3   OH227771   3.923   0.897  14.809  0.4670 -0.1157 -0.0974
 2119TIP3    H127772   3.929   0.888  14.904 -1.7908  1.1814  0.2561
 2119TIP3    H227773   4.013   0.917  14.781  1.3125 -1.2265  1.6380
 2120TIP3   OH227774   1.115   4.297  12.974  0.0775  0.5513 -0.7276
 2120TIP3    H127775   1.067   4.257  13.045  1.5048  2.8885  1.7467
 2120TIP3    H227776   1.048   4.321  12.909 -1.4510 -0.3614  0.4743
 2121TIP3   OH227777   5.116   2.731   2.931 -0.2273 -0.2499  0.0298
 2121TIP3    H127778   5.097   2.644   2.896 -1.2411 -0.0347  0.0302
 2121TIP3    H227779   5.109   2.789   2.855 -1.3006  0.0666  0.3638
 2122TIP3   OH227780   5.590   2.044  15.754 -0.0293 -0.3869  0.1768
 2122TIP3    H127781   5.540   2.124  15.771 -1.7095 -0.4905 -3.5016
 2122TIP3    H227782   5.530   1.973  15.778  0.3480 -0.5648  0.6134
 2123TIP3   OH227783   0.704   2.717  12.686 -0.2312 -0.4049 -0.3564
 2123TIP3    H127784   0.741   2.787  12.632 -0.1470 -0.6016 -0.5599
 2123TIP3    H227785   0.724   2.637  12.637  0.8645 -0.6950  0.5175
 2124TIP3   OH227786   3.440   5.704  16.352 -0.1920 -0.2970  0.0416
 2124TIP3    H127787   3.456   5.639  16.420  0.6286 -2.1042 -1.7926
 2124TIP3    H227788   3.460   5.788  16.394 -0.3547 -1.2626  2.1953
 2125TIP3   OH227789   3.991   0.099  15.647  0.7973  0.1019 -0.1523
 2125TIP3    H127790   4.007   0.167  15.581  0.9565 -2.4384 -2.9541
 2125TIP3    H227791   3.898   0.078  15.636  0.9619 -0.7364  0.0138
 2126TIP3   OH227792   5.357   0.645   4.504  0.2157  0.4314  0.7535
 2126TIP3    H127793   5.354   0.739   4.487  0.7608  0.3760  0.3208
 2126TIP3    H227794   5.441   0.616   4.468  1.5574  0.3326  3.6672
 2127TIP3   OH227795   1.239   4.126  16.812  0.3011 -0.2403  0.1930
 2127TIP3    H127796   1.291   4.170  16.745  1.4991 -1.5883  0.2024
 2127TIP3    H227797   1.239   4.034  16.786 -2.4109 -0.2570  0.0112
 2128TIP3   OH227798   0.295   2.637   1.151  0.2189 -0.0738 -0.3110
 2128TIP3    H127799   0.352   2.668   1.080  0.2200  0.3787 -0.1140
 2128TIP3    H227800   0.207   2.652   1.119  0.2185  1.0539  0.1752
 2129TIP3   OH227801   1.520   4.950  16.840  0.1378 -0.3694  0.0368
 2129TIP3    H127802   1.452   4.930  16.776 -1.5772  1.4278  1.1783
 2129TIP3    H227803   1.478   5.011  16.901  2.3754 -0.2751  1.5938
 2130TIP3   OH227804   6.555   5.540  12.586  0.2973  0.5401  0.1063
 2130TIP3    H127805   6.559   5.627  12.626  2.1839  0.2543  0.6382
 2130TIP3    H227806   6.605   5.549  12.505 -1.5674  0.5269 -1.1052
 2131TIP3   OH227807   0.051   6.460  11.021  0.8977  0.0245  0.1129
 2131TIP3    H127808  -0.033   6.493  10.988  0.6058  0.0693  0.8759
 2131TIP3    H227809   0.091   6.535  11.065  1.1633 -0.1027  0.0902
 2132TIP3   OH227810   1.400   1.765  17.266  0.6231 -0.6572 -0.3792
 2132TIP3    H127811   1.340   1.691  17.278  0.5147 -1.0385 -2.8977
 2132TIP3    H227812   1.346   1.842  17.283  0.4365 -1.0708  1.0852
 2133TIP3   OH227813   1.164   1.409   4.978 -0.0246  0.0253 -0.5473
 2133TIP3    H127814   1.196   1.421   5.068 -0.4017 -0.6109 -0.3229
 2133TIP3    H227815   1.084   1.462   4.974  0.5632  0.9118 -0.8418
 2134TIP3   OH227816   0.304   0.060   0.959 -0.2214  0.5674  0.0219
 2134TIP3    H127817   0.390   0.036   0.923  0.0000  1.5602 -0.1668
 2134TIP3    H227818   0.273   0.130   0.901 -0.6561  0.9796  0.7331
 2135TIP3   OH227819   5.735   1.127   2.227  0.0050 -0.0498 -0.1050
 2135TIP3    H127820   5.705   1.048   2.184 -1.4300  0.1239  0.5193
 2135TIP3    H227821   5.830   1.125   2.218  0.0374 -2.0915  0.3408
 2136TIP3   OH227822   5.451   5.902   4.024  0.0328  0.0546 -0.0897
 2136TIP3    H127823   5.456   5.997   4.030 -1.1007  0.0737  0.8853
 2136TIP3    H227824   5.375   5.878   4.078 -0.8579 -1.2420 -1.8021
 2137TIP3   OH227825   5.415   3.067  11.818 -0.1336  0.5104 -0.1230
 2137TIP3    H127826   5.506   3.097  11.811  0.2519 -0.5969 -0.0389
 2137TIP3    H227827   5.408   3.034  11.908 -0.3761 -0.1602 -0.3842
 2138TIP3   OH227828   2.248   3.388  14.369  0.4615  0.0824 -0.5196
 2138TIP3    H127829   2.311   3.374  14.298  0.1231  1.3265 -1.0798
 2138TIP3    H227830   2.289   3.346  14.445  1.3988 -0.1986 -1.1586
 2139TIP3   OH227831   2.103   4.149   2.159  0.4381  0.2718  0.2586
 2139TIP3    H127832   2.152   4.212   2.106 -0.2910  1.2326  0.6821
 2139TIP3    H227833   2.121   4.176   2.250  0.0483 -0.0909  0.4455
 2140TIP3   OH227834   2.104   5.798  12.348 -0.5614  0.2091 -0.4669
 2140TIP3    H127835   2.169   5.763  12.288  0.4668  2.0092 -0.4915
 2140TIP3    H227836   2.059   5.721  12.383  2.4462 -1.2465  0.5571
 2141TIP3   OH227837   3.271   2.196  16.830  0.6212  0.3099  0.0558
 2141TIP3    H127838   3.222   2.247  16.893  1.4146  1.1869 -0.0107
 2141TIP3    H227839   3.332   2.259  16.790  1.9242 -0.7524  0.2794
 2142TIP3   OH227840   3.888   5.827  13.659 -0.6480 -0.2773 -0.0615
 2142TIP3    H127841   3.937   5.792  13.733 -2.1504 -0.3808  0.9199
 2142TIP3    H227842   3.936   5.906  13.634  0.0679 -0.4201  0.8165
 2143TIP3   OH227843   2.770   3.112  12.922  0.1570 -0.4490  0.1975
 2143TIP3    H127844   2.696   3.107  12.862  0.5542 -0.2403 -0.3203
 2143TIP3    H227845   2.737   3.161  12.997 -0.0283  0.2899 -0.3540
 2144TIP3   OH227846   4.168   6.415   2.256  0.0416  0.0528 -0.4373
 2144TIP3    H127847   4.227   6.486   2.233 -0.3821  0.6302  0.2050
 2144TIP3    H227848   4.225   6.340   2.272  0.3948 -0.2086 -2.6399
 2145TIP3   OH227849   2.808   6.610   1.444  0.1217  0.3393 -0.6724
 2145TIP3    H127850   2.736   6.554   1.474 -0.2558 -0.8984 -3.5622
 2145TIP3    H227851   2.768   6.696   1.433 -0.6811 -0.0831 -1.2087
 2146TIP3   OH227852   1.287   2.104  13.813  1.0969  0.0329 -0.2661
 2146TIP3    H127853   1.359   2.060  13.857  0.3080 -0.5586  0.4700
 2146TIP3    H227854   1.248   2.036  13.757 -0.3850 -0.3887  1.1902
 2147TIP3   OH227855   2.941   1.499   3.176 -0.3203  0.1156  0.5013
 2147TIP3    H127856   2.898   1.579   3.147  0.0658 -0.5123 -2.0789
 2147TIP3    H227857   3.026   1.500   3.131 -0.6306 -2.0692 -0.2762
 2148TIP3   OH227858   4.556   2.993  14.133  0.2361  0.4687 -0.3871
 2148TIP3    H127859   4.509   3.054  14.190  1.5647  1.8287 -0.7125
 2148TIP3    H227860   4.642   2.984  14.173  0.2325 -0.8361 -0.6235
 2149TIP3   OH227861   4.385   5.337  15.463  0.4605  0.6041 -0.2000
 2149TIP3    H127862   4.374   5.336  15.558  1.0190  0.7846 -0.1264
 2149TIP3    H227863   4.395   5.244  15.439 -1.9844  0.3373 -0.3922
 2150TIP3   OH227864   3.643   4.364  14.592  0.4127  0.8374  0.2829
 2150TIP3    H127865   3.641   4.302  14.519  0.1934  0.1407  0.8680
 2150TIP3    H227866   3.659   4.310  14.669  1.1193  1.6260  0.6981
 2151TIP3   OH227867   1.379   3.547   1.767  0.2944  0.4928 -0.4677
 2151TIP3    H127868   1.304   3.595   1.801 -1.3163 -0.3149 -2.6654
 2151TIP3    H227869   1.370   3.459   1.803 -0.8989 -0.1061 -2.1025
 2152TIP3   OH227870   4.697   1.901   2.403  0.2371 -0.6154  0.1183
 2152TIP3    H127871   4.719   1.875   2.314  0.1929  0.8433 -0.3385
 2152TIP3    H227872   4.719   1.824   2.456 -0.4675 -1.7834 -1.2227
 2153TIP3   OH227873   4.712   3.228   2.868  0.0827  0.2646  0.2132
 2153TIP3    H127874   4.628   3.215   2.825  0.6385 -2.0341 -0.3051
 2153TIP3    H227875   4.768   3.267   2.800  0.0231 -0.2285 -0.1266
 2154TIP3   OH227876   5.339   4.496  17.344  0.2731 -0.2148 -0.0537
 2154TIP3    H127877   5.413   4.543  17.383  0.3563 -1.2654  1.1292
 2154TIP3    H227878   5.369   4.405  17.339 -0.7257 -0.5503 -0.1284
 2155TIP3   OH227879   4.644   4.594   6.633 -0.3523  0.0864  0.1546
 2155TIP3    H127880   4.671   4.664   6.575 -1.4074  0.5646  0.2102
 2155TIP3    H227881   4.550   4.583   6.615  0.0502 -2.2728 -0.8694
 2156TIP3   OH227882   6.523   4.809  16.513  0.2506  0.8705  0.6004
 2156TIP3    H127883   6.535   4.863  16.591  0.8295  0.3624  0.8715
 2156TIP3    H227884   6.572   4.729  16.532 -1.6354 -0.3169  0.7524
 2157TIP3   OH227885   3.494   4.470  13.497 -0.0680 -0.2102  1.0232
 2157TIP3    H127886   3.450   4.423  13.427  1.7288  0.9416 -0.9825
 2157TIP3    H227887   3.561   4.409  13.528  0.2166 -0.1214  0.5856
 2158TIP3   OH227888   2.778   0.501  11.180  0.6259 -0.0906  0.3107
 2158TIP3    H127889   2.807   0.450  11.255 -1.0475 -1.3839  0.1217
 2158TIP3    H227890   2.856   0.509  11.125  2.1684  1.7300  2.5638
 2159TIP3   OH227891   3.744   3.871   0.390  0.1624  0.2042 -0.3346
 2159TIP3    H127892   3.824   3.920   0.411  0.4195 -0.7857  1.2015
 2159TIP3    H227893   3.679   3.905   0.451  0.7048 -2.1840  1.7773
 2160TIP3   OH227894   3.429   2.389  17.030  0.1553 -0.2564  0.2772
 2160TIP3    H127895   3.439   2.304  17.073  0.8154 -1.9331 -2.8526
 2160TIP3    H227896   3.341   2.417  17.053  0.0869 -1.5237  1.7745
 2161TIP3   OH227897   3.621   4.902  12.693 -0.0142  0.1189 -0.6495
 2161TIP3    H127898   3.616   4.815  12.654  0.9390 -0.2998  0.1281
 2161TIP3    H227899   3.582   4.960  12.627 -0.5177 -0.8630 -1.2402
 2162TIP3   OH227900   2.612   6.685  14.933  0.1290 -0.3138 -0.1714
 2162TIP3    H127901   2.534   6.656  14.885 -0.3191  0.9501 -0.2513
 2162TIP3    H227902   2.634   6.769  14.894  2.4755 -1.3042 -1.1741
 2163TIP3   OH227903   2.568   5.241   5.459  0.2310  0.0808 -0.1378
 2163TIP3    H127904   2.479   5.207   5.447  0.6519 -1.4946  0.8766
 2163TIP3    H227905   2.580   5.242   5.554  0.3809  2.8664 -0.1041
 2164TIP3   OH227906   5.747   0.658  15.899  0.1878 -0.1476 -0.2120
 2164TIP3    H127907   5.829   0.652  15.950 -0.0998 -2.7987  0.0740
 2164TIP3    H227908   5.738   0.752  15.881  2.6622  0.3817  0.7549
 2165TIP3   OH227909   1.424   2.507   5.947 -0.5554 -0.3087 -0.1802
 2165TIP3    H127910   1.358   2.576   5.941  0.4749  1.0068  2.0843
 2165TIP3    H227911   1.442   2.499   6.041  2.7068 -0.3456 -0.6887
 2166TIP3   OH227912   6.167   3.095   3.787 -0.1634 -0.3473  0.2030
 2166TIP3    H127913   6.132   3.179   3.818 -0.4096  0.0877 -1.1901
 2166TIP3    H227914   6.200   3.113   3.699  3.2363 -0.8391  1.2458
 2167TIP3   OH227915   5.201   3.520  16.852  0.4896 -0.0518  0.4170
 2167TIP3    H127916   5.240   3.606  16.870 -0.3228  0.3384  0.3741
 2167TIP3    H227917   5.242   3.461  16.916  0.2159  0.6103  1.2194
 2168TIP3   OH227918   2.968   0.650   6.000 -0.7446 -0.3435  0.6762
 2168TIP3    H127919   2.982   0.718   6.065  1.7260  1.1700 -1.2504
 2168TIP3    H227920   3.012   0.573   6.036 -0.4742  0.1117  1.3253
 2169TIP3   OH227921   3.079   3.512   4.717 -0.1368 -0.5807 -0.0653
 2169TIP3    H127922   3.020   3.437   4.720  0.4802 -1.1445 -1.3076
 2169TIP3    H227923   3.150   3.485   4.658  1.0900  0.2830  0.9595
 2170TIP3   OH227924   3.578   5.798   0.874 -0.1210  0.3821 -0.2197
 2170TIP3    H127925   3.651   5.810   0.814 -2.4000  0.1665 -3.2578
 2170TIP3    H227926   3.544   5.886   0.890 -0.3267  0.3224 -0.3230
 2171TIP3   OH227927   2.551   0.905   1.385 -0.3773 -0.0802  0.9831
 2171TIP3    H127928   2.459   0.879   1.378  0.0843 -1.4900 -0.2382
 2171TIP3    H227929   2.589   0.883   1.300  1.1073  0.4463  1.4832
 2172TIP3   OH227930   2.698   3.146  16.841 -0.3126 -0.6168  0.2141
 2172TIP3    H127931   2.702   3.240  16.823  2.5485 -0.8075 -0.5578
 2172TIP3    H227932   2.673   3.141  16.933  2.5119  1.0850  1.2000
 2173TIP3   OH227933   5.925   3.566   5.928 -0.3535  0.5275 -0.0714
 2173TIP3    H127934   5.939   3.482   5.972  1.1785  0.7233 -0.1238
 2173TIP3    H227935   5.930   3.546   5.835 -1.4045  0.4727 -0.1328
 2174TIP3   OH227936   3.803   6.188  16.994 -0.1625  0.4546 -0.0202
 2174TIP3    H127937   3.712   6.163  17.012 -1.1688  2.9705 -1.1484
 2174TIP3    H227938   3.828   6.242  17.068 -0.0951  0.9454 -0.3992
 2175TIP3   OH227939   0.758   2.060  16.451 -0.3049  0.3959 -0.2724
 2175TIP3    H127940   0.668   2.089  16.440 -0.2420  0.7256  0.0641
 2175TIP3    H227941   0.799   2.128  16.504  0.3267  0.6042 -1.0052
 2176TIP3   OH227942   1.552   6.426   1.251 -0.5876 -0.0005  0.1622
 2176TIP3    H127943   1.556   6.331   1.262 -0.6247 -0.0369 -0.1231
 2176TIP3    H227944   1.509   6.438   1.166  2.2960  0.1823 -1.4252
 2177TIP3   OH227945   3.555   1.664  13.426  0.6054  0.0329  0.0971
 2177TIP3    H127946   3.474   1.715  13.430  0.6280  0.0149  0.8491
 2177TIP3    H227947   3.604   1.704  13.354  0.5676  0.9997  0.5911
 2178TIP3   OH227948   1.651   3.873   0.604 -0.3440 -0.0920 -0.6579
 2178TIP3    H127949   1.663   3.787   0.562  0.4472  0.0201 -0.6828
 2178TIP3    H227950   1.648   3.935   0.531 -1.7999 -0.1693 -0.6941
 2179TIP3   OH227951   1.771   2.326   1.828 -0.1288  0.1269  0.7254
 2179TIP3    H127952   1.816   2.285   1.754 -1.0107 -1.1584  0.8679
 2179TIP3    H227953   1.745   2.253   1.884  0.9137  1.1033  2.5643
 2180TIP3   OH227954   6.596   2.308   1.925 -0.4361 -0.0655  0.1968
 2180TIP3    H127955   6.583   2.340   2.014  0.5089  0.3017  0.2077
 2180TIP3    H227956   6.660   2.367   1.887 -0.7664 -0.2700 -0.7083
 2181TIP3   OH227957   4.167   2.002  13.429 -0.0811  0.7792  0.1875
 2181TIP3    H127958   4.143   2.093  13.448 -0.0790  0.3907  2.2679
 2181TIP3    H227959   4.084   1.956  13.421 -0.0810  0.7455  0.3673
 2182TIP3   OH227960   4.199   1.000   0.151 -0.0161  0.4155  0.6093
 2182TIP3    H127961   4.149   0.992   0.070  0.3880  1.8720  0.2039
 2182TIP3    H227962   4.137   1.036   0.214  0.2679  1.3513  0.3551
 2183TIP3   OH227963   4.466   6.103   2.652 -0.3378 -0.1639 -0.6244
 2183TIP3    H127964   4.464   6.039   2.581  2.1248 -1.9544  0.7630
 2183TIP3    H227965   4.555   6.138   2.651 -0.9715  1.6065  0.0941
 2184TIP3   OH227966   0.826   3.787   5.681  0.9589 -0.0371  0.8049
 2184TIP3    H127967   0.817   3.741   5.597  2.7658  1.1994 -0.1429
 2184TIP3    H227968   0.879   3.728   5.735  1.6779  0.0893  0.2615
 2185TIP3   OH227969   4.781   2.231   4.014  0.2955 -0.2031  0.6965
 2185TIP3    H127970   4.838   2.281   4.071 -0.5667  0.1048  1.3027
 2185TIP3    H227971   4.841   2.188   3.952  1.0074  2.1362 -0.3285
 2186TIP3   OH227972   3.711   6.158   4.180  0.1091  0.1638  0.0082
 2186TIP3    H127973   3.801   6.136   4.203 -0.0184  2.3002  3.2613
 2186TIP3    H227974   3.710   6.253   4.178 -1.7874  0.1584 -1.4922
 2187TIP3   OH227975   5.572   6.320  17.216 -0.4192  0.0709  0.0783
 2187TIP3    H127976   5.508   6.257  17.185  0.2482 -0.9251  0.6766
 2187TIP3    H227977   5.527   6.367  17.287 -0.4247 -0.7742  0.6433
 2188TIP3   OH227978   4.244   5.061   3.765  0.1049 -0.1565  0.2930
 2188TIP3    H127979   4.321   5.033   3.715  0.8426  0.2152  1.1814
 2188TIP3    H227980   4.179   4.993   3.750  0.3790 -0.1487 -1.0038
 2189TIP3   OH227981   1.269   2.436  11.671  0.6430  0.2282  0.7682
 2189TIP3    H127982   1.316   2.356  11.649  1.9970  0.9126  1.0317
 2189TIP3    H227983   1.183   2.426  11.631  1.9907  0.2013 -2.4443
 2190TIP3   OH227984   2.399   5.629  16.985  0.1545  0.3564 -0.3832
 2190TIP3    H127985   2.346   5.561  17.025 -1.2133  1.3035 -0.5250
 2190TIP3    H227986   2.339   5.675  16.926  1.3794  0.8642 -1.2782
 2191TIP3   OH227987   1.402   3.720  12.020 -0.0048 -0.1433  0.1566
 2191TIP3    H127988   1.488   3.693  11.988  0.6030  3.1280 -1.3266
 2191TIP3    H227989   1.358   3.758  11.943 -1.6137  0.8821  1.5072
 2192TIP3   OH227990   0.497   1.122  11.863 -0.3342 -0.5520  0.4060
 2192TIP3    H127991   0.569   1.063  11.887 -0.2939 -0.4785  0.4688
 2192TIP3    H227992   0.539   1.207  11.852 -0.3127 -0.6339 -0.1742
 2193TIP3   OH227993   3.513   3.754   5.941 -0.5906  0.4001 -0.1249
 2193TIP3    H127994   3.573   3.680   5.953 -2.2469 -1.0448 -0.3842
 2193TIP3    H227995   3.570   3.830   5.935  1.4870 -1.1950 -3.4710
 2194TIP3   OH227996   3.147   6.509  15.118 -0.2159  0.2505 -0.0809
 2194TIP3    H127997   3.156   6.528  15.025  0.8274  2.6961  0.4357
 2194TIP3    H227998   3.062   6.544  15.143 -0.5762 -0.5699 -0.1375
 2195TIP3   OH227999   0.295   5.928   4.159  0.2525 -0.0628  0.0563
 2195TIP3    H128000   0.270   6.006   4.207  0.5667  1.7619 -2.5478
 2195TIP3    H228001   0.214   5.877   4.151  0.0146  0.0152  1.6214
 2196TIP3   OH228002   2.061   5.934   2.898  0.7688  0.2817  0.5500
 2196TIP3    H128003   2.099   5.885   2.972  0.2127 -0.7738  0.1467
 2196TIP3    H228004   1.984   5.884   2.873  0.3708  1.1979 -0.0964
 2197TIP3   OH228005   1.962   4.535   1.732  0.6578 -0.1752  0.5454
 2197TIP3    H128006   1.995   4.483   1.806 -0.6615 -1.1584  0.4958
 2197TIP3    H228007   1.930   4.616   1.772  1.7480  0.1661  0.7681
 2198TIP3   OH228008   4.416   4.858   3.921  0.3302 -0.0460 -0.3826
 2198TIP3    H128009   4.435   4.855   3.827  0.4357  1.3491 -0.4293
 2198TIP3    H228010   4.322   4.842   3.927  0.1184  0.9857 -0.8314
 2199TIP3   OH228011   6.571   3.252   1.951  0.3115 -0.1892  0.2350
 2199TIP3    H128012   6.476   3.249   1.939 -0.0547 -0.5262  2.7584
 2199TIP3    H228013   6.588   3.339   1.987  0.7827 -0.5930  1.0028
 2200TIP3   OH228014   4.484   3.829  14.122  0.2701  0.3288  0.0210
 2200TIP3    H128015   4.544   3.896  14.155  0.5295  1.3464 -2.3506
 2200TIP3    H228016   4.505   3.751  14.174  1.2345  1.5529  1.5969
 2201TIP3   OH228017   2.105   2.327  14.042 -0.0804  0.3903  0.1727
 2201TIP3    H128018   2.174   2.271  14.079 -1.0582  0.1068  1.6604
 2201TIP3    H228019   2.134   2.416  14.060 -0.9129  0.2617  2.5100
 2202TIP3   OH228020   1.955   2.364  16.059  0.6142 -0.3861 -0.0843
 2202TIP3    H128021   2.012   2.294  16.090  0.4358 -0.3876  0.2539
 2202TIP3    H228022   1.868   2.341  16.093  0.5103 -0.1264 -0.1703
 2203TIP3   OH228023   3.276   3.039   5.374  0.0693  0.2988 -0.2660
 2203TIP3    H128024   3.365   3.056   5.343  0.1732  1.0752  0.4508
 2203TIP3    H228025   3.288   2.996   5.458 -0.2324  1.2913  0.2949
 2204TIP3   OH228026   0.332   4.298  14.693  0.1623  0.1148  0.1376
 2204TIP3    H128027   0.406   4.344  14.734 -0.4419  1.3501 -0.0944
 2204TIP3    H228028   0.366   4.270  14.608 -0.1800  2.5598 -0.8978
 2205TIP3   OH228029   0.333   3.606   0.361 -0.3828 -0.3962  0.0145
 2205TIP3    H128030   0.393   3.619   0.435  0.0060  1.5028 -0.5651
 2205TIP3    H228031   0.374   3.538   0.308  0.9908  0.4339 -0.0514
 2206TIP3   OH228032   2.021   1.318  11.700  0.3263 -0.2610  0.5308
 2206TIP3    H128033   1.949   1.373  11.733  0.0853  0.0000 -0.3744
 2206TIP3    H228034   2.090   1.380  11.676  0.3828 -0.4111  0.2907
 2207TIP3   OH228035   4.533   0.762  11.040  0.0656 -0.0027  0.4394
 2207TIP3    H128036   4.444   0.727  11.045 -0.7763  2.0122  0.2572
 2207TIP3    H228037   4.537   0.829  11.108  1.5250 -0.1570  0.5519
 2208TIP3   OH228038   1.286   0.830   5.605  0.1171 -0.3535 -0.0564
 2208TIP3    H128039   1.319   0.797   5.689  0.0674 -1.1291 -0.3363
 2208TIP3    H228040   1.360   0.818   5.544  0.1688  0.2449 -0.1247
 2209TIP3   OH228041   3.521   0.849   2.128  0.3264 -0.0617 -0.1419
 2209TIP3    H128042   3.494   0.926   2.077  1.6607 -0.0290 -0.8273
 2209TIP3    H228043   3.460   0.780   2.101 -0.8102  0.6965  0.3944
 2210TIP3   OH228044   2.623   3.721   1.724  0.0955  0.4162  0.2155
 2210TIP3    H128045   2.568   3.799   1.712 -0.6950  0.2341  2.1541
 2210TIP3    H228046   2.712   3.752   1.712 -0.2018  1.6839  1.0462
 2211TIP3   OH228047   4.022   1.677   5.842  0.1685  0.1567 -0.5996
 2211TIP3    H128048   4.105   1.630   5.848 -0.4619 -0.9554 -0.3676
 2211TIP3    H228049   3.999   1.696   5.933 -0.7697 -1.2631 -0.5070
 2212TIP3   OH228050   4.132   5.831   0.331 -0.0574 -0.0483  0.0652
 2212TIP3    H128051   4.089   5.908   0.369  0.0885 -0.3093  0.7699
 2212TIP3    H228052   4.196   5.868   0.270 -0.1007  0.3829  0.2737
 2213TIP3   OH228053   1.051   2.141  10.923 -0.5177 -0.1192 -0.1845
 2213TIP3    H128054   0.986   2.194  10.878  1.4636  4.1471  1.4006
 2213TIP3    H228055   1.002   2.095  10.991 -2.1997  0.9478 -0.6118
 2214TIP3   OH228056   3.155   2.579  11.422 -0.3823  0.4296  0.1853
 2214TIP3    H128057   3.208   2.550  11.348 -0.9947 -0.3107  0.0249
 2214TIP3    H228058   3.089   2.635  11.383  0.5866  1.8122  0.4536
 2215TIP3   OH228059   3.126   2.420   2.285 -0.2717 -0.5620  0.1010
 2215TIP3    H128060   3.082   2.345   2.325 -1.6639 -0.3765 -1.0162
 2215TIP3    H228061   3.079   2.496   2.319 -0.3472 -0.3199 -0.5462
 2216TIP3   OH228062   2.242   0.212  12.787  0.3508 -0.1120  0.1939
 2216TIP3    H128063   2.212   0.122  12.781  0.6088 -0.0975 -2.0802
 2216TIP3    H228064   2.322   0.208  12.839  0.4779 -1.2359 -0.0758
 2217TIP3   OH228065   1.649   0.485  12.338 -0.6423 -0.1686  0.3452
 2217TIP3    H128066   1.658   0.416  12.272  0.3845  1.0886 -0.9166
 2217TIP3    H228067   1.728   0.478  12.391  0.2125  0.8914 -0.7118
 2218TIP3   OH228068   3.899   3.734  12.756  0.5221  0.3317 -0.3555
 2218TIP3    H128069   3.911   3.665  12.691  0.1741 -0.6070  0.5550
 2218TIP3    H228070   3.980   3.786  12.751  0.5101  0.2655 -1.5083
 2219TIP3   OH228071   2.419   1.337   2.936  0.1327 -0.1930  0.0345
 2219TIP3    H128072   2.360   1.337   2.861  2.0485 -0.1509 -1.5531
 2219TIP3    H228073   2.393   1.260   2.987  0.4143 -1.7958 -2.0849
 2220TIP3   OH228074   5.921   5.072  14.244 -0.1910 -0.3708  0.0805
 2220TIP3    H128075   5.861   5.082  14.170 -0.0338 -1.4673 -0.2218
 2220TIP3    H228076   5.975   5.151  14.243  0.8333 -1.0074 -1.9361
 2221TIP3   OH228077   0.209   3.576  15.206 -0.2858  0.4141 -0.3296
 2221TIP3    H128078   0.186   3.579  15.299 -0.0550 -1.0293 -0.1932
 2221TIP3    H228079   0.266   3.499  15.198 -1.0868 -0.0700 -1.8142
 2222TIP3   OH228080   4.677   3.801  14.390  0.2585 -0.1352 -0.0864
 2222TIP3    H128081   4.641   3.855  14.460  0.9297  0.7347 -0.3953
 2222TIP3    H228082   4.688   3.861  14.316 -0.8706 -1.1304 -1.1007
 2223TIP3   OH228083   5.648   5.914   1.833 -0.2069  0.2886 -0.5797
 2223TIP3    H128084   5.673   5.998   1.873  0.0406  0.3321 -0.8304
 2223TIP3    H228085   5.697   5.911   1.751  0.6814 -0.6312 -0.0300
 2224TIP3   OH228086   3.754   6.541   1.907  0.1912  0.3799  0.2732
 2224TIP3    H128087   3.673   6.495   1.926  0.9552 -1.8453 -1.3839
 2224TIP3    H228088   3.727   6.632   1.892 -1.4796  0.4108  2.9418
 2225TIP3   OH228089   4.057   5.089  14.912 -0.2274  0.5900 -0.2120
 2225TIP3    H128090   3.966   5.068  14.894  0.3883 -2.8189  0.0002
 2225TIP3    H228091   4.090   5.126  14.830 -1.2774 -0.2703 -1.0496
 2226TIP3   OH228092   0.135   5.787   3.473  0.5393  0.3949 -0.3348
 2226TIP3    H128093   0.125   5.845   3.397  0.0279 -1.3958 -1.7143
 2226TIP3    H228094   0.049   5.785   3.514  0.8461  1.4569  0.3778
 2227TIP3   OH228095   6.190   1.007   6.544 -0.0193 -0.2282  0.1075
 2227TIP3    H128096   6.219   0.966   6.626 -1.1720  0.8157  1.0645
 2227TIP3    H228097   6.168   0.933   6.487 -0.6245 -0.9625  1.2673
 2228TIP3   OH228098   1.580   2.677   2.358 -0.4744  0.1912 -0.5718
 2228TIP3    H128099   1.670   2.707   2.339  0.8076 -1.7183  1.9293
 2228TIP3    H228100   1.582   2.584   2.337 -2.2193  0.3134 -1.3954
 2229TIP3   OH228101   3.460   1.290  17.064 -0.2699  0.1741 -0.7465
 2229TIP3    H128102   3.483   1.207  17.106  1.3989  0.7674 -0.4130
 2229TIP3    H228103   3.439   1.265  16.974 -0.7515 -0.7160 -0.4097
 2230TIP3   OH228104   1.533   0.920  13.226  0.1391 -0.7558  0.6384
 2230TIP3    H128105   1.478   0.998  13.225  0.0309 -0.7208  2.8709
 2230TIP3    H228106   1.610   0.944  13.175  0.0619  0.7976  1.2160
 2231TIP3   OH228107   0.839   3.443  14.795 -0.9661 -0.5096  0.1092
 2231TIP3    H128108   0.838   3.530  14.756 -0.5784  0.2101  1.6357
 2231TIP3    H228109   0.923   3.405  14.766 -1.3652 -0.6059 -0.9789
 2232TIP3   OH228110   1.636   1.234  15.034 -0.6621 -0.8580 -0.0767
 2232TIP3    H128111   1.709   1.253  14.974  0.5534 -0.8976  1.3439
 2232TIP3    H228112   1.589   1.317  15.041  1.9009  0.5678  2.4537
 2233TIP3   OH228113   0.975   0.259  13.421  0.1476  0.1974 -0.0020
 2233TIP3    H128114   0.985   0.344  13.465 -1.8023 -0.0212  0.9896
 2233TIP3    H228115   1.041   0.203  13.462  1.8868  1.3540 -1.1078
 2234TIP3   OH228116   6.448   3.440  16.450  0.1614 -0.1361  0.1348
 2234TIP3    H128117   6.475   3.531  16.458  0.9187 -0.2201 -1.0555
 2234TIP3    H228118   6.353   3.442  16.459  0.1724  0.7698  0.1615
 2235TIP3   OH228119   3.198   1.543  13.426  0.4370  0.3628  0.3991
 2235TIP3    H128120   3.244   1.627  13.426 -1.4827  1.4733  0.3426
 2235TIP3    H228121   3.146   1.543  13.346  1.1813 -1.3824 -0.1447
 2236TIP3   OH228122   5.951   1.067  12.412 -0.6168  0.0997 -0.0353
 2236TIP3    H128123   5.879   1.031  12.465 -2.1099  1.5498 -0.9790
 2236TIP3    H228124   6.023   1.079  12.474 -0.2733 -3.6284  0.4803
 2237TIP3   OH228125   4.891   2.538  16.876  0.0031  0.2482 -0.3517
 2237TIP3    H128126   4.962   2.590  16.913 -0.5693  1.2831 -0.6666
 2237TIP3    H228127   4.812   2.588  16.896 -0.5062 -0.2266 -1.1358
 2238TIP3   OH228128   2.724   6.249   4.524  0.2277  0.0211 -0.2125
 2238TIP3    H128129   2.713   6.315   4.456  0.7291 -0.4939 -0.8042
 2238TIP3    H228130   2.741   6.168   4.476  0.4617 -0.3719  0.5273
 2239TIP3   OH228131   4.112   1.101   4.470  0.6224  0.6777  0.4282
 2239TIP3    H128132   4.128   1.017   4.513  1.0109  1.0788  1.0728
 2239TIP3    H228133   4.111   1.079   4.376 -2.0240 -0.5018  0.6599
 2240TIP3   OH228134   4.497   5.486  16.756  0.0677 -0.0141 -0.2857
 2240TIP3    H128135   4.486   5.548  16.829 -2.6329 -0.4690 -0.2046
 2240TIP3    H228136   4.467   5.534  16.679  0.5569 -0.3377 -0.6812
 2241TIP3   OH228137   3.127   6.733  12.372 -0.6859  0.5437 -0.4486
 2241TIP3    H128138   3.115   6.670  12.442  0.0048 -1.2978 -1.9011
 2241TIP3    H228139   3.082   6.812  12.402 -0.9846 -0.3985  1.7269
 2242TIP3   OH228140   4.894   0.813   0.031  0.0478  0.3877 -0.2545
 2242TIP3    H128141   4.820   0.810   0.091 -0.3468  0.2909 -0.7421
 2242TIP3    H228142   4.906   0.906   0.013  0.7547  0.4925  0.6867
 2243TIP3   OH228143   0.040   2.161   5.910 -0.2308  0.0193  0.1635
 2243TIP3    H128144   0.100   2.131   5.842 -1.0309  1.1323 -1.0687
 2243TIP3    H228145   0.097   2.192   5.980  0.6471  0.9303 -0.9230
 2244TIP3   OH228146   0.021   1.223   0.322 -0.2701 -0.2212  0.2745
 2244TIP3    H128147   0.084   1.293   0.303  0.1151 -0.1073  1.8622
 2244TIP3    H228148  -0.059   1.251   0.278 -0.1288  1.2477  0.8715
 2245TIP3   OH228149   3.492   5.585   1.004  0.1504  0.6270 -0.6442
 2245TIP3    H128150   3.573   5.574   1.053 -1.4216  0.2336  2.0649
 2245TIP3    H228151   3.510   5.657   0.944  2.3086  0.9474  0.2961
 2246TIP3   OH228152   1.401   5.866   6.085 -0.4899 -0.7222 -0.4901
 2246TIP3    H128153   1.415   5.917   6.005 -1.3233 -0.9154 -0.7793
 2246TIP3    H228154   1.418   5.927   6.156 -0.0427 -0.4574 -0.8207
 2247TIP3   OH228155   5.467   3.525   3.377  0.8340  0.0504 -0.3044
 2247TIP3    H128156   5.438   3.609   3.413 -1.3535 -0.7041 -0.1533
 2247TIP3    H228157   5.452   3.462   3.448  1.5250 -0.6170 -0.7392
 2248TIP3   OH228158   5.264   5.082  13.762  0.6559 -0.4984  0.0602
 2248TIP3    H128159   5.331   5.137  13.802  0.5267 -0.9904  0.9787
 2248TIP3    H228160   5.309   5.036  13.691  1.5436 -1.5453  1.2669
 2249TIP3   OH228161   5.494   3.265  13.226  0.1380 -0.2807  0.3218
 2249TIP3    H128162   5.407   3.243  13.260 -0.1869 -0.3989 -0.5579
 2249TIP3    H228163   5.493   3.360  13.217  0.5762 -0.1416  1.5467
 2250TIP3   OH228164   6.402   3.813   6.039  0.5492  0.3891  0.0274
 2250TIP3    H128165   6.425   3.737   6.093 -0.1141  0.1604 -0.0040
 2250TIP3    H228166   6.319   3.789   5.999 -0.8261  1.9875  1.7157
 2251TIP3   OH228167   5.616   2.990   0.080  0.4189  0.2715 -0.1955
 2251TIP3    H128168   5.622   2.918   0.017 -1.4191  0.7300 -0.9453
 2251TIP3    H228169   5.561   2.955   0.150  0.3583  0.6067 -0.0758
 2252TIP3   OH228170   5.475   4.758  16.708 -0.2077 -0.1071  0.0206
 2252TIP3    H128171   5.459   4.668  16.738  0.2928  0.6791  2.8838
 2252TIP3    H228172   5.390   4.800  16.712 -0.2864 -0.2083 -0.5023
 2253TIP3   OH228173   6.503   0.501  13.751 -0.0866 -0.4787  0.0125
 2253TIP3    H128174   6.561   0.480  13.678 -0.2143 -1.2479  0.1250
 2253TIP3    H228175   6.506   0.424  13.808 -0.7637 -0.2934  0.3165
 2254TIP3   OH228176   5.290   1.810  16.771  0.2406 -0.9668  0.2609
 2254TIP3    H128177   5.207   1.789  16.728 -0.8139  1.3022  1.0433
 2254TIP3    H228178   5.318   1.727  16.811 -1.0545 -2.0410 -0.9547
 2255TIP3   OH228179   2.551   1.720  16.861  0.4212 -0.1435 -0.3574
 2255TIP3    H128180   2.529   1.813  16.869 -1.7878 -0.4692 -1.8918
 2255TIP3    H228181   2.482   1.675  16.910 -0.1575 -1.0634 -1.9566
 2256TIP3   OH228182   4.923   3.150   3.955  0.4928 -0.7434 -0.0466
 2256TIP3    H128183   4.991   3.198   3.908  0.2839 -0.1300  0.2769
 2256TIP3    H228184   4.918   3.193   4.040 -0.7320 -0.3922 -0.2835
 2257TIP3   OH228185   1.077   1.513  14.543  0.1878  0.0878 -0.3386
 2257TIP3    H128186   0.987   1.537  14.518 -0.0867  0.6349  1.0981
 2257TIP3    H228187   1.127   1.593  14.528  0.0015  0.4529  0.8861
 2258TIP3   OH228188   3.330   6.515  14.011 -0.3081  0.4103  0.5209
 2258TIP3    H128189   3.416   6.474  14.004 -1.2005 -1.7534  1.2270
 2258TIP3    H228190   3.277   6.470  13.945 -1.2890  0.5614  1.1783
 2259TIP3   OH228191   1.634   5.960   0.656  0.0789 -0.6570 -0.3101
 2259TIP3    H128192   1.698   6.017   0.614 -0.1567 -0.1776 -0.0276
 2259TIP3    H228193   1.613   6.004   0.738 -2.2467  0.3417 -1.3482
 2260TIP3   OH228194   5.144   6.193   0.321  0.0195 -0.3198 -0.1973
 2260TIP3    H128195   5.209   6.165   0.257  1.6347  0.2997  1.1035
 2260TIP3    H228196   5.162   6.286   0.335 -1.0147 -0.1849  0.3502
 2261TIP3   OH228197   2.868   6.108  13.618 -0.2948  0.5472  0.3989
 2261TIP3    H128198   2.854   6.193  13.576  0.6177 -0.1265 -1.3757
 2261TIP3    H228199   2.799   6.053  13.582 -0.0227  0.1769  0.4454
 2262TIP3   OH228200   6.722   3.315  16.827  0.1100 -0.7013  0.0264
 2262TIP3    H128201   6.701   3.245  16.889 -1.4373  0.8822  1.3866
 2262TIP3    H228202   6.644   3.370  16.826  1.8680  1.9565  0.2938
 2263TIP3   OH228203   4.591   5.187  11.992 -0.1808 -0.7615  0.2864
 2263TIP3    H128204   4.643   5.231  12.059  1.4083 -3.5068  1.0124
 2263TIP3    H228205   4.653   5.132  11.945 -1.7664 -1.0800 -1.6051
 2264TIP3   OH228206   2.483   6.139   2.154  0.0634 -0.4075  0.1715
 2264TIP3    H128207   2.570   6.118   2.122  0.8391  0.6410  1.4638
 2264TIP3    H228208   2.423   6.086   2.101  1.5033 -1.4008 -0.5049
 2265TIP3   OH228209   6.217   0.659  17.154 -0.3428 -0.3188  0.1419
 2265TIP3    H128210   6.310   0.682  17.159  0.0986 -2.0551  0.6726
 2265TIP3    H228211   6.189   0.655  17.245 -0.9240  0.1124 -0.0149
 2266TIP3   OH228212   2.056   5.190  14.251 -0.4832  0.6485  0.4848
 2266TIP3    H128213   1.962   5.171  14.247 -0.6227  1.4619 -0.5517
 2266TIP3    H228214   2.069   5.226  14.339 -1.8121  3.5846 -0.3727
 2267TIP3   OH228215   1.404   3.292  12.170 -0.2739 -0.2233 -0.1589
 2267TIP3    H128216   1.314   3.312  12.143 -0.1502  1.5390  0.5712
 2267TIP3    H228217   1.400   3.203  12.205 -1.7887 -0.1001  0.0498
 2268TIP3   OH228218   4.752   1.623  12.184 -0.2320 -0.0098 -0.1126
 2268TIP3    H128219   4.731   1.533  12.160 -1.1400  0.0621  0.3472
 2268TIP3    H228220   4.666   1.666  12.190  0.2337  1.1187 -1.2230
 2269TIP3   OH228221   6.009   1.718  13.463  0.5311 -0.2488 -0.0803
 2269TIP3    H128222   5.965   1.633  13.464 -0.3200  0.1817  0.4078
 2269TIP3    H228223   5.980   1.759  13.381 -0.6666  0.3646  0.6216
 2270TIP3   OH228224   5.876   2.782  16.115 -0.7342 -0.3134  0.0681
 2270TIP3    H128225   5.934   2.791  16.040  1.4193  0.2022  1.6859
 2270TIP3    H228226   5.858   2.688  16.121 -2.4069 -0.2001 -2.0457
 2271TIP3   OH228227   4.219   1.325  17.272 -0.2002 -0.2460 -0.0118
 2271TIP3    H128228   4.278   1.261  17.231 -1.9365 -1.5049 -0.6326
 2271TIP3    H228229   4.159   1.351  17.202 -0.3715  1.0577  0.5905
 2272TIP3   OH228230   2.840   0.319  11.366 -0.7495  0.8935 -0.0207
 2272TIP3    H128231   2.863   0.227  11.356 -2.4193  0.3136  1.1879
 2272TIP3    H228232   2.809   0.327  11.456 -2.1569  2.2850 -0.5848
 2273TIP3   OH228233   0.951   3.948  12.703  0.3396 -0.0968 -0.6603
 2273TIP3    H128234   0.929   3.983  12.790  0.0402  1.9337 -1.4933
 2273TIP3    H228235   0.927   3.856  12.708  0.6063 -0.0965  1.5030
 2274TIP3   OH228236   1.947   3.127   2.457  0.1109 -0.3142  0.3002
 2274TIP3    H128237   1.913   3.208   2.419  0.9276  0.2699  0.7610
 2274TIP3    H228238   2.003   3.090   2.388  1.9909  1.0012  1.0181
 2275TIP3   OH228239   0.740   4.634  16.763  0.2241  0.4850 -0.2531
 2275TIP3    H128240   0.764   4.566  16.700  1.8916  0.5660  0.2347
 2275TIP3    H228241   0.824   4.666  16.796 -0.5625  0.1104  2.3659
 2276TIP3   OH228242   0.984   5.742   5.535 -0.1739  0.0072  0.5018
 2276TIP3    H128243   1.055   5.740   5.471 -2.5661 -2.9819 -2.4275
 2276TIP3    H228244   0.980   5.653   5.570 -0.7982  0.8324  2.6949
 2277TIP3   OH228245   1.693   6.378   3.258  0.1752 -0.2298  0.7991
 2277TIP3    H128246   1.737   6.298   3.287  0.6735  0.1831  1.1943
 2277TIP3    H228247   1.610   6.379   3.305 -0.6783 -1.4609 -0.5973
 2278TIP3   OH228248   4.807   4.389  14.349 -0.6660  0.1163 -0.1095
 2278TIP3    H128249   4.833   4.299  14.332  0.7214  0.5696 -0.4762
 2278TIP3    H228250   4.813   4.433  14.265  0.6408  1.0112  0.4181
 2279TIP3   OH228251   2.572   0.809   5.251  0.2708 -0.4041 -0.6478
 2279TIP3    H128252   2.506   0.852   5.306  0.0410 -0.0075 -1.2301
 2279TIP3    H228253   2.582   0.722   5.290 -0.1703 -0.2641 -0.2059
 2280TIP3   OH228254   4.570   5.660   0.896  0.7005  0.2189  0.6982
 2280TIP3    H128255   4.496   5.650   0.956 -0.0333 -0.3502 -0.2651
 2280TIP3    H228256   4.593   5.571   0.871 -1.2588  0.4300 -2.4723
 2281TIP3   OH228257   2.683   3.856  15.500 -0.0484  0.2864 -0.8005
 2281TIP3    H128258   2.647   3.902  15.424  0.6128  1.0448 -0.6722
 2281TIP3    H228259   2.777   3.878  15.499  0.1055 -0.3082 -0.1956
 2282TIP3   OH228260   6.631   3.883   5.733  0.6572 -0.1525 -0.0484
 2282TIP3    H128261   6.566   3.932   5.684  0.7690  0.6694  0.6029
 2282TIP3    H228262   6.609   3.899   5.825  0.3636 -1.7808  0.1871
 2283TIP3   OH228263   3.912   4.657   1.302  0.6259  0.2658 -0.1868
 2283TIP3    H128264   4.008   4.655   1.294  0.5489 -0.1115 -1.0777
 2283TIP3    H228265   3.894   4.745   1.336  1.2583  0.5158 -0.4628
 2284TIP3   OH228266   1.255   1.616  15.137  0.3242  0.5205 -0.1049
 2284TIP3    H128267   1.220   1.705  15.133 -0.6479  0.2413  1.4431
 2284TIP3    H228268   1.210   1.576  15.211  2.7059 -0.4182  0.9503
 2285TIP3   OH228269   2.230   3.632   0.810  0.0778 -0.0696 -0.3863
 2285TIP3    H128270   2.198   3.542   0.813 -0.5120  0.1371 -0.3523
 2285TIP3    H228271   2.156   3.685   0.839  0.9118  0.3240  1.1256
 2286TIP3   OH228272   1.021   6.255  16.279  0.6623  0.0572 -0.2905
 2286TIP3    H128273   1.092   6.311  16.310  0.6843 -0.0568 -0.1369
 2286TIP3    H228274   1.063   6.171  16.259  0.4484 -0.2484  0.5117
 2287TIP3   OH228275   0.262   2.485   0.544 -0.1403 -0.8135  0.3143
 2287TIP3    H128276   0.277   2.440   0.628 -0.3885  0.8626  1.3007
 2287TIP3    H228277   0.330   2.551   0.540 -0.7744 -0.1814 -0.3074
 2288TIP3   OH228278   2.930   3.806   6.592  0.0928 -0.5582  0.3010
 2288TIP3    H128279   2.856   3.831   6.648  0.4170  0.6886  0.2029
 2288TIP3    H228280   2.890   3.757   6.520 -0.4844 -0.9803  0.8853
 2289TIP3   OH228281   0.266   1.827   2.486  0.1771  0.1053  0.1654
 2289TIP3    H128282   0.286   1.746   2.534 -0.1458 -0.1808 -0.1788
 2289TIP3    H228283   0.174   1.844   2.507 -0.6140 -1.1618 -1.9781
 2290TIP3   OH228284   4.594   2.361   5.081 -0.3111  0.3532 -0.4755
 2290TIP3    H128285   4.539   2.438   5.095  0.2739  0.7837 -0.4913
 2290TIP3    H228286   4.643   2.351   5.163  0.2687  0.5443 -0.7904
 2291TIP3   OH228287   5.957   4.126  16.931  0.1459  0.2515 -0.1445
 2291TIP3    H128288   5.907   4.053  16.967  0.0244  0.1528 -0.5001
 2291TIP3    H228289   6.040   4.087  16.903 -0.0996  0.1554 -0.7539
 2292TIP3   OH228290   3.498   4.464   2.957  1.4791  0.2062  0.2016
 2292TIP3    H128291   3.421   4.510   2.924  0.5003  0.3249  2.5084
 2292TIP3    H228292   3.570   4.526   2.944  1.0201  0.5301 -0.9453
 2293TIP3   OH228293   0.416   2.254   4.307 -0.2693 -0.2830  0.0556
 2293TIP3    H128294   0.389   2.234   4.217  0.4821  1.6234 -0.6424
 2293TIP3    H228295   0.402   2.348   4.316  1.9267  0.0066  1.1153
 2294TIP3   OH228296   4.724   2.797   5.072  0.2601  0.3967 -0.0143
 2294TIP3    H128297   4.803   2.818   5.122 -1.2290  2.7736  1.5744
 2294TIP3    H228298   4.671   2.877   5.077 -1.7202 -0.6718 -2.0865
 2295TIP3   OH228299   2.687   5.822  16.026 -0.0049 -0.7530  0.0245
 2295TIP3    H128300   2.722   5.846  16.112 -1.0453  1.4214 -0.0889
 2295TIP3    H228301   2.594   5.844  16.031 -0.1810 -1.0643 -1.4962
 2296TIP3   OH228302   4.963   4.854  17.327 -0.0757 -0.4012  0.0643
 2296TIP3    H128303   4.926   4.891  17.247 -3.1483 -0.2735  1.3745
 2296TIP3    H228304   4.958   4.759  17.315  1.7817 -0.4319 -0.7833
 2297TIP3   OH228305   4.711   6.666  15.907  0.3527 -0.3294  0.5052
 2297TIP3    H128306   4.633   6.676  15.853 -0.2469 -1.4116  1.1351
 2297TIP3    H228307   4.723   6.752  15.948  1.3544  0.8090 -1.9777
 2298TIP3   OH228308   6.319   3.276  11.302  0.2396 -0.3704  0.1833
 2298TIP3    H128309   6.257   3.346  11.281  0.7143 -0.0403 -0.1426
 2298TIP3    H228310   6.266   3.208  11.344 -0.1800  0.2983  0.7434
 2299TIP3   OH228311   0.155   5.673   0.740  0.5208  0.1155  0.1192
 2299TIP3    H128312   0.086   5.736   0.718  1.0997  1.0379  0.8710
 2299TIP3    H228313   0.236   5.717   0.714  0.9020 -0.5156  0.2297
 2300TIP3   OH228314   2.984   6.474  11.907 -0.1293  0.4906  0.3403
 2300TIP3    H128315   3.069   6.518  11.908  0.4741 -0.6256  1.9686
 2300TIP3    H228316   2.957   6.473  11.998 -0.7708 -1.2771  0.1577
 2301TIP3   OH228317   4.007   6.218  16.563 -0.0656  0.4113  0.4205
 2301TIP3    H128318   3.925   6.178  16.533 -0.1554 -1.3815  2.8124
 2301TIP3    H228319   3.981   6.275  16.635  0.7082  0.3776  0.7317
 2302TIP3   OH228320   0.874   4.651   5.618 -0.4835  0.2943 -0.1455
 2302TIP3    H128321   0.945   4.684   5.672 -0.9656  1.0253  0.0563
 2302TIP3    H228322   0.794   4.680   5.663 -0.8909  1.1847 -1.3868
 2303TIP3   OH228323   1.664   6.385   5.407 -0.2854 -0.1258 -0.2444
 2303TIP3    H128324   1.622   6.432   5.478  0.1953 -0.0942  0.0177
 2303TIP3    H228325   1.642   6.435   5.328  0.5797  0.7884  0.0749
 2304TIP3   OH228326   4.316   5.770  12.110 -0.3998 -0.7138 -0.2484
 2304TIP3    H128327   4.254   5.785  12.038 -1.8817 -3.3863  0.3421
 2304TIP3    H228328   4.360   5.854  12.121 -1.9757  0.5324 -2.5302
 2305TIP3   OH228329   4.953   0.975  16.169 -0.0607  0.5305 -0.2052
 2305TIP3    H128330   4.934   1.062  16.203  0.5515  0.8791 -0.7304
 2305TIP3    H228331   4.933   0.980  16.075 -1.9910 -0.4939  0.1126
 2306TIP3   OH228332   2.796   0.701   2.905  0.0877 -0.2747 -0.2137
 2306TIP3    H128333   2.752   0.668   2.983 -3.4896 -0.6915 -2.1876
 2306TIP3    H228334   2.788   0.796   2.911  0.4797 -0.2647  0.2296
 2307TIP3   OH228335   0.562   5.799   6.310 -0.4166  0.6182  0.0364
 2307TIP3    H128336   0.590   5.876   6.359  2.7021 -0.6235  0.5165
 2307TIP3    H228337   0.537   5.735   6.377  0.9348 -0.0748 -0.0806
 2308TIP3   OH228338   3.182   5.021  15.829 -0.1766  0.4151 -0.5266
 2308TIP3    H128339   3.143   5.076  15.897 -0.4330  0.0611 -0.3793
 2308TIP3    H228340   3.172   5.071  15.749  0.4041  0.9699 -0.2559
 2309TIP3   OH228341   3.084   1.627  14.260  0.4463  0.3833 -0.3643
 2309TIP3    H128342   3.097   1.537  14.288  1.0840  0.4613 -0.3886
 2309TIP3    H228343   3.031   1.620  14.181  1.4699 -0.0543 -1.0297
 2310TIP3   OH228344   6.675   0.697   3.759 -0.0649 -0.1606  0.5255
 2310TIP3    H128345   6.694   0.761   3.690 -2.4366  1.9678  1.6880
 2310TIP3    H228346   6.760   0.681   3.800  0.5973  2.6762  0.4786
 2311TIP3   OH228347   4.361   4.234  13.794 -0.5340 -0.4592  0.3634
 2311TIP3    H128348   4.413   4.157  13.818  0.3854  0.0367  0.0015
 2311TIP3    H228349   4.272   4.200  13.781  0.1844 -1.7880 -1.5244
 2312TIP3   OH228350   4.544   5.027   4.083 -0.2340  0.3209  0.1021
 2312TIP3    H128351   4.541   5.008   4.177  1.2774 -0.3457  0.0495
 2312TIP3    H228352   4.485   4.964   4.043  1.5891 -1.6072  0.3238
 2313TIP3   OH228353   2.486   1.511  16.210  0.0333  0.0820 -0.0028
 2313TIP3    H128354   2.449   1.599  16.204  1.4585  0.6558 -1.1046
 2313TIP3    H228355   2.460   1.480  16.297 -4.8391 -0.5083 -1.3953
 2314TIP3   OH228356   2.804   2.751   2.526 -0.0769  0.3473 -0.3279
 2314TIP3    H128357   2.868   2.814   2.559  0.4772 -0.6678  0.5739
 2314TIP3    H228358   2.734   2.750   2.591 -0.4124  0.5155 -0.6773
 2315TIP3   OH228359   5.453   3.346   4.691  0.0361 -0.0673  0.6047
 2315TIP3    H128360   5.406   3.267   4.717 -1.6520  0.7445  0.1509
 2315TIP3    H228361   5.518   3.360   4.760 -0.4774 -1.1507  1.3240
 2316TIP3   OH228362   4.362   4.449  11.173 -0.1367 -0.3580 -0.3564
 2316TIP3    H128363   4.363   4.508  11.097  2.2969 -1.3339 -1.1857
 2316TIP3    H228364   4.302   4.379  11.148 -2.1179  1.0911  0.1434
 2317TIP3   OH228365   6.123   4.803   0.543  0.5809 -0.2715  0.3482
 2317TIP3    H128366   6.100   4.728   0.489  2.0064  0.5341 -1.5178
 2317TIP3    H228367   6.177   4.767   0.614  3.6756 -0.8641 -2.0657
 2318TIP3   OH228368   1.072   0.889  13.687 -0.1608  0.1124  0.0588
 2318TIP3    H128369   1.007   0.925  13.626 -0.0516 -0.3635 -0.3467
 2318TIP3    H228370   1.073   0.951  13.760 -0.8857  0.2647 -0.0460
 2319TIP3   OH228371   3.714   3.586   6.044  0.0940  0.1324  0.2060
 2319TIP3    H128372   3.752   3.499   6.034  1.3538  0.7874 -0.9631
 2319TIP3    H228373   3.693   3.592   6.137  0.2878 -1.2858  0.3667
 2320TIP3   OH228374   1.125   4.084  16.221  1.1148  0.1405 -0.2217
 2320TIP3    H128375   1.119   4.153  16.288  0.2047  0.7200 -0.8583
 2320TIP3    H228376   1.034   4.054  16.211  1.8055 -3.3353  2.1862
 2321TIP3   OH228377   2.657   1.703  15.270  0.1268  0.4840 -0.3382
 2321TIP3    H128378   2.627   1.719  15.180 -2.0570  0.6630  0.3788
 2321TIP3    H228379   2.695   1.786  15.297  1.5566  0.1966 -1.3299
 2322TIP3   OH228380   1.920   3.957  11.166 -0.2277 -0.1294  0.3189
 2322TIP3    H128381   1.987   4.020  11.140  0.4148 -0.7391  0.4407
 2322TIP3    H228382   1.907   3.902  11.088 -0.0347 -0.4750  0.5253
 2323TIP3   OH228383   0.675   6.482   4.933  0.4363  0.4765  0.4241
 2323TIP3    H128384   0.745   6.525   4.981 -0.3409  2.5643 -0.2225
 2323TIP3    H228385   0.626   6.435   5.000  0.7212  1.4396  1.3357
 2324TIP3   OH228386   1.161   3.961  11.494  0.2778  0.0450 -0.4515
 2324TIP3    H128387   1.085   3.924  11.538  1.2664 -0.9938  0.4679
 2324TIP3    H228388   1.207   3.886  11.457  0.8089  0.6600 -1.0782
 2325TIP3   OH228389   2.311   6.309  12.047 -0.1146 -0.3121 -0.2239
 2325TIP3    H128390   2.361   6.337  12.124 -1.0355 -1.5200  0.8343
 2325TIP3    H228391   2.378   6.287  11.982  0.7933 -2.1352  1.2429
 2326TIP3   OH228392   3.121   6.576  12.616  0.6296 -0.1090  0.2350
 2326TIP3    H128393   3.164   6.636  12.677  0.2834  0.4588 -0.0667
 2326TIP3    H228394   3.177   6.498  12.615  1.3679  0.4152  0.2363
 2327TIP3   OH228395   1.702   0.624  11.154 -0.1395 -0.6195  0.3704
 2327TIP3    H128396   1.692   0.718  11.167 -0.9311 -0.4570 -1.0830
 2327TIP3    H228397   1.616   0.587  11.178  0.8395 -1.3055  3.1361
 2328TIP3   OH228398   0.228   3.975  16.894  0.2916  0.3168 -0.3595
 2328TIP3    H128399   0.252   4.061  16.931 -2.1981  0.9047  0.0783
 2328TIP3    H228400   0.198   3.924  16.969  3.2842 -1.6318 -0.3400
 2329TIP3   OH228401   0.520   5.075   4.726 -0.0096  0.3482  0.6536
 2329TIP3    H128402   0.463   5.117   4.791 -1.0197  1.1662 -0.6995
 2329TIP3    H228403   0.460   5.021   4.674  1.0160 -1.5126  1.3164
 2330TIP3   OH228404   3.173   6.699  15.578 -0.1707  0.9441  0.5230
 2330TIP3    H128405   3.202   6.630  15.518  0.9360  0.3189  1.7369
 2330TIP3    H228406   3.085   6.722  15.546 -0.5603 -0.9872  0.0393
 2331TIP3   OH228407   6.211   5.966  15.554  0.0019 -0.7831  0.2402
 2331TIP3    H128408   6.176   5.878  15.538  0.1253 -0.6570 -0.8026
 2331TIP3    H228409   6.249   5.992  15.470 -2.8933  1.5621 -0.5308
 2332TIP3   OH228410   3.726   6.599   2.689 -0.0144  0.1277  0.0600
 2332TIP3    H128411   3.655   6.663   2.678  0.1311  0.2302 -0.3119
 2332TIP3    H228412   3.685   6.514   2.671 -0.2793  0.0809  0.8531
 2333TIP3   OH228413   0.993   5.373  10.962 -0.0937 -0.1178 -0.1782
 2333TIP3    H128414   0.919   5.421  10.924  0.6200  0.9488 -0.2601
 2333TIP3    H228415   1.070   5.422  10.935  0.5596 -0.4231  1.0549
 2334TIP3   OH228416   0.413   4.737  14.276  0.7842  0.1730  0.0290
 2334TIP3    H128417   0.437   4.785  14.355 -1.6953 -0.2567  1.1256
 2334TIP3    H228418   0.325   4.703  14.294  1.5065 -2.9389 -1.5239
 2335TIP3   OH228419   4.397   2.231  12.878 -0.4763  0.3087  0.4529
 2335TIP3    H128420   4.431   2.278  12.954  0.0829  1.3047 -0.3969
 2335TIP3    H228421   4.437   2.144  12.884  0.7187  0.8559  0.4964
 2336TIP3   OH228422   1.915   6.557  11.376 -0.1443 -0.1349  0.2705
 2336TIP3    H128423   1.934   6.649  11.359  1.1553 -0.4894 -0.3252
 2336TIP3    H228424   1.932   6.546  11.470  0.4428  0.0708  0.1919
 2337TIP3   OH228425   5.592   5.064  16.528  0.2681  0.7066  0.0503
 2337TIP3    H128426   5.687   5.054  16.532  0.2420  0.1715 -0.6333
 2337TIP3    H228427   5.572   5.127  16.598  1.0343  0.2449  0.7009
 2338TIP3   OH228428   1.600   4.966   4.839  0.5792  0.3436  0.2375
 2338TIP3    H128429   1.545   4.929   4.770 -0.6504  0.3453  1.1643
 2338TIP3    H228430   1.688   4.934   4.820  0.0016 -0.9275 -0.4553
 2339TIP3   OH228431   3.728   3.775   5.163 -0.2204 -0.7348  0.0527
 2339TIP3    H128432   3.742   3.859   5.119 -2.5558 -1.1285 -1.6499
 2339TIP3    H228433   3.816   3.745   5.186  0.8206  1.2568 -1.0667
 2340TIP3   OH228434   2.256   3.271   5.270  0.9090  0.0485 -0.0991
 2340TIP3    H128435   2.345   3.301   5.256  0.3764  1.0664 -1.5549
 2340TIP3    H228436   2.206   3.350   5.290  0.5418 -0.6703  2.1062
 2341TIP3   OH228437   2.578   0.477   4.729 -0.2256  0.1221  0.7272
 2341TIP3    H128438   2.575   0.438   4.816 -0.6449  0.8727  1.0538
 2341TIP3    H228439   2.670   0.498   4.715 -0.0407 -0.6755  0.6733
 2342TIP3   OH228440   5.725   6.545   4.198 -0.4308  0.0317 -0.0822
 2342TIP3    H128441   5.698   6.534   4.107  0.4697  0.8691 -0.4688
 2342TIP3    H228442   5.819   6.563   4.193 -0.9282  3.6148  0.7052
 2343TIP3   OH228443   1.100   4.959   4.774 -0.3429 -0.0212 -0.1683
 2343TIP3    H128444   1.182   4.911   4.766 -0.0997  0.0743  1.3247
 2343TIP3    H228445   1.126   5.046   4.804 -1.0603 -0.8655  3.3717
 2344TIP3   OH228446   5.360   4.879   2.302 -0.1548  0.6470  0.0623
 2344TIP3    H128447   5.434   4.879   2.242  0.5729  1.1464  0.9317
 2344TIP3    H228448   5.353   4.970   2.331  0.7918  0.0981  2.2340
 2345TIP3   OH228449   3.551   5.403  15.014  0.0824  0.2716  0.2668
 2345TIP3    H128450   3.635   5.448  15.017  0.5614 -0.1875 -2.6140
 2345TIP3    H228451   3.563   5.326  15.070  1.2605  0.6936  0.6249
 2346TIP3   OH228452   0.760   6.319  15.357  0.4708 -0.2009  0.0349
 2346TIP3    H128453   0.720   6.356  15.436 -0.1367 -0.1029 -0.3119
 2346TIP3    H228454   0.686   6.301  15.299  0.9366  0.0648 -0.6540
 2347TIP3   OH228455   4.244   5.004   5.144 -0.5247 -0.3302  0.4326
 2347TIP3    H128456   4.208   4.935   5.200 -0.3803 -1.4521 -0.8064
 2347TIP3    H228457   4.293   4.957   5.076  0.8656  1.0525  0.4155
 2348TIP3   OH228458   0.089   6.644   2.313  0.7670 -0.7353  0.1117
 2348TIP3    H128459   0.148   6.583   2.269 -0.0434  1.2512 -4.1794
 2348TIP3    H228460   0.146   6.694   2.371  2.8201 -0.8037 -1.7096
 2349TIP3   OH228461   0.708   5.380  13.416  0.1008 -0.6653 -0.2932
 2349TIP3    H128462   0.742   5.293  13.398 -0.7627 -0.8696 -1.0309
 2349TIP3    H228463   0.675   5.411  13.331 -0.2791  0.0701  0.1082
 2350TIP3   OH228464   4.707   6.444  15.169  0.0498  0.5024  0.1080
 2350TIP3    H128465   4.616   6.430  15.194 -0.3539  1.9819 -0.4461
 2350TIP3    H228466   4.755   6.438  15.252 -0.3864 -1.3846  0.2523
 2351TIP3   OH228467   0.676   0.450  10.837  0.4193  0.2342 -0.1783
 2351TIP3    H128468   0.717   0.533  10.813 -0.0252  0.1658 -1.2410
 2351TIP3    H228469   0.747   0.398  10.875  0.4879  1.4600  1.5104
 2352TIP3   OH228470   1.212   2.540  15.701  0.3462 -0.4760  0.2018
 2352TIP3    H128471   1.239   2.631  15.694 -1.2616  0.0749  0.6482
 2352TIP3    H228472   1.198   2.526  15.794  1.6866 -1.5404  0.2638
 2353TIP3   OH228473   2.663   5.124   1.198  0.7075 -0.3191 -0.1213
 2353TIP3    H128474   2.650   5.030   1.194 -1.0129 -0.2995  2.5528
 2353TIP3    H228475   2.735   5.136   1.260  1.0681  0.1585 -0.6121
 2354TIP3   OH228476   0.891   6.715   1.022 -0.6434 -0.2757  0.1770
 2354TIP3    H128477   0.835   6.720   1.100 -2.1930 -0.9374 -0.8330
 2354TIP3    H228478   0.919   6.624   1.019 -0.6743 -0.2766 -0.0871
 2355TIP3   OH228479   2.069   6.580  14.426 -0.1578  0.0949  0.0133
 2355TIP3    H128480   2.047   6.663  14.467 -3.3768 -0.7593  0.3017
 2355TIP3    H228481   2.073   6.517  14.498 -0.6414 -0.4962 -0.4600
 2356TIP3   OH228482   2.981   5.435   3.112  0.1690 -0.1358 -0.0878
 2356TIP3    H128483   3.008   5.344   3.114 -0.1544 -0.2380  1.5928
 2356TIP3    H228484   2.953   5.453   3.202 -1.6201  1.0669 -0.8373
 2357TIP3   OH228485   1.650   3.802  15.326  0.3553 -0.1465  0.4771
 2357TIP3    H128486   1.694   3.744  15.387  0.7088  1.8049  2.1859
 2357TIP3    H228487   1.708   3.807  15.250  0.9023 -1.0364  0.8317
 2358TIP3   OH228488   1.184   1.782   2.118 -0.0838  0.1488  0.3980
 2358TIP3    H128489   1.280   1.782   2.124 -0.0843 -0.4724  0.4618
 2358TIP3    H228490   1.155   1.736   2.198 -0.3496 -1.5193 -0.6029
 2359TIP3   OH228491   2.911   2.398   0.862  0.2852 -0.4927 -0.0838
 2359TIP3    H128492   2.965   2.351   0.925  0.0922  1.2849  1.5152
 2359TIP3    H228493   2.970   2.417   0.789  1.8510  1.1681  1.4947
 2360TIP3   OH228494   3.712   0.500   5.430 -0.5641  0.2525 -0.2130
 2360TIP3    H128495   3.766   0.511   5.352  1.7694  0.0898  1.2866
 2360TIP3    H228496   3.739   0.416   5.467  1.0054  1.8420  2.6063
 2361TIP3   OH228497   3.400   0.078   3.486  0.5460  0.1667 -0.7668
 2361TIP3    H128498   3.320   0.127   3.468  0.7414  0.5181 -0.6899
 2361TIP3    H228499   3.393   0.001   3.431  0.4118  0.4713 -1.1854
 2362TIP3   OH228500   4.422   2.977   5.859 -0.4692 -0.2828 -0.4222
 2362TIP3    H128501   4.461   2.889   5.860 -1.2897 -0.6690 -0.8601
 2362TIP3    H228502   4.337   2.964   5.816 -0.4359  0.7978 -0.8287
 2363TIP3   OH228503   5.519   5.599  14.679  0.2161 -0.0747 -0.3261
 2363TIP3    H128504   5.537   5.627  14.769  1.6527 -1.1854 -0.2371
 2363TIP3    H228505   5.587   5.640  14.626  1.7468 -2.4107 -0.3264
 2364TIP3   OH228506   0.063   3.487   2.978 -0.3830 -0.5656 -0.4377
 2364TIP3    H128507  -0.021   3.465   2.936 -0.6288  1.4547 -1.1518
 2364TIP3    H228508   0.040   3.502   3.070 -0.3171 -2.4692 -0.0800
 2365TIP3   OH228509   4.652   0.794   0.206 -0.4005 -0.2763 -0.3965
 2365TIP3    H128510   4.624   0.704   0.225  0.7211 -0.5270  0.1788
 2365TIP3    H228511   4.583   0.830   0.150 -1.4305 -1.1238  0.2909
 2366TIP3   OH228512   2.439   2.122   1.013  0.7428 -0.2183  0.5938
 2366TIP3    H128513   2.460   2.126   0.920 -3.0401 -0.5904 -0.4598
 2366TIP3    H228514   2.465   2.207   1.048  0.7939  0.5353 -1.1859
 2367TIP3   OH228515   0.581   3.284   2.791 -0.1712 -0.3353  0.4104
 2367TIP3    H128516   0.492   3.319   2.783  1.2717  3.5637 -0.8988
 2367TIP3    H228517   0.611   3.273   2.701  1.0605 -0.4393  0.8174
 2368TIP3   OH228518   3.912   0.009   1.461 -0.1002 -0.0713 -0.0968
 2368TIP3    H128519   3.913   0.072   1.533 -0.8496 -0.1160 -0.0387
 2368TIP3    H228520   3.845   0.041   1.401  0.9856  0.3383 -1.1387
 2369TIP3   OH228521   1.390   4.305   3.543 -0.0458  0.0427  0.1137
 2369TIP3    H128522   1.395   4.370   3.473 -1.7996  0.9284  0.7422
 2369TIP3    H228523   1.315   4.251   3.520  0.0556 -0.3692  0.7292
 2370TIP3   OH228524   2.393   1.903  16.615 -0.7055 -0.1901  0.1196
 2370TIP3    H128525   2.336   1.833  16.645 -0.9801 -0.0335 -0.0226
 2370TIP3    H228526   2.420   1.949  16.695  0.2608 -1.0408  0.2992
 2371TIP3   OH228527   5.169   3.177   1.716 -0.6631  0.6132  0.7551
 2371TIP3    H128528   5.252   3.166   1.762  0.0917  0.3130 -0.6504
 2371TIP3    H228529   5.115   3.103   1.747  0.0166  0.1082  0.7419
 2372TIP3   OH228530   1.869   1.046  15.178  0.2543  0.3102 -0.1966
 2372TIP3    H128531   1.841   1.102  15.251 -0.0367 -0.7752  0.5429
 2372TIP3    H228532   1.841   0.958  15.203  0.9200 -0.2125 -1.2308
 2373TIP3   OH228533   4.794   0.374   2.000  0.4550 -0.5907 -0.4186
 2373TIP3    H128534   4.877   0.410   2.034  1.4821 -1.2377 -2.1117
 2373TIP3    H228535   4.790   0.285   2.036  0.0428 -0.2717  0.3509
 2374TIP3   OH228536   3.381   3.415  14.512  0.3255  0.4402  0.2631
 2374TIP3    H128537   3.356   3.496  14.468  2.5654  2.0911  1.8208
 2374TIP3    H228538   3.299   3.383  14.552 -1.1980  0.2831 -2.7215
 2375TIP3   OH228539   3.263   2.502   1.257 -0.2519 -0.0405 -0.4136
 2375TIP3    H128540   3.239   2.594   1.252  1.8433  0.5832  0.1463
 2375TIP3    H228541   3.321   2.488   1.181  1.7536 -0.1002  1.0519
 2376TIP3   OH228542   1.384   1.413  12.273 -0.1196 -0.1119  0.0257
 2376TIP3    H128543   1.436   1.475  12.324 -0.0274 -0.0761 -0.1099
 2376TIP3    H228544   1.448   1.346  12.246 -0.2302 -0.2958  0.2216
 2377TIP3   OH228545   5.981   2.120  13.287 -0.3860 -0.3753 -0.1781
 2377TIP3    H128546   5.966   2.026  13.281  2.1546 -0.8412 -0.1880
 2377TIP3    H228547   5.893   2.158  13.277 -1.4548 -2.6924 -0.4409
 2378TIP3   OH228548   4.969   4.530  13.772  0.0965  0.2525  0.1096
 2378TIP3    H128549   4.923   4.481  13.704  0.8282 -0.1836 -0.0893
 2378TIP3    H228550   5.050   4.481  13.786  1.5721  2.1412 -1.1367
 2379TIP3   OH228551   3.414   0.789   5.692 -0.1757 -0.1721 -0.0412
 2379TIP3    H128552   3.443   0.721   5.631  1.8511  0.0260  0.6354
 2379TIP3    H228553   3.335   0.753   5.732 -0.7610 -0.8947 -1.7507
 2380TIP3   OH228554   5.027   3.593   5.179 -0.5299  0.5293  0.0320
 2380TIP3    H128555   4.999   3.681   5.203 -1.6722  0.2940 -0.3879
 2380TIP3    H228556   5.071   3.560   5.258 -0.1920  1.4255  0.2289
 2381TIP3   OH228557   3.629   4.231   4.228  0.2721  0.5189  0.1024
 2381TIP3    H128558   3.592   4.317   4.250  0.2407  0.3600  0.6702
 2381TIP3    H228559   3.559   4.186   4.181  0.0235  0.5256  0.4629
 2382TIP3   OH228560   2.225   6.065  16.892 -0.1408 -0.2056  0.1097
 2382TIP3    H128561   2.297   6.113  16.852 -0.3312 -0.0686 -0.0729
 2382TIP3    H228562   2.154   6.071  16.828 -0.3841 -0.1544  0.3798
 2383TIP3   OH228563   6.341   6.266  16.820  0.2153 -0.0350 -0.7087
 2383TIP3    H128564   6.326   6.352  16.783 -0.0068 -0.1632 -0.9174
 2383TIP3    H228565   6.423   6.236  16.779 -0.2046 -0.3157 -1.3537
 2384TIP3   OH228566   3.193   3.212  14.305 -0.2047 -0.2464 -0.1203
 2384TIP3    H128567   3.216   3.286  14.249  1.0648 -0.6898 -0.2259
 2384TIP3    H228568   3.213   3.243  14.394 -1.2935  0.1170  0.0091
 2385TIP3   OH228569   6.583   1.968  12.451  0.0280 -0.1408 -0.4235
 2385TIP3    H128570   6.557   2.045  12.502 -2.3798 -2.4150  2.0738
 2385TIP3    H228571   6.516   1.903  12.469  1.9329 -2.8889 -2.4285
 2386TIP3   OH228572   2.173   4.767  15.365  0.2223  0.2476  0.2633
 2386TIP3    H128573   2.147   4.719  15.444  2.2200 -2.3745 -0.5420
 2386TIP3    H228574   2.121   4.729  15.295  2.1997 -1.2319 -0.4757
 2387TIP3   OH228575   2.190   4.114  12.182  0.1059 -0.2546  0.2203
 2387TIP3    H128576   2.190   4.130  12.088 -0.2075 -0.3428  0.2017
 2387TIP3    H228577   2.252   4.177  12.218 -0.1649  0.1355  0.0133
 2388TIP3   OH228578   1.612   0.948  15.708 -0.6454  0.2936  0.7535
 2388TIP3    H128579   1.693   0.989  15.677 -0.0894 -0.8721  0.6014
 2388TIP3    H228580   1.567   1.018  15.756  0.8446  0.7671  1.5536
 2389TIP3   OH228581   1.635   4.727  13.848  0.5244 -0.2793  0.5565
 2389TIP3    H128582   1.666   4.676  13.773 -1.4546  0.4477 -0.8223
 2389TIP3    H228583   1.548   4.691  13.868 -0.1858  1.3843  0.6542
 2390TIP3   OH228584   3.451   1.989  14.135 -0.0959  1.1550 -0.0399
 2390TIP3    H128585   3.508   1.996  14.211 -2.6906 -0.6288  2.2281
 2390TIP3    H228586   3.464   1.900  14.103 -2.1795  0.3694  1.1214
 2391TIP3   OH228587   5.848   2.755   3.511 -0.4151 -0.4270  0.2938
 2391TIP3    H128588   5.900   2.834   3.493  1.1678 -2.0434 -3.1060
 2391TIP3    H228589   5.766   2.770   3.465 -0.7029 -0.2322  0.8547
 2392TIP3   OH228590   3.825   2.839  11.143 -0.0979  0.1957 -0.5671
 2392TIP3    H128591   3.895   2.881  11.093  0.9241  0.1438  0.7511
 2392TIP3    H228592   3.795   2.767  11.088  2.5408 -1.2670 -0.1970
 2393TIP3   OH228593   5.913   1.246  15.306 -0.7003 -0.1227  0.2109
 2393TIP3    H128594   5.826   1.220  15.275 -0.2797 -0.1772 -0.9731
 2393TIP3    H228595   5.973   1.183  15.265  0.4338  2.8529 -3.3001
 2394TIP3   OH228596   4.092   5.567   1.767 -0.1387  0.3335 -0.3873
 2394TIP3    H128597   4.184   5.592   1.769 -0.2211  0.5923  1.3523
 2394TIP3    H228598   4.056   5.598   1.850 -2.1261  1.4414 -1.5822
 2395TIP3   OH228599   0.563   3.859   1.365  0.3997 -0.0599  0.3150
 2395TIP3    H128600   0.596   3.933   1.314 -0.0124  0.7075  1.1312
 2395TIP3    H228601   0.556   3.892   1.454 -0.2415 -0.9472  0.6141
 2396TIP3   OH228602   5.689   3.487   0.147  0.1818 -0.6409  0.0095
 2396TIP3    H128603   5.670   3.395   0.168  0.3627 -0.1426  2.5872
 2396TIP3    H228604   5.607   3.521   0.112 -0.3627 -1.3793  0.5432
 2397TIP3   OH228605   2.556   5.176  12.063 -0.3580  0.8916  0.3480
 2397TIP3    H128606   2.530   5.091  12.098 -1.4049  1.1886  0.3241
 2397TIP3    H228607   2.514   5.240  12.121  0.3658  1.3943  0.3299
 2398TIP3   OH228608   1.802   6.456   0.118  0.2822  0.2393 -0.1291
 2398TIP3    H128609   1.794   6.393   0.190 -0.5926  0.3221 -0.1483
 2398TIP3    H228610   1.791   6.404   0.039 -1.4600  0.5478 -0.1201
 2399TIP3   OH228611   6.649   1.174  16.948  0.0184 -0.1122 -0.5604
 2399TIP3    H128612   6.617   1.167  17.038  0.5762 -0.8497 -0.4132
 2399TIP3    H228613   6.591   1.116  16.898  1.5558 -2.0973 -0.1607
 2400TIP3   OH228614   2.865   5.533   3.610 -0.0542 -0.2059 -0.0601
 2400TIP3    H128615   2.799   5.590   3.650 -0.7374 -0.2523 -1.0952
 2400TIP3    H228616   2.822   5.497   3.533  0.4873 -1.8628  0.3768
 2401TIP3   OH228617   0.547   2.160   5.350  0.0672 -0.0795  0.5116
 2401TIP3    H128618   0.473   2.192   5.401 -0.0277 -0.1311  0.4057
 2401TIP3    H228619   0.523   2.177   5.259  0.8247  1.2785  0.5365
 2402TIP3   OH228620   2.152   4.818   5.452 -0.1612  0.2029  0.0765
 2402TIP3    H128621   2.217   4.874   5.494  0.7286 -0.2607 -0.6561
 2402TIP3    H228622   2.145   4.852   5.363 -0.7613  0.0981  0.0753
 2403TIP3   OH228623   1.281   2.888  14.885  0.6128  0.4364 -0.0701
 2403TIP3    H128624   1.272   2.801  14.848 -1.6350  0.0920  1.1116
 2403TIP3    H228625   1.288   2.874  14.980  1.7647  1.4907  0.0329
 2404TIP3   OH228626   5.494   1.943   1.518 -0.1359  0.1272  0.1954
 2404TIP3    H128627   5.458   2.016   1.570  0.8253 -0.7021  2.1506
 2404TIP3    H228628   5.558   1.984   1.460 -1.0594  1.0707 -0.1785
 2405TIP3   OH228629   3.983   0.830   2.654  0.6661 -0.4503  0.1723
 2405TIP3    H128630   3.911   0.808   2.713 -0.0361  0.9230 -0.1359
 2405TIP3    H228631   4.051   0.766   2.675  0.6431  0.2879  2.8062
 2406TIP3   OH228632   3.787   0.617   3.775  0.9181 -0.3031 -0.1719
 2406TIP3    H128633   3.800   0.709   3.752  1.2557 -0.1419  0.6507
 2406TIP3    H228634   3.711   0.590   3.724 -0.3404  0.9465  0.9652
 2407TIP3   OH228635   6.065   5.633   4.844 -0.5429  0.5422  0.1969
 2407TIP3    H128636   6.049   5.614   4.936 -3.5828 -0.2438 -0.3801
 2407TIP3    H228637   6.051   5.728   4.836  0.7255  0.7888  0.6649
 2408TIP3   OH228638   6.403   2.871   0.582  0.1944 -0.2684  0.0202
 2408TIP3    H128639   6.377   2.955   0.543 -0.2217 -1.2722 -2.0143
 2408TIP3    H228640   6.463   2.833   0.518  0.2055 -1.6263  0.8017
 2409TIP3   OH228641   3.655   1.150  12.975 -0.5813 -0.3550 -0.1340
 2409TIP3    H128642   3.588   1.114  12.917 -1.2188  1.5618 -0.6683
 2409TIP3    H228643   3.730   1.166  12.918  0.1327 -1.8430  0.3294
 2410TIP3   OH228644   0.746   0.763  11.970  0.4350 -0.1536  0.2914
 2410TIP3    H128645   0.682   0.709  11.926 -1.0493  0.3266  1.7592
 2410TIP3    H228646   0.758   0.839  11.913 -0.7122 -0.0030  0.2454
 2411TIP3   OH228647   2.198   6.353  15.406  0.1857 -0.2365 -0.5505
 2411TIP3    H128648   2.103   6.361  15.407  0.1253 -0.6329 -1.6173
 2411TIP3    H228649   2.227   6.424  15.348  0.5832  0.2282  0.2055
 2412TIP3   OH228650   3.805   5.744  14.066  0.6792  0.5465 -0.1801
 2412TIP3    H128651   3.766   5.806  14.005  0.6974  2.0903  1.3139
 2412TIP3    H228652   3.839   5.674  14.010  0.4004  1.7248 -1.9039
 2413TIP3   OH228653   4.761   6.009   1.886 -0.3907  0.1276 -0.2951
 2413TIP3    H128654   4.724   6.097   1.885  0.0237  0.3128  0.4577
 2413TIP3    H228655   4.822   6.009   1.960 -1.6810 -1.3202  0.8238
 2414TIP3   OH228656   5.179   0.135   6.117  0.4408  0.0844 -0.2782
 2414TIP3    H128657   5.103   0.118   6.171 -0.7501  1.2029 -1.5130
 2414TIP3    H228658   5.233   0.056   6.125 -1.1438 -0.9951  0.1316
 2415TIP3   OH228659   2.565   5.767  15.621  0.1125  0.3133  0.2103
 2415TIP3    H128660   2.483   5.813  15.603 -0.1871 -0.9432 -2.0050
 2415TIP3    H228661   2.626   5.835  15.648 -1.0154  1.6209 -0.4323
 2416TIP3   OH228662   4.459   4.710  14.536 -0.0407  0.4971  0.1527
 2416TIP3    H128663   4.400   4.767  14.584 -2.9824 -0.0017 -2.5216
 2416TIP3    H228664   4.495   4.765  14.466  0.0018 -0.0296 -0.2489
 2417TIP3   OH228665   0.614   2.545  14.535 -0.5100  0.7062  0.2735
 2417TIP3    H128666   0.631   2.634  14.566 -1.0362  1.8662 -2.4167
 2417TIP3    H228667   0.560   2.557  14.457 -0.4841 -1.9867 -0.2651
 2418TIP3   OH228668   4.104   3.125   4.436 -0.2166  0.0857 -0.0073
 2418TIP3    H128669   4.093   3.195   4.500  1.0173 -1.0163  1.4904
 2418TIP3    H228670   4.197   3.129   4.412 -0.3196 -0.5006 -0.5178
 2419TIP3   OH228671   3.291   3.572  12.160 -0.0950  0.2298 -0.4292
 2419TIP3    H128672   3.212   3.539  12.116 -0.1077 -0.4237  0.0671
 2419TIP3    H228673   3.277   3.666  12.166 -0.7689  0.1430 -0.4994
 2420TIP3   OH228674   1.609   5.361  14.488 -0.0668  0.3309 -0.6324
 2420TIP3    H128675   1.701   5.387  14.486  0.3389 -1.0349 -0.9833
 2420TIP3    H228676   1.611   5.265  14.492 -1.4732  0.3122  0.7097
 2421TIP3   OH228677   6.640   1.544  17.170  0.1241  0.1600  0.0875
 2421TIP3    H128678   6.680   1.629  17.189  0.3041  0.9137 -3.0001
 2421TIP3    H228679   6.712   1.481  17.180  1.3991  1.0937 -2.2779
 2422TIP3   OH228680   0.196   1.685   0.050  0.4423  0.2983 -0.6346
 2422TIP3    H128681   0.209   1.651  -0.039 -3.2978  0.6991 -1.4830
 2422TIP3    H228682   0.206   1.780   0.041 -0.5086  0.3917 -0.7878
 2423TIP3   OH228683   2.579   5.196   3.015 -0.2151 -0.1247 -0.4486
 2423TIP3    H128684   2.567   5.200   3.110  1.5159  0.1528 -0.2056
 2423TIP3    H228685   2.510   5.137   2.984 -0.2738 -0.8887  1.0825
 2424TIP3   OH228686   4.322   3.908  16.869 -0.3031  0.0444 -0.3447
 2424TIP3    H128687   4.284   3.820  16.868  1.2567 -0.6449 -0.2252
 2424TIP3    H228688   4.272   3.955  16.801  0.0131 -1.4431 -1.6635
 2425TIP3   OH228689   0.170   2.802   5.198  0.3472 -0.5636  0.0365
 2425TIP3    H128690   0.176   2.895   5.216  1.2269 -0.2641 -1.5648
 2425TIP3    H228691   0.170   2.760   5.284 -1.3444  0.9397  0.8152
 2426TIP3   OH228692   6.269   3.646  11.026 -0.2805 -0.2725 -0.0767
 2426TIP3    H128693   6.201   3.712  11.044  1.2631  1.2797  0.3217
 2426TIP3    H228694   6.243   3.571  11.079 -2.8832 -0.6148 -1.6468
 2427TIP3   OH228695   1.279   5.060  13.462  0.3998 -0.2131 -0.4582
 2427TIP3    H128696   1.188   5.038  13.442 -0.3547  0.8194  1.5947
 2427TIP3    H228697   1.322   4.975  13.471 -0.7814 -0.7689  0.2841
 2428TIP3   OH228698   0.162   4.279   4.668 -0.3575 -0.0807  0.7611
 2428TIP3    H128699   0.078   4.300   4.708 -0.3646 -1.5917  1.6075
 2428TIP3    H228700   0.159   4.322   4.582 -1.9719 -0.0962  0.7858
 2429TIP3   OH228701   3.250   0.877   5.047  0.3268 -0.1446  0.0482
 2429TIP3    H128702   3.173   0.849   5.098 -0.8345  1.5126 -0.7057
 2429TIP3    H228703   3.299   0.796   5.032 -0.8798 -1.1375  1.1958
 2430TIP3   OH228704   3.164   0.490   0.704  0.6295  0.4260  0.1421
 2430TIP3    H128705   3.104   0.495   0.629  0.9147  1.5013 -0.0291
 2430TIP3    H228706   3.134   0.414   0.753 -1.6930  1.6547  0.7713
 2431TIP3   OH228707   5.760   0.727  12.168 -0.0597  0.2602 -0.2346
 2431TIP3    H128708   5.846   0.710  12.206 -0.2652  1.8707  1.0378
 2431TIP3    H228709   5.776   0.794  12.102  0.0701 -1.5191 -2.1126
 2432TIP3   OH228710   1.648   1.818   2.314  0.5836  0.0926  0.0288
 2432TIP3    H128711   1.580   1.820   2.247 -0.6629  2.5987  1.2163
 2432TIP3    H228712   1.601   1.832   2.396  2.1001 -2.4854  1.4722
 2433TIP3   OH228713   4.281   1.013   3.695  0.0885 -0.4580  0.0517
 2433TIP3    H128714   4.339   0.986   3.766  1.3011 -0.8347 -1.0345
 2433TIP3    H228715   4.300   1.106   3.682  0.3930 -0.5586 -0.2402
 2434TIP3   OH228716   5.545   4.455   0.445 -0.0768 -0.2965  0.2798
 2434TIP3    H128717   5.581   4.383   0.392 -1.2360 -0.5342 -0.2033
 2434TIP3    H228718   5.591   4.533   0.414  0.8375 -0.7523  0.4618
 2435TIP3   OH228719   2.481   5.739   5.207  0.5058  0.4918 -0.1769
 2435TIP3    H128720   2.531   5.659   5.219  2.4174  1.6206 -0.1772
 2435TIP3    H228721   2.454   5.737   5.115  1.7897  0.4907 -0.5792
 2436TIP3   OH228722   5.328   3.453   3.930 -0.0565 -0.2798 -0.4279
 2436TIP3    H128723   5.406   3.397   3.921  0.8611  1.0535 -1.1925
 2436TIP3    H228724   5.359   3.541   3.908 -1.4791  0.5364  0.6432
 2437TIP3   OH228725   0.256   6.440  11.931 -0.7482  0.5102 -0.4231
 2437TIP3    H128726   0.299   6.368  11.977 -0.0414 -0.8154 -3.0032
 2437TIP3    H228727   0.171   6.404  11.904 -1.5014  1.5400  0.4541
 2438TIP3   OH228728   1.526   0.020  17.103 -0.0684  0.2744 -0.3067
 2438TIP3    H128729   1.621   0.029  17.115 -0.0698  1.4861 -0.9992
 2438TIP3    H228730   1.516  -0.050  17.040  0.3366 -0.2372  0.1877
 2439TIP3   OH228731   4.944   3.973  15.417 -0.9788 -0.2209  0.1826
 2439TIP3    H128732   4.975   4.052  15.371 -0.8051 -0.8041 -0.7372
 2439TIP3    H228733   4.849   3.974  15.404 -0.8815 -0.6434 -0.6480
 2440TIP3   OH228734   6.660   5.705   0.448  0.0494 -0.1217 -0.3423
 2440TIP3    H128735   6.735   5.728   0.393  0.0144 -2.8163 -1.7164
 2440TIP3    H228736   6.617   5.634   0.400 -2.4065  0.1968  1.2429
 2441TIP3   OH228737   2.446   1.831   3.613  0.4176  0.0737  0.6741
 2441TIP3    H128738   2.362   1.862   3.579  0.8164  0.7422  0.2769
 2441TIP3    H228739   2.483   1.907   3.658  0.8131 -0.2222  0.8502
 2442TIP3   OH228740   6.575   5.240  13.707 -0.2605  0.0648  0.3135
 2442TIP3    H128741   6.605   5.166  13.760  1.2713 -0.4894 -1.2400
 2442TIP3    H228742   6.483   5.251  13.732 -0.3290 -1.8851  1.1238
 2443TIP3   OH228743   0.929   1.875   0.289  0.1196 -0.0167 -0.4504
 2443TIP3    H128744   0.956   1.786   0.264  2.0091  0.5545 -0.6178
 2443TIP3    H228745   0.929   1.874   0.384 -0.2283 -0.3019 -0.4528
 2444TIP3   OH228746   5.536   5.747  11.401  0.3434  0.7279 -0.3107
 2444TIP3    H128747   5.597   5.689  11.355  0.3331  0.5749 -0.1287
 2444TIP3    H228748   5.538   5.829  11.350  1.3636  1.0289  0.1934
 2445TIP3   OH228749   5.887   1.684   6.090  0.2300  0.9406  0.3247
 2445TIP3    H128750   5.926   1.768   6.065  0.1825  0.0045 -3.5053
 2445TIP3    H228751   5.956   1.641   6.142  1.6287  2.0278 -0.5364
 2446TIP3   OH228752   2.500   0.548   4.456 -0.1476 -0.7606 -0.5049
 2446TIP3    H128753   2.568   0.502   4.406  1.5024  0.6780  0.2804
 2446TIP3    H228754   2.548   0.592   4.526 -1.8950  0.4503 -0.0029
 2447TIP3   OH228755   2.194   0.627  12.062  0.3791 -0.2456  0.1967
 2447TIP3    H128756   2.267   0.569  12.042  0.8888  0.9248 -1.6081
 2447TIP3    H228757   2.136   0.621  11.986  0.5579  1.6919 -0.1629
 2448TIP3   OH228758   3.951   5.778   3.469 -0.0959  0.7291  0.0274
 2448TIP3    H128759   3.897   5.854   3.490 -0.8969  0.2060 -0.1075
 2448TIP3    H228760   4.028   5.815   3.424 -0.3218  1.4768  0.2402
 2449TIP3   OH228761   3.073   0.149   5.290  0.3890  0.2122  0.5609
 2449TIP3    H128762   2.981   0.122   5.281  0.6149 -0.2286 -0.5727
 2449TIP3    H228763   3.102   0.108   5.372 -0.6634  1.0968  1.4200
 2450TIP3   OH228764   0.783   4.455   2.879 -0.4474 -0.1267  0.0968
 2450TIP3    H128765   0.722   4.400   2.928 -2.2172  0.9155 -0.8393
 2450TIP3    H228766   0.732   4.488   2.805  1.2079  0.9508 -0.6253
 2451TIP3   OH228767   6.464   6.346   1.942 -0.1700 -0.8949 -0.2277
 2451TIP3    H128768   6.429   6.413   2.001 -0.2050  0.4355 -1.6864
 2451TIP3    H228769   6.558   6.365   1.938  0.3110 -2.6227  1.3846
 2452TIP3   OH228770   1.840   6.067   5.112  0.3764 -0.3142 -0.4969
 2452TIP3    H128771   1.858   6.114   5.031  0.6954 -0.2524 -0.3929
 2452TIP3    H228772   1.806   5.982   5.084  0.8871 -0.4550 -0.7067
 2453TIP3   OH228773   6.265   4.181  12.174  0.4432  0.0032  0.2610
 2453TIP3    H128774   6.235   4.237  12.245  0.4841  0.6898 -0.2638
 2453TIP3    H228775   6.262   4.235  12.096  2.2093 -0.1473  0.0369
 2454TIP3   OH228776   6.491   5.196  14.436 -0.1793 -0.4118  0.5290
 2454TIP3    H128777   6.548   5.207  14.512  0.8502  0.0437 -0.2752
 2454TIP3    H228778   6.546   5.151  14.371 -1.6175 -2.5876  0.6858
 2455TIP3   OH228779   3.498   4.061  13.098 -0.2195  0.3548  0.6360
 2455TIP3    H128780   3.417   4.097  13.063  0.6469  1.4170 -0.4094
 2455TIP3    H228781   3.498   3.970  13.071 -1.3602  0.1587  1.2424
 2456TIP3   OH228782   0.947   1.575   1.757 -0.1217 -0.1547  0.2215
 2456TIP3    H128783   0.902   1.595   1.839  0.3456 -0.8098  0.6492
 2456TIP3    H228784   0.943   1.656   1.706 -0.8281  0.1152  0.6967
 2457TIP3   OH228785   5.770   0.325  15.998 -0.2543  0.2577 -0.1395
 2457TIP3    H128786   5.777   0.371  15.914 -2.0852  0.6870 -0.0920
 2457TIP3    H228787   5.733   0.388  16.058 -0.1123 -0.4261  0.6891
 2458TIP3   OH228788   3.313   0.385   4.537 -0.0057  0.2706  0.3964
 2458TIP3    H128789   3.243   0.386   4.472 -0.2793 -0.2712  0.6656
 2458TIP3    H228790   3.366   0.462   4.518 -0.0259  0.0600 -0.5224
 2459TIP3   OH228791   5.406   0.140   3.597 -0.5768 -0.4140 -0.1533
 2459TIP3    H128792   5.386   0.099   3.682 -1.0781 -0.0323 -0.0786
 2459TIP3    H228793   5.485   0.191   3.613 -1.5891  0.9975  0.5467
 2460TIP3   OH228794   5.700   5.564  11.856  0.4261 -0.0571 -0.1007
 2460TIP3    H128795   5.780   5.577  11.807 -0.1991 -0.1618 -1.1814
 2460TIP3    H228796   5.631   5.597  11.799 -0.3680 -0.6282  0.4997
 2461TIP3   OH228797   3.325   5.575   4.881  0.5728 -0.3873 -0.2904
 2461TIP3    H128798   3.417   5.600   4.878  0.7452 -0.8027  0.9197
 2461TIP3    H228799   3.325   5.486   4.918 -0.4428  0.7265  2.6945
 2462TIP3   OH228800   1.307   5.693  12.551  0.3863 -0.2742 -0.6966
 2462TIP3    H128801   1.324   5.773  12.601  0.8340  1.0036 -2.7763
 2462TIP3    H228802   1.213   5.679  12.558 -0.0035  1.5391 -1.7957
 2463TIP3   OH228803   6.699   5.628   2.457  0.4654 -0.2707  0.1813
 2463TIP3    H128804   6.766   5.563   2.437  0.7463  0.0804 -0.0209
 2463TIP3    H228805   6.637   5.621   2.384  0.1721 -0.7317  0.4676
 2464TIP3   OH228806   6.296   4.573  13.990  0.0122  0.0188  0.0708
 2464TIP3    H128807   6.329   4.616  14.069 -0.8901  1.6895 -0.4031
 2464TIP3    H228808   6.365   4.512  13.964  1.3177  1.1160  0.8651
 2465TIP3   OH228809   0.865   2.796   0.214  0.7441 -0.0659 -0.2091
 2465TIP3    H128810   0.923   2.867   0.238 -0.4871  1.3319 -1.1841
 2465TIP3    H228811   0.878   2.785   0.119  0.3001 -0.5472 -0.2225
 2466TIP3   OH228812   1.865   2.840  12.913 -0.0532  0.3274  0.1906
 2466TIP3    H128813   1.830   2.809  12.829  1.4596 -2.9049  0.6010
 2466TIP3    H228814   1.798   2.816  12.977  0.6345 -1.2961  0.3634
 2467TIP3   OH228815   6.448   5.487   5.828 -0.4269 -0.5480  0.9961
 2467TIP3    H128816   6.542   5.472   5.832 -0.1582  0.6169 -0.5022
 2467TIP3    H228817   6.413   5.433   5.899  1.3852 -0.7382  1.8011
 2468TIP3   OH228818   0.302   3.878   4.820  0.3677 -0.1445  0.2950
 2468TIP3    H128819   0.336   3.954   4.867 -0.5551 -0.3299  1.2851
 2468TIP3    H228820   0.256   3.916   4.745  0.3627  0.2366  0.4862
 2469TIP3   OH228821   2.053   3.127  11.259  0.6801 -0.0974  0.1471
 2469TIP3    H128822   2.031   3.045  11.303  1.3098 -0.6802 -0.6103
 2469TIP3    H228823   1.969   3.173  11.253  0.3369 -0.6303  0.6801
 2470TIP3   OH228824   4.340   1.584   1.012 -0.1716  0.0152 -0.6281
 2470TIP3    H128825   4.289   1.663   1.033  0.2788  0.2451 -0.3878
 2470TIP3    H228826   4.425   1.617   0.984 -0.7289 -0.2892 -2.8121
 2471TIP3   OH228827   0.529   2.294  16.982 -0.0824 -0.2935  0.4378
 2471TIP3    H128828   0.448   2.272  17.028  0.5321  0.4068  1.9315
 2471TIP3    H228829   0.597   2.291  17.049  1.1907 -1.0694 -0.8202
 2472TIP3   OH228830   0.809   2.016   5.322 -0.5117  0.2533 -0.3344
 2472TIP3    H128831   0.731   2.056   5.360 -1.0804 -0.7802 -0.3921
 2472TIP3    H228832   0.870   2.089   5.311 -0.4730  0.6657  2.1102
 2473TIP3   OH228833   2.233   0.949   5.197  0.2114  0.6311 -0.1214
 2473TIP3    H128834   2.201   0.879   5.254  0.6320 -0.4887 -1.1857
 2473TIP3    H228835   2.209   1.030   5.241  0.8847 -0.1741  1.8428
 2474TIP3   OH228836   5.666   0.887   5.929  0.4800 -0.2121 -1.4191
 2474TIP3    H128837   5.712   0.971   5.930 -0.9743  0.6177 -0.2123
 2474TIP3    H228838   5.716   0.831   5.988 -0.4617  0.9579  0.6049
 2475TIP3   OH228839   4.182   1.082  11.683 -0.1221 -0.5584 -0.5913
 2475TIP3    H128840   4.238   1.154  11.654 -1.6394  2.3267  2.8480
 2475TIP3    H228841   4.221   1.053  11.765 -1.5927 -1.0070 -0.0074
 2476TIP3   OH228842   0.104   6.279   3.396  0.2550  0.4186 -0.6808
 2476TIP3    H128843   0.177   6.290   3.335  0.0292  0.4116 -0.9540
 2476TIP3    H228844   0.082   6.368   3.423 -0.5096  0.5250 -1.6344
 2477TIP3   OH228845   4.322   1.932  17.192  0.0991 -0.3770 -0.1845
 2477TIP3    H128846   4.295   2.000  17.253  1.1528 -0.3468  0.2787
 2477TIP3    H228847   4.418   1.936  17.192  0.1711 -1.6312 -0.4003
 2478TIP3   OH228848   1.215   4.491   5.193 -0.6609 -0.2526 -0.1501
 2478TIP3    H128849   1.140   4.490   5.252 -0.6667 -1.3768 -0.1566
 2478TIP3    H228850   1.177   4.485   5.106 -0.5951 -0.1552 -0.1854
 2479TIP3   OH228851   0.808   4.170  17.248 -0.3862 -0.5058 -0.0291
 2479TIP3    H128852   0.901   4.164  17.227 -0.0593 -1.8062  1.5783
 2479TIP3    H228853   0.773   4.084  17.229 -0.8394 -0.6019  1.1327
 2480TIP3   OH228854   6.338   3.057   1.104 -0.0912 -0.1060 -0.2812
 2480TIP3    H128855   6.250   3.092   1.093  0.9408  2.4330 -1.0348
 2480TIP3    H228856   6.366   3.032   1.016  1.3899  3.0459 -0.8480
 2481TIP3   OH228857   2.119   1.087   2.275 -0.0255 -0.3788  0.3354
 2481TIP3    H128858   2.112   1.043   2.190 -0.1814 -0.1475  0.2265
 2481TIP3    H228859   2.176   1.031   2.327 -0.5021 -0.8925  0.3112
 2482TIP3   OH228860   0.705   4.945   1.610 -0.1699 -0.0066  0.2820
 2482TIP3    H128861   0.722   4.858   1.576  0.4061 -0.2380  1.1199
 2482TIP3    H228862   0.655   4.931   1.690 -1.1083  0.5010 -0.2013
 2483TIP3   OH228863   0.732   4.114   2.476 -0.0350 -0.1148  0.0144
 2483TIP3    H128864   0.711   4.021   2.474 -0.5388  0.0026 -1.1663
 2483TIP3    H228865   0.650   4.157   2.502  0.2037  0.0027  0.5877
 2484TIP3   OH228866   3.724   1.408  15.295  0.2891 -0.1994  0.6965
 2484TIP3    H128867   3.772   1.329  15.269  1.8386  1.1126 -0.6188
 2484TIP3    H228868   3.718   1.402  15.390  1.8871 -1.0760  0.7761
 2485TIP3   OH228869   5.808   6.251   4.410 -0.0376 -0.0152  0.2560
 2485TIP3    H128870   5.785   6.169   4.453  0.8075 -0.1602  0.4441
 2485TIP3    H228871   5.745   6.315   4.445  0.1940 -0.2763  1.1728
 2486TIP3   OH228872   1.804   4.141  15.458  0.5621  0.0419 -0.3739
 2486TIP3    H128873   1.850   4.058  15.460  0.5861 -0.0214 -1.9770
 2486TIP3    H228874   1.760   4.147  15.543  0.5894 -1.5753 -0.2201
 2487TIP3   OH228875   6.274   5.310  16.180 -0.3975 -0.0340  0.1838
 2487TIP3    H128876   6.256   5.311  16.274  0.1910 -0.3096  0.3048
 2487TIP3    H228877   6.347   5.370  16.169 -0.5674  0.1157 -0.1192
 2488TIP3   OH228878   4.061   5.521  11.945 -0.7982  0.6143  0.1293
 2488TIP3    H128879   4.130   5.456  11.956 -0.6640  0.6437 -0.5098
 2488TIP3    H228880   3.994   5.478  11.891 -0.5344  1.1203 -0.6210
 2489TIP3   OH228881   0.090   5.394   4.841  0.2790 -0.4065 -0.1729
 2489TIP3    H128882   0.058   5.307   4.818 -1.6341 -0.2478  1.5908
 2489TIP3    H228883   0.106   5.437   4.757 -0.7146 -1.7775 -1.0958
 2490TIP3   OH228884   6.567   4.084  13.719  0.6993  0.3758 -0.1025
 2490TIP3    H128885   6.614   4.167  13.715 -0.8269  1.3368  0.9024
 2490TIP3    H228886   6.480   4.104  13.685  0.1860 -0.7392  0.4845
 2491TIP3   OH228887   3.518   0.937  11.491 -0.2634 -0.0631 -0.1561
 2491TIP3    H128888   3.573   0.905  11.419  0.9943 -0.5977  1.0095
 2491TIP3    H228889   3.575   0.996  11.541 -0.1700 -1.8364  1.9873
 2492TIP3   OH228890   4.822   5.089  16.091 -0.1320  0.1590 -0.0868
 2492TIP3    H128891   4.802   5.170  16.139 -1.0278  0.6433 -1.2033
 2492TIP3    H228892   4.873   5.119  16.015 -1.5310 -0.1107 -1.1876
 2493TIP3   OH228893   4.781   1.061   4.174  0.4448  0.0657 -0.3458
 2493TIP3    H128894   4.833   1.082   4.252 -0.9062  1.0985  0.3216
 2493TIP3    H228895   4.829   0.988   4.133 -0.0964 -2.3321  2.8233
 2494TIP3   OH228896   0.981   1.336  16.680 -0.5871  0.1805  0.1797
 2494TIP3    H128897   1.000   1.406  16.743  1.2430 -0.7910  0.7950
 2494TIP3    H228898   1.047   1.347  16.612 -0.5331 -0.7062  0.0850
 2495TIP3   OH228899   1.736   5.084   4.066 -0.2082  0.0374 -0.3273
 2495TIP3    H128900   1.718   5.036   3.985  1.1369  0.1475 -0.7219
 2495TIP3    H228901   1.819   5.047   4.097  0.1512  1.1557  0.0907
 2496TIP3   OH228902   4.484   5.479  14.213 -0.1856  0.2105 -0.5774
 2496TIP3    H128903   4.407   5.533  14.196 -0.7100  0.2348  1.5701
 2496TIP3    H228904   4.454   5.414  14.277  1.5146  0.1059  0.1765
 2497TIP3   OH228905   4.194   1.797  17.000 -0.3783 -0.2357  0.1373
 2497TIP3    H128906   4.228   1.855  17.068 -0.3091 -1.6173  1.3209
 2497TIP3    H228907   4.271   1.756  16.962 -0.4195  0.5035 -0.7917
 2498TIP3   OH228908   4.692   5.125  14.351  0.4692 -0.4696  0.5372
 2498TIP3    H128909   4.742   5.075  14.287 -0.6511 -1.7025  0.5653
 2498TIP3    H228910   4.638   5.059  14.395 -2.8742  0.9704 -1.0457
 2499TIP3   OH228911   5.733   5.880  17.336  0.8121 -0.3594  0.2142
 2499TIP3    H128912   5.807   5.862  17.278  1.4440  0.8822  0.5963
 2499TIP3    H228913   5.666   5.817  17.310  1.5914 -0.7449 -0.9212
 2500TIP3   OH228914   4.326   1.120  16.639  0.0429 -0.0001 -0.1371
 2500TIP3    H128915   4.336   1.164  16.554 -0.9246  0.0932 -0.2078
 2500TIP3    H228916   4.404   1.147  16.688 -0.1659  1.2233 -0.4383
 2501TIP3   OH228917   1.765   6.374   3.572 -0.1750  0.1378 -0.6806
 2501TIP3    H128918   1.839   6.435   3.577  0.7704 -0.8486 -2.1176
 2501TIP3    H228919   1.693   6.428   3.537  0.3184  0.6981 -0.8533
 2502TIP3   OH228920   2.045   5.574   4.193  0.0117  0.3017 -0.2179
 2502TIP3    H128921   2.110   5.573   4.263 -0.6157  0.0701  0.3635
 2502TIP3    H228922   1.998   5.656   4.205  0.5542  0.7359 -0.9804
 2503TIP3   OH228923   4.329   6.567  16.505  0.0768  0.4244  0.6924
 2503TIP3    H128924   4.273   6.512  16.451 -0.2492  0.8571  0.5848
 2503TIP3    H228925   4.391   6.606  16.444 -0.4638  1.1287  0.5703
 2504TIP3   OH228926   4.582   6.394   2.022 -0.0074  0.3919  0.3226
 2504TIP3    H128927   4.673   6.403   2.053 -0.1189  2.0090  0.2763
 2504TIP3    H228928   4.587   6.329   1.953  0.9452 -0.2935  1.0083
 2505TIP3   OH228929   0.542   4.942  12.902 -0.4031 -0.2604  0.4679
 2505TIP3    H128930   0.629   4.971  12.872 -2.0788  3.6638 -1.3217
 2505TIP3    H228931   0.508   4.890  12.829 -0.4027  0.1282  0.1871
 2506TIP3   OH228932   5.611   6.627   1.555  0.4455 -0.5263  0.1789
 2506TIP3    H128933   5.516   6.614   1.557  0.1917  0.9323 -0.6983
 2506TIP3    H228934   5.638   6.618   1.647 -0.8007  0.5958  0.6925
 2507TIP3   OH228935   5.032   6.526  16.784 -0.9672 -0.0729 -0.2721
 2507TIP3    H128936   5.101   6.489  16.730  0.3662  0.9578  0.6510
 2507TIP3    H228937   4.979   6.451  16.812  0.0491 -0.9315 -0.6255
 2508TIP3   OH228938   2.517   2.999   0.282  0.3052 -0.5116 -0.3250
 2508TIP3    H128939   2.470   3.052   0.346  1.9247  1.5212 -0.7201
 2508TIP3    H228940   2.529   2.914   0.326  0.7013  0.5787  1.7860
 2509TIP3   OH228941   0.364   3.986  11.024  0.3902 -0.1598 -0.0859
 2509TIP3    H128942   0.396   4.044  10.955  4.3842 -3.1818 -1.1660
 2509TIP3    H228943   0.395   4.025  11.106  0.3417  0.7291 -0.4848
 2510TIP3   OH228944   6.071   4.932  16.140  0.7037 -0.6135 -0.6487
 2510TIP3    H128945   6.018   4.909  16.216  1.9506 -0.4056  0.3030
 2510TIP3    H228946   6.037   5.018  16.113  0.7773 -0.3298  0.1518
 2511TIP3   OH228947   4.699   3.461  11.036  0.1498 -0.1947  0.1089
 2511TIP3    H128948   4.639   3.387  11.054  0.8864 -0.7144  0.4761
 2511TIP3    H228949   4.786   3.422  11.037  0.4725  0.4531 -0.9957
 2512TIP3   OH228950   6.228   3.154  17.232  0.1367  0.1894 -0.1408
 2512TIP3    H128951   6.148   3.182  17.187  0.0847  0.3222  0.0351
 2512TIP3    H228952   6.205   3.069  17.271 -0.6742  1.2569  1.8786
 2513TIP3   OH228953   2.677   3.168  17.106 -0.0161 -0.4365  0.2081
 2513TIP3    H128954   2.763   3.129  17.120  0.2236  0.9094  3.0279
 2513TIP3    H228955   2.688   3.261  17.126 -1.5969  0.3037 -1.9046
 2514TIP3   OH228956   0.638   4.937   5.573 -0.0859 -0.1548 -0.4694
 2514TIP3    H128957   0.672   5.005   5.631  0.5808 -0.4904 -0.4581
 2514TIP3    H228958   0.651   4.856   5.622  2.2541 -0.6894 -1.8000
 2515TIP3   OH228959   1.484   1.618   1.253 -0.2571 -0.3249 -0.1668
 2515TIP3    H128960   1.400   1.576   1.275  0.2059 -0.7388  0.8874
 2515TIP3    H228961   1.462   1.681   1.184 -2.0583  1.8023  2.1307
 2516TIP3   OH228962   5.675   2.690   2.497  0.1460  1.3119 -0.7219
 2516TIP3    H128963   5.593   2.736   2.512 -1.1802 -1.2577  0.4784
 2516TIP3    H228964   5.709   2.671   2.584 -0.7568 -2.1465 -0.9619
 2517TIP3   OH228965   0.601   6.361  13.677 -0.0625  0.5787  0.2650
 2517TIP3    H128966   0.592   6.396  13.588  0.9674  1.2628  0.4114
 2517TIP3    H228967   0.628   6.437  13.730  2.1013 -0.3573  0.6201
 2518TIP3   OH228968   5.531   4.160   2.012 -0.4357  0.0367 -0.4072
 2518TIP3    H128969   5.480   4.095   2.062  0.0073  0.3072  0.4143
 2518TIP3    H228970   5.497   4.244   2.040 -0.3765  0.1845 -0.7781
 2519TIP3   OH228971   0.239   2.028  14.301  0.1951 -0.2957  0.4617
 2519TIP3    H128972   0.298   2.070  14.239  0.6665 -0.8026  0.5663
 2519TIP3    H228973   0.169   1.992  14.246  0.2244 -0.1030  0.2960
 2520TIP3   OH228974   1.379   3.244  16.183 -0.6317 -0.5148  0.0360
 2520TIP3    H128975   1.356   3.325  16.228 -0.1370 -0.2839 -0.1148
 2520TIP3    H228976   1.419   3.273  16.101  1.0636 -0.8640  0.6969
 2521TIP3   OH228977   5.505   1.502  12.386 -0.0228  0.1243  0.0745
 2521TIP3    H128978   5.535   1.500  12.477 -1.2558  0.9295  0.5236
 2521TIP3    H228979   5.547   1.579  12.348 -0.0439  0.1736  0.1523
 2522TIP3   OH228980   1.075   3.144  15.952 -0.0191 -0.0190  0.8101
 2522TIP3    H128981   1.041   3.209  15.890  0.6062 -0.5633 -0.1374
 2522TIP3    H228982   1.019   3.152  16.029  0.5940  2.2938  1.1008
 2523TIP3   OH228983   0.333   4.567  16.819  0.3413 -0.0632  0.0289
 2523TIP3    H128984   0.390   4.565  16.896 -0.2245  0.4375  0.4668
 2523TIP3    H228985   0.361   4.644  16.771  0.6324 -0.3242 -0.2278
 2524TIP3   OH228986   2.446   0.756   0.259 -0.1569  0.0053  0.3927
 2524TIP3    H128987   2.387   0.710   0.200  1.5240 -1.7451 -0.0246
 2524TIP3    H228988   2.499   0.811   0.201 -1.1324  1.3490  0.7326
 2525TIP3   OH228989   1.891   1.103  12.064 -0.8779  0.0428 -0.8244
 2525TIP3    H128990   1.913   1.191  12.097 -0.2327  0.3322 -1.9902
 2525TIP3    H228991   1.925   1.044  12.131 -1.6401  0.6756  0.1563
 2526TIP3   OH228992   6.709   1.793  17.240  0.0702  0.0929  0.1898
 2526TIP3    H128993   6.671   1.878  17.264 -0.2307 -0.2633  0.9995
 2526TIP3    H228994   6.792   1.816  17.196 -1.2960  0.9080 -2.1694
 2527TIP3   OH228995   6.582   1.202   6.293  0.1101  0.2310 -0.8551
 2527TIP3    H128996   6.519   1.266   6.261 -1.8729 -1.1627  0.0462
 2527TIP3    H228997   6.612   1.157   6.214 -0.2146  0.7546 -1.2871
 2528TIP3   OH228998   0.312   0.575  11.606 -0.6839 -0.5797 -0.2521
 2528TIP3    H128999   0.292   0.643  11.541  0.6353 -1.9157 -2.1921
 2528TIP3    H229000   0.370   0.514  11.559  0.4717 -1.5500  2.2712
 2529TIP3   OH229001   3.770   5.047  12.341  0.0806 -0.5965 -0.6292
 2529TIP3    H129002   3.802   5.109  12.406  0.6802 -0.1810 -1.2987
 2529TIP3    H229003   3.849   5.016  12.296 -0.2869 -1.1720 -0.8877
 2530TIP3   OH229004   4.312   6.168   5.215  0.2459 -0.4115  0.7306
 2530TIP3    H129005   4.365   6.244   5.191  0.3863 -0.8994 -0.5515
 2530TIP3    H229006   4.246   6.203   5.275  1.2945  0.4195  1.4374
 2531TIP3   OH229007   1.890   2.860  14.991 -0.5558 -0.3170  0.2237
 2531TIP3    H129008   1.873   2.947  14.956  1.5192  0.7286  1.6141
 2531TIP3    H229009   1.985   2.853  14.995 -0.6570 -2.6200  0.2940
 2532TIP3   OH229010   5.660   2.096   0.558 -0.6428 -0.1378  0.8839
 2532TIP3    H129011   5.592   2.099   0.626  1.3829 -1.3653  3.1365
 2532TIP3    H229012   5.735   2.055   0.602  0.9066 -0.6903 -2.0521
 2533TIP3   OH229013   4.224   0.720  11.068  0.3048  0.6575  0.7822
 2533TIP3    H129014   4.174   0.666  11.006  0.6651  0.4534  0.6678
 2533TIP3    H229015   4.236   0.664  11.145  1.6355  0.1612  0.2406
 2534TIP3   OH229016   2.452   0.320   4.940 -0.2150 -0.3609  0.1125
 2534TIP3    H129017   2.357   0.309   4.930 -0.5641  2.0054  0.1210
 2534TIP3    H229018   2.466   0.323   5.034 -0.4779  1.2337  0.1395
 2535TIP3   OH229019   6.248   6.117   5.704  0.0236  0.2675 -0.3548
 2535TIP3    H129020   6.219   6.192   5.756 -0.6026 -0.1005 -0.1730
 2535TIP3    H229021   6.206   6.041   5.745 -0.1803 -0.0669 -1.1765
 2536TIP3   OH229022   0.433   2.227   3.860  0.3270  0.2952  0.4322
 2536TIP3    H129023   0.374   2.301   3.870  0.4778  0.4411  0.2562
 2536TIP3    H229024   0.507   2.262   3.809  0.7134  0.2016  0.9143
 2537TIP3   OH229025   4.113   0.550  11.285 -0.2746  0.0460  0.8870
 2537TIP3    H129026   4.039   0.490  11.287  0.2420 -0.7478 -1.2860
 2537TIP3    H229027   4.173   0.516  11.351 -1.6248  0.4544  2.3721
 2538TIP3   OH229028   4.468   6.200   1.274 -0.3402 -0.5532  0.2365
 2538TIP3    H129029   4.455   6.124   1.331 -0.2888 -1.4889 -0.9452
 2538TIP3    H229030   4.523   6.259   1.324 -0.2390 -1.3741  1.1259
 2539TIP3   OH229031   6.330   1.554   4.891 -0.0227 -0.3918  0.1204
 2539TIP3    H129032   6.267   1.516   4.830 -0.0069  2.0531 -1.5607
 2539TIP3    H229033   6.403   1.581   4.835 -0.0100  1.9486  1.1774
 2540TIP3   OH229034   4.737   2.677   3.189  0.2541 -0.1264  0.4390
 2540TIP3    H129035   4.814   2.732   3.180 -1.5366  2.5488  0.3140
 2540TIP3    H229036   4.731   2.657   3.282  0.2405  1.0455  0.7036
 2541TIP3   OH229037   2.781   0.278  15.797  0.4713 -0.0814 -0.1102
 2541TIP3    H129038   2.796   0.325  15.715  3.0345  1.7442  1.2228
 2541TIP3    H229039   2.855   0.217  15.803 -0.7229 -1.5630  0.0158
 2542TIP3   OH229040   1.745   6.543  11.036  0.4602  0.3321  0.0615
 2542TIP3    H129041   1.701   6.610  10.984  1.1263  0.8419  0.1478
 2542TIP3    H229042   1.834   6.540  11.002  0.7371  0.2536  0.7774
 2543TIP3   OH229043   1.281   0.719   2.530 -0.3173  0.0259 -0.0476
 2543TIP3    H129044   1.282   0.748   2.621  1.4094  0.0400 -0.0243
 2543TIP3    H229045   1.369   0.684   2.516 -0.9575 -1.1550 -1.3499
 2544TIP3   OH229046   6.668   5.290  11.388  0.3051  0.1893 -0.1625
 2544TIP3    H129047   6.574   5.277  11.379  0.1061 -1.0290  2.5748
 2544TIP3    H229048   6.699   5.304  11.299 -2.3717  0.1722 -1.2050
 2545TIP3   OH229049   0.710   4.172  14.670 -0.3856  0.0581  0.1770
 2545TIP3    H129050   0.776   4.179  14.601  0.0674  0.9307  0.6891
 2545TIP3    H229051   0.744   4.106  14.730 -0.3399 -0.0395  0.0431
 2546TIP3   OH229052   2.783   6.341  11.006 -0.0476  0.0021  0.3540
 2546TIP3    H129053   2.753   6.382  10.925 -1.5114  1.5594  1.5937
 2546TIP3    H229054   2.733   6.260  11.013 -1.6782  1.0094  0.8025
 2547TIP3   OH229055   1.322   4.904   2.293  0.1435 -0.0072  0.5826
 2547TIP3    H129056   1.236   4.943   2.308 -0.0785 -0.6719  1.0961
 2547TIP3    H229057   1.376   4.976   2.261 -1.2256 -0.0571 -2.1553
 2548TIP3   OH229058   4.994   0.743   1.878  0.2452 -0.0729  0.5353
 2548TIP3    H129059   5.061   0.805   1.848  1.4943 -1.9583 -0.7820
 2548TIP3    H229060   5.040   0.660   1.886 -1.9251 -1.4523 -0.3957
 2549TIP3   OH229061   0.057   1.252  10.594 -0.9511 -0.2209  0.5253
 2549TIP3    H129062  -0.027   1.218  10.626 -1.2450  0.7921  0.8782
 2549TIP3    H229063   0.120   1.227  10.662 -1.1999  0.0915  0.8797
 2550TIP3   OH229064   5.058   2.472   6.349  0.4838 -0.4209  0.1378
 2550TIP3    H129065   5.150   2.476   6.325  1.0557  1.3191  2.2284
 2550TIP3    H229066   5.058   2.430   6.435 -0.4860  0.8497  0.7935
 2551TIP3   OH229067   4.518   1.360   3.618 -0.0995  0.1903 -0.4349
 2551TIP3    H129068   4.467   1.302   3.561 -1.1225  0.2045  0.4269
 2551TIP3    H229069   4.587   1.395   3.561 -1.7927  1.1516 -2.0004
 2552TIP3   OH229070   2.536   5.336   0.163 -0.1461  0.2177  0.9719
 2552TIP3    H129071   2.620   5.348   0.119 -1.2704  0.0225 -1.4162
 2552TIP3    H229072   2.493   5.421   0.158 -0.2740  0.2107  1.7940
 2553TIP3   OH229073   3.424   6.144  13.942 -0.5490  0.5262 -0.3139
 2553TIP3    H129074   3.333   6.172  13.936 -0.5241  0.7810  0.4555
 2553TIP3    H229075   3.422   6.050  13.920 -0.7817  0.8409 -1.7571
 2554TIP3   OH229076   3.452   1.411  14.629 -0.2090 -0.7315 -0.1021
 2554TIP3    H129077   3.522   1.360  14.670 -2.0852 -2.9596  0.5348
 2554TIP3    H229078   3.385   1.347  14.607 -2.7452  1.4616  0.6868
 2555TIP3   OH229079   1.158   4.750   0.197 -0.3126 -0.2045  0.3975
 2555TIP3    H129080   1.072   4.772   0.234  0.0739 -0.1057  1.2501
 2555TIP3    H229081   1.139   4.681   0.133 -1.1462  0.5063 -0.1426
 2556TIP3   OH229082   2.775   2.097  12.520  0.1543 -0.1572  0.4107
 2556TIP3    H129083   2.766   2.054  12.435 -1.8550 -0.8044  0.8812
 2556TIP3    H229084   2.794   2.188  12.499 -2.7181  0.2620 -0.8805
 2557TIP3   OH229085   6.588   4.845  11.678 -0.6302  0.3460 -0.1677
 2557TIP3    H129086   6.623   4.933  11.686 -0.4965  0.2944 -0.1851
 2557TIP3    H229087   6.493   4.857  11.677 -0.6032  0.6404 -1.8083
 2558TIP3   OH229088   1.553   3.507  14.779  0.5384 -0.8989 -0.5912
 2558TIP3    H129089   1.567   3.484  14.871  1.6704 -0.4419 -0.6478
 2558TIP3    H229090   1.507   3.591  14.781  1.5689 -0.3340 -0.4522
 2559TIP3   OH229091   1.768   1.215   5.535  0.7904 -0.1284  0.0165
 2559TIP3    H129092   1.780   1.149   5.603  0.3638 -0.5576 -0.3164
 2559TIP3    H229093   1.830   1.191   5.467 -0.5195 -1.2130 -0.8564
 2560TIP3   OH229094   3.752   0.761  15.889 -0.5487 -0.7851 -0.1388
 2560TIP3    H129095   3.755   0.857  15.898  1.0887 -0.6545 -1.6129
 2560TIP3    H229096   3.750   0.746  15.795  2.5975 -2.2104 -0.0839
 2561TIP3   OH229097   4.302   2.724  13.073 -0.4886 -0.0756  0.2473
 2561TIP3    H129098   4.251   2.643  13.065  1.2878 -1.1490 -0.9081
 2561TIP3    H229099   4.293   2.767  12.989 -1.4187  0.9730  0.8566
 2562TIP3   OH229100   2.571   0.914  12.136 -0.0296 -0.0996  0.6677
 2562TIP3    H129101   2.576   0.941  12.044  0.5076 -0.8965  0.4472
 2562TIP3    H229102   2.486   0.871  12.144 -0.1925  0.2146  0.6075
 2563TIP3   OH229103   4.277   1.065   2.843  0.6145  0.3624  0.3777
 2563TIP3    H129104   4.212   1.134   2.852  0.6191  0.5439 -0.8437
 2563TIP3    H229105   4.270   1.014   2.924 -3.0780 -1.3695 -0.8241
 2564TIP3   OH229106   3.485   5.488  15.433 -0.1566 -0.1750  0.0762
 2564TIP3    H129107   3.429   5.446  15.498 -0.8338  0.7727  0.1311
 2564TIP3    H229108   3.569   5.445  15.442  0.0870  0.6312  2.3424
 2565TIP3   OH229109   5.344   1.288   5.071  0.2944 -0.6398  0.1344
 2565TIP3    H129110   5.415   1.260   5.013 -0.0630 -1.0215 -0.1227
 2565TIP3    H229111   5.264   1.263   5.026 -0.0093 -0.2465  0.4416
 2566TIP3   OH229112   2.075   0.368  16.949 -0.1394 -0.6824 -0.0773
 2566TIP3    H129113   2.066   0.381  16.855 -0.3008 -0.2658 -0.0071
 2566TIP3    H229114   2.152   0.420  16.973 -0.3282 -0.4738  0.0811
 2567TIP3   OH229115   5.415   3.970  13.528 -0.5416 -0.0776  0.5824
 2567TIP3    H129116   5.417   3.879  13.500 -0.5298  0.1336 -0.1164
 2567TIP3    H229117   5.347   4.011  13.475  1.3691  0.9691 -1.2165
 2568TIP3   OH229118   3.619   6.255  15.287  0.1563  0.8554 -0.6884
 2568TIP3    H129119   3.595   6.169  15.251  0.1571  1.4845 -2.2966
 2568TIP3    H229120   3.714   6.252  15.294  0.1676  0.7590 -0.8602
 2569TIP3   OH229121   4.054   4.366  15.645 -0.6151  0.0270  0.0364
 2569TIP3    H129122   4.117   4.437  15.654  0.6079 -0.6787 -2.2828
 2569TIP3    H229123   3.994   4.377  15.719  0.3511  2.6172  0.5119
 2570TIP3   OH229124   6.731   4.263  15.831 -0.3848  0.3299  0.2590
 2570TIP3    H129125   6.700   4.352  15.814 -0.2892  0.1463 -0.9699
 2570TIP3    H229126   6.781   4.270  15.912 -1.8862  1.0377  1.1675
 2571TIP3   OH229127   5.815   1.505   0.406  0.3767 -0.0778  0.8165
 2571TIP3    H129128   5.885   1.447   0.436 -0.4392 -0.3231  2.3630
 2571TIP3    H229129   5.736   1.472   0.449 -0.8177 -0.0902 -1.2253
 2572TIP3   OH229130   4.036   0.691  17.098  0.0223  0.5091 -0.2825
 2572TIP3    H129131   4.131   0.698  17.101  0.1041  0.8078 -2.4622
 2572TIP3    H229132   4.013   0.703  17.006 -1.8861 -2.6252 -0.3554
 2573TIP3   OH229133   6.731   5.831  15.195 -0.3278 -0.1917 -0.2189
 2573TIP3    H129134   6.697   5.756  15.146  2.8844 -1.6294 -0.4955
 2573TIP3    H229135   6.743   5.799  15.284  1.5079 -0.2304 -0.4388
 2574TIP3   OH229136   0.465   2.532   1.622  0.2395 -0.3952  0.2470
 2574TIP3    H129137   0.402   2.498   1.558 -0.4927  0.2067  0.6190
 2574TIP3    H229138   0.532   2.574   1.569 -0.3617  0.1009 -0.1425
 2575TIP3   OH229139   5.381   3.939   1.943  0.3647 -0.4625 -0.3457
 2575TIP3    H129140   5.348   3.898   2.023 -0.1710 -0.6752 -0.6711
 2575TIP3    H229141   5.452   3.881   1.914 -0.5598 -1.3331 -0.9477
 2576TIP3   OH229142   5.466   5.772   4.736 -0.0027  0.5794 -0.3396
 2576TIP3    H129143   5.496   5.835   4.671 -0.0185  0.0579 -0.8517
 2576TIP3    H229144   5.493   5.810   4.820 -1.6892  2.2498 -0.4639
 2577TIP3   OH229145   2.754   4.176  13.917  0.3022 -0.2021 -0.3104
 2577TIP3    H129146   2.778   4.204  13.828  1.0273  1.7762  0.4563
 2577TIP3    H229147   2.663   4.204  13.927  0.3681  0.0049 -0.2787
 2578TIP3   OH229148   4.725   5.035   6.650 -0.4769 -0.2408  0.4977
 2578TIP3    H129149   4.753   4.970   6.586 -0.5065 -0.1910  0.4329
 2578TIP3    H229150   4.661   4.989   6.705 -1.3264  0.0266 -0.2245
 2579TIP3   OH229151   4.648   0.249  14.492 -0.0719 -0.4321 -0.6869
 2579TIP3    H129152   4.719   0.274  14.550 -0.3358  0.8106 -0.8590
 2579TIP3    H229153   4.691   0.215  14.414  0.3816  0.7252 -0.9708
 2580TIP3   OH229154   5.864   2.650  14.014  0.0957  0.3965 -0.3254
 2580TIP3    H129155   5.928   2.583  14.037 -0.8149 -0.2638  0.3493
 2580TIP3    H229156   5.785   2.600  13.990 -0.8408  1.2137  0.9226
 2581TIP3   OH229157   0.817   1.308  13.503 -0.6928 -0.0556  0.8049
 2581TIP3    H129158   0.766   1.377  13.546 -0.8984  0.1418  0.2554
 2581TIP3    H229159   0.781   1.304  13.414  0.7301  0.5882  0.1676
 2582TIP3   OH229160   0.884   2.660  16.579 -0.4140 -0.0462  0.1782
 2582TIP3    H129161   0.900   2.626  16.491  0.2557 -0.5489  0.4859
 2582TIP3    H229162   0.859   2.583  16.631 -1.1899  0.3042  0.3470
 2583TIP3   OH229163   3.832   6.325  14.305 -0.1171  0.5425  0.2402
 2583TIP3    H129164   3.861   6.276  14.228 -2.2513 -2.7275  1.3040
 2583TIP3    H229165   3.767   6.387  14.271  2.5023  2.7833 -1.1109
 2584TIP3   OH229166   5.510   1.948  16.343  0.1746  0.0352  0.4529
 2584TIP3    H129167   5.452   2.024  16.345  0.6033  0.4139 -0.6617
 2584TIP3    H229168   5.504   1.911  16.431 -0.9332  0.6813  0.6745
 2585TIP3   OH229169   3.781   2.229   6.898 -0.0471  0.2891  0.3130
 2585TIP3    H129170   3.699   2.265   6.930 -0.0301  0.9270 -0.3564
 2585TIP3    H229171   3.756   2.155   6.842 -0.2528  1.3900 -1.0939
 2586TIP3   OH229172   5.388   2.833   3.518  0.2619 -0.4177 -0.3432
 2586TIP3    H129173   5.476   2.867   3.536  0.3331 -0.8640  0.2215
 2586TIP3    H229174   5.365   2.784   3.598  0.4102 -2.1596 -1.3089
 2587TIP3   OH229175   3.912   6.128   2.254  0.0046 -0.2635 -0.4968
 2587TIP3    H129176   3.999   6.163   2.238  0.1748 -0.1541  0.5794
 2587TIP3    H229177   3.865   6.141   2.172  0.7709  0.3667 -0.8474
 2588TIP3   OH229178   5.558   1.679   5.874  0.5235  0.4919  0.1275
 2588TIP3    H129179   5.600   1.597   5.901  2.2906  1.3160 -0.0173
 2588TIP3    H229180   5.528   1.662   5.785 -0.7327 -0.5430  0.7057
 2589TIP3   OH229181   4.907   5.202  13.696  0.7069 -0.0120  0.3333
 2589TIP3    H129182   4.884   5.240  13.781  2.4283 -2.5676  2.0774
 2589TIP3    H229183   5.002   5.212  13.690  0.6790 -0.3474 -1.0929
 2590TIP3   OH229184   4.865   2.138  13.699  0.1406  0.0065 -0.3879
 2590TIP3    H129185   4.927   2.202  13.666  0.1522 -0.7193 -1.8391
 2590TIP3    H229186   4.834   2.091  13.622 -0.0920 -1.5414  0.5852
 2591TIP3   OH229187   6.121   2.654   3.820 -0.4609  0.3987 -0.1351
 2591TIP3    H129188   6.110   2.748   3.807 -1.9122  0.3448  0.5494
 2591TIP3    H229189   6.183   2.627   3.751 -1.7784  1.4531 -1.8121
 2592TIP3   OH229190   4.721   2.935  15.330 -0.3018  0.1437 -0.4251
 2592TIP3    H129191   4.735   2.878  15.255  0.4251 -0.4873  0.1718
 2592TIP3    H229192   4.810   2.959  15.359 -0.5612  0.2308  0.3371
 2593TIP3   OH229193   3.530   3.254  12.954 -0.1268  0.5397 -0.1707
 2593TIP3    H129194   3.584   3.287  13.026 -1.1073  2.5900 -0.3110
 2593TIP3    H229195   3.441   3.277  12.978 -0.6189  0.0089 -1.4091
 2594TIP3   OH229196   6.521   4.796  17.095  0.1104  0.0324  0.1802
 2594TIP3    H129197   6.461   4.742  17.145  0.0524  0.6849  0.8309
 2594TIP3    H229198   6.477   4.881  17.089  0.2318  0.0439 -0.7625
 2595TIP3   OH229199   3.342   1.585   1.829 -0.4556  0.2311 -0.2416
 2595TIP3    H129200   3.375   1.518   1.889 -4.9585 -2.9027 -0.7478
 2595TIP3    H229201   3.291   1.644   1.884 -1.6083 -0.5382 -0.4337
 2596TIP3   OH229202   2.637   5.584  16.265 -0.4676 -0.3968  0.5327
 2596TIP3    H129203   2.625   5.679  16.272 -1.7341 -0.4420 -0.5192
 2596TIP3    H229204   2.706   5.564  16.327 -0.0467  1.2457  0.6514
 2597TIP3   OH229205   5.512   3.165   2.900 -0.7839 -0.8885 -0.3091
 2597TIP3    H129206   5.588   3.189   2.952  0.1077  0.5119 -2.1299
 2597TIP3    H229207   5.455   3.242   2.905 -2.5732 -2.2454  1.7534
 2598TIP3   OH229208   6.419   3.039  14.260 -0.0481  0.0833 -0.4318
 2598TIP3    H129209   6.486   3.096  14.223 -1.3321  1.9550  0.0150
 2598TIP3    H229210   6.348   3.098  14.285 -1.5933 -1.7595 -0.2706
 2599TIP3   OH229211   5.932   5.887   0.888 -0.4491  0.0937 -0.0089
 2599TIP3    H129212   5.845   5.921   0.867 -0.6248 -0.6033 -0.4528
 2599TIP3    H229213   5.916   5.805   0.934 -0.0294  0.0656  0.0931
 2600TIP3   OH229214   2.394   2.312   3.550 -0.3363 -0.1593  0.0295
 2600TIP3    H129215   2.383   2.248   3.480  0.1748 -1.8933  1.4295
 2600TIP3    H229216   2.453   2.378   3.514  1.7072 -2.1587 -0.5330
 2601TIP3   OH229217   5.213   4.054   2.754 -0.3648 -0.4448 -0.2402
 2601TIP3    H129218   5.309   4.062   2.748 -0.4832  1.6250  0.0936
 2601TIP3    H229219   5.199   3.978   2.811  1.0311 -1.8199 -1.6122
 2602TIP3   OH229220   0.152   0.612   2.313 -0.6506 -0.3432 -0.3115
 2602TIP3    H129221   0.136   0.656   2.230 -1.0009 -1.2007 -0.7008
 2602TIP3    H229222   0.132   0.520   2.297  0.5400 -0.7514  0.3517
 2603TIP3   OH229223   4.614   3.105  11.367 -0.1670  0.3384 -0.1799
 2603TIP3    H129224   4.548   3.168  11.398 -0.7482 -0.0267 -0.6409
 2603TIP3    H229225   4.666   3.154  11.303  0.2099  0.7158  0.4082
 2604TIP3   OH229226   5.747   5.740  14.618 -0.2094 -0.0816  0.3698
 2604TIP3    H129227   5.825   5.686  14.604  0.7201  1.4668 -0.6604
 2604TIP3    H229228   5.775   5.807  14.681 -1.4210 -0.8783  1.8342
 2605TIP3   OH229229   4.516   5.121  12.388 -0.0635  0.3862 -0.4456
 2605TIP3    H129230   4.532   5.215  12.376  1.4200  0.1509 -0.4283
 2605TIP3    H229231   4.601   5.085  12.412 -0.6721 -0.9342 -0.2093
 2606TIP3   OH229232   4.472   0.524   5.757 -0.3324 -0.0825 -0.2255
 2606TIP3    H129233   4.507   0.598   5.806  1.1282 -0.8873 -0.0106
 2606TIP3    H229234   4.403   0.489   5.814 -1.3014  1.2958 -0.4936
 2607TIP3   OH229235   2.360   5.466  13.769 -0.1639  0.2160 -0.7667
 2607TIP3    H129236   2.372   5.402  13.839 -0.1524  0.0773 -0.8953
 2607TIP3    H229237   2.423   5.536  13.789 -1.0600  0.8185  0.0987
 2608TIP3   OH229238   5.906   0.960   4.441  0.7206 -0.1879 -0.1518
 2608TIP3    H129239   5.981   0.978   4.498  0.0152 -1.2624  1.1820
 2608TIP3    H229240   5.853   0.898   4.491 -0.1639 -0.8299 -1.8212
 2609TIP3   OH229241   3.084   5.556   5.101 -0.4040  1.0274 -0.7576
 2609TIP3    H129242   3.006   5.595   5.061 -0.2131 -0.4314 -2.7256
 2609TIP3    H229243   3.099   5.477   5.050  0.8543 -0.1190  1.2810
 2610TIP3   OH229244   3.809   1.094  15.243 -0.1397 -0.7491 -0.3066
 2610TIP3    H129245   3.754   1.032  15.196 -1.4503 -0.5579  0.8869
 2610TIP3    H229246   3.772   1.096  15.332  0.5073  0.9633 -0.0391
 2611TIP3   OH229247   4.978   4.405  14.586  0.5191  0.1186 -0.3486
 2611TIP3    H129248   4.915   4.354  14.636  0.3193  1.3536  0.7162
 2611TIP3    H229249   4.942   4.409  14.498 -0.5416  0.2287  0.0842
 2612TIP3   OH229250   0.068   2.654  13.495  0.0470 -0.2846 -0.4476
 2612TIP3    H129251   0.106   2.571  13.465 -0.1707 -0.1010 -1.2534
 2612TIP3    H229252   0.098   2.663  13.585  0.7144 -0.8561 -0.6062
 2613TIP3   OH229253   3.956   4.382  13.403  0.1313  0.0949  0.2001
 2613TIP3    H129254   3.981   4.467  13.367 -0.4506  1.0589  1.9383
 2613TIP3    H229255   4.038   4.342  13.430  0.2528  1.0749  1.3585
 2614TIP3   OH229256   3.206   2.352  14.020 -0.5595 -0.2830 -0.1575
 2614TIP3    H129257   3.142   2.380  13.955  1.0369 -2.4461 -2.8616
 2614TIP3    H229258   3.263   2.429  14.031 -2.8752  1.3250  1.5555
 2615TIP3   OH229259   6.076   2.045  11.848 -0.4593 -0.4490  0.0681
 2615TIP3    H129260   6.148   2.108  11.838 -1.3505  0.5976  0.0614
 2615TIP3    H229261   5.997   2.095  11.826 -1.4732 -0.8452  2.4324
 2616TIP3   OH229262   2.986   6.491  11.147  0.0169 -0.3124 -0.2921
 2616TIP3    H129263   2.913   6.434  11.125  1.4558 -2.1851 -0.4617
 2616TIP3    H229264   2.986   6.559  11.079 -1.0765 -0.7253 -0.7153
 2617TIP3   OH229265   3.187   5.500   0.915 -0.4603  0.4105  0.1584
 2617TIP3    H129266   3.248   5.488   0.988 -0.5451  0.0764  0.1729
 2617TIP3    H229267   3.242   5.532   0.843  0.0135 -1.3831 -0.3109
 2618TIP3   OH229268   1.485   6.204   2.556 -0.0017 -0.1538  0.0829
 2618TIP3    H129269   1.527   6.149   2.623  1.7012  0.9142 -0.0347
 2618TIP3    H229270   1.458   6.142   2.488  1.0284 -0.9524  0.3650
 2619TIP3   OH229271   4.641   3.351   3.099  0.1055 -0.3654 -0.3143
 2619TIP3    H129272   4.640   3.302   3.181  3.1409 -0.3796 -0.1635
 2619TIP3    H229273   4.661   3.285   3.032 -0.2926 -0.0220 -0.7777
 2620TIP3   OH229274   0.529   6.301  15.191  0.1004 -0.0853  0.6237
 2620TIP3    H129275   0.556   6.375  15.136 -1.0136  0.9603  1.4247
 2620TIP3    H229276   0.439   6.283  15.163 -0.5015  0.5023  2.1014
 2621TIP3   OH229277   1.081   3.691  16.298  0.5031  0.2834  0.3489
 2621TIP3    H129278   1.119   3.754  16.237  2.4420 -0.1046  1.0869
 2621TIP3    H229279   1.072   3.739  16.380  0.4361  0.0641  0.4723
 2622TIP3   OH229280   4.601   4.581   4.247  0.0331 -0.2019 -0.0110
 2622TIP3    H129281   4.640   4.546   4.327  1.3385 -0.9245 -0.9379
 2622TIP3    H229282   4.656   4.548   4.176 -0.1658  1.6770 -1.1221
 2623TIP3   OH229283   1.514   1.448  11.986 -0.2453  0.1934  0.2009
 2623TIP3    H129284   1.456   1.373  11.995  2.1233 -1.5387  2.8594
 2623TIP3    H229285   1.518   1.465  11.892 -3.2109 -0.9965 -0.2275
 2624TIP3   OH229286   1.936   4.767  13.673 -0.2324 -0.2816 -0.5927
 2624TIP3    H129287   1.949   4.741  13.764 -0.3212  1.0977 -0.1561
 2624TIP3    H229288   1.843   4.749  13.657  0.0135 -1.4879 -0.7594
 2625TIP3   OH229289   0.386   2.327   0.285  0.2556  0.3519 -0.2757
 2625TIP3    H129290   0.431   2.247   0.312 -2.3377 -1.0816  0.1689
 2625TIP3    H229291   0.370   2.375   0.367 -1.0495 -0.3265 -0.1070
 2626TIP3   OH229292   4.483   4.720  13.018  0.0313  0.0726 -0.2381
 2626TIP3    H129293   4.401   4.692  12.978 -1.2100  2.7150  0.2057
 2626TIP3    H229294   4.461   4.732  13.111  1.4810 -1.0455  0.2820
 2627TIP3   OH229295   4.879   1.544  16.365 -0.1374  0.3547 -0.0868
 2627TIP3    H129296   4.854   1.572  16.277 -1.0545 -0.6059 -0.1511
 2627TIP3    H229297   4.928   1.618  16.401 -0.7229  1.2043 -0.9904
 2628TIP3   OH229298   1.048   1.703  13.695 -0.3098  0.1882 -0.1799
 2628TIP3    H129299   1.127   1.650  13.687 -0.4073  0.0438 -0.2015
 2628TIP3    H229300   0.993   1.655  13.757  0.9662  1.9468  2.4476
 2629TIP3   OH229301   4.980   0.265  11.266 -0.4618 -0.0946  0.1218
 2629TIP3    H129302   4.902   0.241  11.216 -0.2857 -0.5883  0.0755
 2629TIP3    H229303   5.050   0.265  11.201 -0.2717 -0.5114  0.3266
 2630TIP3   OH229304   1.734   5.175   1.835  0.2085 -0.0903 -0.2612
 2630TIP3    H129305   1.716   5.208   1.923  1.1939  1.3506 -0.5450
 2630TIP3    H229306   1.658   5.124   1.811 -1.3106  1.7486  0.3968
 2631TIP3   OH229307   2.873   0.227  13.504  0.4802 -0.1114 -0.1231
 2631TIP3    H129308   2.842   0.317  13.498  1.3871  0.2086 -0.0644
 2631TIP3    H229309   2.847   0.199  13.592  1.1255  0.4487  0.2510
 2632TIP3   OH229310   6.159   5.303   5.603  0.0143  0.2218  0.7938
 2632TIP3    H129311   6.089   5.243   5.627  0.5858 -0.6352  0.3536
 2632TIP3    H229312   6.170   5.291   5.509  1.9908 -1.0207  1.1365
 2633TIP3   OH229313   5.752   2.118  12.055  0.1129 -0.6801  0.3190
 2633TIP3    H129314   5.788   2.091  11.971  0.1511  2.2710 -0.7262
 2633TIP3    H229315   5.660   2.140  12.036  0.2816  0.5944  0.8562
 2634TIP3   OH229316   5.513   0.280  14.363  0.1643  0.0348 -0.2715
 2634TIP3    H129317   5.573   0.348  14.394  0.8329 -0.8127  0.3306
 2634TIP3    H229318   5.568   0.203  14.350 -0.0015  0.3751 -3.8474
 2635TIP3   OH229319   2.620   3.111  12.341  0.1610  0.4461  0.2991
 2635TIP3    H129320   2.595   3.071  12.257  0.6721  0.6273  0.0537
 2635TIP3    H229321   2.604   3.205  12.328 -0.1733  0.4247  0.5571
 2636TIP3   OH229322   1.883   4.598  11.503  0.1812  0.0259 -0.1203
 2636TIP3    H129323   1.962   4.566  11.459  0.1254 -0.3984  0.0761
 2636TIP3    H229324   1.894   4.570  11.594 -0.4099 -0.4527 -0.1892
 2637TIP3   OH229325   2.583   5.912  14.756 -0.2214  0.3353  0.1286
 2637TIP3    H129326   2.600   5.863  14.675  0.0132 -0.8381  0.8618
 2637TIP3    H229327   2.574   6.003  14.727  1.4793  0.1838 -1.0291
 2638TIP3   OH229328   3.180   0.205  15.123 -0.6835 -0.5872 -0.5894
 2638TIP3    H129329   3.258   0.152  15.135  0.6614  1.4410  0.1339
 2638TIP3    H229330   3.143   0.214  15.210 -0.6265  0.0323 -0.6227
 2639TIP3   OH229331   4.101   5.984   2.372 -0.1331 -0.3617 -0.4998
 2639TIP3    H129332   4.168   6.027   2.319 -1.0190  1.3225 -0.3278
 2639TIP3    H229333   4.021   5.987   2.319 -0.4648 -0.8548 -0.0504
 2640TIP3   OH229334   3.083   1.074   0.130  0.1457 -0.2566  0.2258
 2640TIP3    H129335   3.011   1.131   0.153  0.4771 -0.1838  1.1060
 2640TIP3    H229336   3.157   1.106   0.182  1.2809  0.7239 -1.8524
 2641TIP3   OH229337   5.062   5.413   0.461 -0.8420 -0.1022 -0.9599
 2641TIP3    H129338   5.141   5.361   0.448 -1.0394 -1.2985  1.7636
 2641TIP3    H229339   5.086   5.478   0.528 -1.5041  1.2058 -1.9422
 2642TIP3   OH229340   2.739   4.378   5.354  0.5227  0.2665 -0.2998
 2642TIP3    H129341   2.816   4.408   5.402  0.1230  0.4147  0.2583
 2642TIP3    H229342   2.665   4.418   5.400  0.1396  0.4855 -1.0962
 2643TIP3   OH229343   6.550   1.485   2.915 -0.5892  0.0619  0.3872
 2643TIP3    H129344   6.502   1.419   2.965 -1.1670 -0.2740 -0.5630
 2643TIP3    H229345   6.483   1.546   2.885  0.0221  1.5681  1.8861
 2644TIP3   OH229346   4.518   4.641  16.983 -0.0329  0.1021 -0.2830
 2644TIP3    H129347   4.507   4.700  16.909 -1.4217  1.4415  0.9249
 2644TIP3    H229348   4.549   4.559  16.944  0.4652  1.1353 -2.1753
 2645TIP3   OH229349   2.179   2.591   1.705 -0.0198 -0.2268 -0.0866
 2645TIP3    H129350   2.143   2.506   1.730 -0.0551 -0.6603 -1.5043
 2645TIP3    H229351   2.274   2.576   1.698 -0.0900 -0.3464 -0.9660
 2646TIP3   OH229352   5.181   2.763  15.303 -0.0892 -0.0044  0.2717
 2646TIP3    H129353   5.188   2.678  15.260  1.5812  0.3589 -0.2608
 2646TIP3    H229354   5.124   2.815  15.246 -2.3682 -1.1678  1.3677
 2647TIP3   OH229355   2.870   0.178   4.345 -0.1466 -0.1189 -0.5182
 2647TIP3    H129356   2.868   0.145   4.434 -0.1258 -0.3448 -0.6028
 2647TIP3    H229357   2.864   0.101   4.290  0.3689 -0.0263 -0.7159
 2648TIP3   OH229358   0.753   4.802   2.066  1.1257 -0.2955 -0.3835
 2648TIP3    H129359   0.662   4.770   2.064  1.0660 -0.1130 -1.2092
 2648TIP3    H229360   0.783   4.792   1.975  1.0451  2.1141 -0.7252
 2649TIP3   OH229361   6.127   6.064   0.903 -0.6293 -0.3958 -0.2570
 2649TIP3    H129362   6.147   6.098   0.816  0.5236 -2.5295 -0.8895
 2649TIP3    H229363   6.056   6.002   0.889  0.3408 -1.6175  0.0988
 2650TIP3   OH229364   3.754   5.168  11.716 -0.1071  0.1959  0.0211
 2650TIP3    H129365   3.704   5.227  11.772  1.6212  1.5314  0.2264
 2650TIP3    H229366   3.825   5.221  11.681 -0.4227 -0.9205 -2.5194
 2651TIP3   OH229367   1.175   0.322   4.119 -0.0902 -0.0854  0.4332
 2651TIP3    H129368   1.165   0.416   4.134 -2.0336  0.2219 -2.1187
 2651TIP3    H229369   1.257   0.314   4.069  0.2019  0.1887  0.8556
 2652TIP3   OH229370   4.577   6.055   5.706  0.1924  0.5573 -0.0464
 2652TIP3    H129371   4.483   6.073   5.713 -0.1657 -1.7657  2.6122
 2652TIP3    H229372   4.616   6.101   5.780  0.7496 -0.6235  0.4177
 2653TIP3   OH229373   1.661   4.598  11.341 -0.6643  0.3729  0.1111
 2653TIP3    H129374   1.736   4.575  11.396 -0.9506 -2.7098 -0.6166
 2653TIP3    H229375   1.697   4.655  11.274  1.0156 -0.7989 -0.0578
 2654TIP3   OH229376   4.637   4.169  11.428  0.0399 -0.4391 -0.5955
 2654TIP3    H129377   4.713   4.119  11.456  0.0881 -0.4019 -0.6585
 2654TIP3    H229378   4.638   4.162  11.332  0.2967  0.0390 -0.6322
 2655TIP3   OH229379   1.738   1.743  11.606  0.0870 -0.4652  0.6858
 2655TIP3    H129380   1.793   1.810  11.647 -1.6102  0.6569  1.2124
 2655TIP3    H229381   1.739   1.764  11.513  1.7117 -1.3659  0.4536
 2656TIP3   OH229382   4.880   6.050  13.556  0.0258 -0.0563 -0.2905
 2656TIP3    H129383   4.882   5.982  13.623  0.5050 -0.4032 -0.6472
 2656TIP3    H229384   4.821   6.116  13.591  0.6713  0.0168  0.7170
 2657TIP3   OH229385   0.928   0.220   4.892  0.1515 -0.3070  0.9798
 2657TIP3    H129386   0.891   0.238   4.805 -1.6904  1.6830  2.0697
 2657TIP3    H229387   0.977   0.299   4.913  2.8712 -1.8300  0.7364
 2658TIP3   OH229388   2.484   4.442   1.450  0.3919 -0.2572 -0.5936
 2658TIP3    H129389   2.389   4.428   1.456  0.8038 -3.0475  0.8120
 2658TIP3    H229390   2.514   4.376   1.387  1.5967 -0.6512  0.3636
 2659TIP3   OH229391   2.873   5.661   0.169 -0.2871 -0.8620  0.2508
 2659TIP3    H129392   2.855   5.732   0.107 -0.7464  1.6727  3.0741
 2659TIP3    H229393   2.946   5.693   0.221 -0.8426 -2.2140  1.9500
 2660TIP3   OH229394   4.552   0.414  13.940 -0.1483  0.1652 -0.2169
 2660TIP3    H129395   4.646   0.434  13.938 -0.0593  0.2682  2.3222
 2660TIP3    H229396   4.546   0.332  13.989 -1.4691  0.7532  0.6230
 2661TIP3   OH229397   1.751   2.884   0.287 -0.1151 -0.5309  0.3693
 2661TIP3    H129398   1.776   2.802   0.245  3.4973  0.4945  0.1802
 2661TIP3    H229399   1.682   2.921   0.231 -1.2513 -2.9734  0.0405
 2662TIP3   OH229400   0.579   4.850  14.479 -0.3886  0.1013  0.3692
 2662TIP3    H129401   0.566   4.945  14.474  1.4939  0.3386 -0.9528
 2662TIP3    H229402   0.670   4.840  14.508  0.7408 -1.1930 -3.1410
 2663TIP3   OH229403   0.071   0.475  14.230 -0.0397  0.7172  0.0782
 2663TIP3    H129404   0.152   0.518  14.257  1.2533 -0.1487 -2.1850
 2663TIP3    H229405   0.041   0.526  14.155  1.7992 -2.3320 -3.0073
 2664TIP3   OH229406   4.302   3.985   1.735  0.1191 -0.4911 -0.2987
 2664TIP3    H129407   4.217   3.941   1.725  0.2946 -0.8565 -0.1901
 2664TIP3    H229408   4.307   4.006   1.828 -1.2150  2.3092 -0.7708
 2665TIP3   OH229409   5.116   4.282  14.092 -0.2224 -0.1421  0.2475
 2665TIP3    H129410   5.044   4.231  14.055 -0.5848 -0.0469  0.8015
 2665TIP3    H229411   5.145   4.338  14.021 -0.4262 -0.4712 -0.1013
 2666TIP3   OH229412   5.249   2.011  15.366 -0.0021  0.0559  0.2802
 2666TIP3    H129413   5.332   2.016  15.318  0.0074  2.8689  0.4190
 2666TIP3    H229414   5.262   2.065  15.443 -1.8658  0.2937  0.4750
 2667TIP3   OH229415   1.488   2.737   4.951  0.3131  0.4987  0.7138
 2667TIP3    H129416   1.463   2.647   4.930  0.6325  0.5489  0.0965
 2667TIP3    H229417   1.528   2.730   5.038  2.1313 -0.3082 -0.1072
 2668TIP3   OH229418   3.575   4.558   1.438  0.1317  0.8652 -0.3005
 2668TIP3    H129419   3.565   4.651   1.456  0.5781  0.9527 -0.4888
 2668TIP3    H229420   3.668   4.541   1.450  0.1507  0.5682 -0.8303
 2669TIP3   OH229421   5.829   4.108  14.159  0.0479  0.1917 -0.3142
 2669TIP3    H129422   5.760   4.163  14.122  0.4668  0.7649 -0.2523
 2669TIP3    H229423   5.816   4.022  14.117 -2.4434 -0.5659  1.7404
 2670TIP3   OH229424   1.617   0.424  14.340  0.1407  0.4567 -1.1412
 2670TIP3    H129425   1.593   0.450  14.251 -3.3796  0.4522 -0.3476
 2670TIP3    H229426   1.614   0.506  14.390  2.3320  0.5011 -0.9801
 2671TIP3   OH229427   2.412   0.153  14.688 -0.0506 -0.3442  0.0686
 2671TIP3    H129428   2.489   0.186  14.734 -0.7350  1.4471 -0.0033
 2671TIP3    H229429   2.421   0.188  14.599 -1.1465  0.2356  0.1748
 2672TIP3   OH229430   0.437   2.066  14.732 -0.0529 -0.4942 -0.5553
 2672TIP3    H129431   0.483   2.122  14.670 -0.0686 -0.6419 -0.6998
 2672TIP3    H229432   0.479   2.084  14.816  0.5626 -0.9534 -0.7603
 2673TIP3   OH229433   4.385   2.960   4.757 -0.1117 -0.3642 -0.1040
 2673TIP3    H129434   4.348   3.023   4.819 -0.5584  1.8431 -2.4124
 2673TIP3    H229435   4.310   2.909   4.727 -0.1320 -0.4658  0.1170
 2674TIP3   OH229436   3.725   1.384   4.667 -0.5151  0.2189  0.3272
 2674TIP3    H129437   3.820   1.384   4.674 -0.4895  1.2159  0.1720
 2674TIP3    H229438   3.706   1.326   4.593  0.0326  0.6951 -0.1969
 2675TIP3   OH229439   0.137   3.127   2.840  0.4769  0.3670  0.3869
 2675TIP3    H129440   0.045   3.120   2.866  0.2684 -0.6199 -0.5534
 2675TIP3    H229441   0.182   3.062   2.893  0.1376 -1.2524 -1.2084
 2676TIP3   OH229442   3.780   1.726   3.922 -0.0421  0.2628  0.0353
 2676TIP3    H129443   3.727   1.735   3.843 -0.1970 -2.6007 -0.3126
 2676TIP3    H229444   3.771   1.810   3.967 -4.6243  0.1242 -0.1442
 2677TIP3   OH229445   6.247   0.211  14.981  0.1721 -0.3275 -0.4445
 2677TIP3    H129446   6.321   0.170  14.938 -0.6107 -1.8847 -0.3592
 2677TIP3    H229447   6.198   0.139  15.021 -0.1624  0.8744  1.4514
 2678TIP3   OH229448   2.922   5.973   3.204 -0.5119 -0.0301  0.0340
 2678TIP3    H129449   2.826   5.965   3.199 -0.4833  0.0283 -0.6999
 2678TIP3    H229450   2.938   6.011   3.290 -1.1229 -0.4409  0.3406
 2679TIP3   OH229451   0.644   4.567   2.643 -0.2560 -0.2362 -0.0047
 2679TIP3    H129452   0.566   4.541   2.693 -0.8331  2.1847  0.4441
 2679TIP3    H229453   0.648   4.504   2.571 -2.0269 -1.0262  0.5287
 2680TIP3   OH229454   3.199   6.431   1.916 -0.0561 -0.0391  0.3305
 2680TIP3    H129455   3.162   6.433   1.828 -0.5309  0.4794  0.5375
 2680TIP3    H229456   3.125   6.410   1.974  0.5534 -2.0663  0.4680
 2681TIP3   OH229457   5.222   1.329  11.587  0.3699  0.3546 -0.0777
 2681TIP3    H129458   5.187   1.418  11.578 -0.3952 -0.0888 -1.8156
 2681TIP3    H229459   5.178   1.293  11.664 -0.4319  0.9750 -0.2382
 2682TIP3   OH229460   2.337   6.592   3.678 -0.0585 -0.1784 -0.4112
 2682TIP3    H129461   2.396   6.632   3.613 -0.2600  1.4628  0.3562
 2682TIP3    H229462   2.272   6.660   3.695  0.7201 -0.0422  2.4523
 2683TIP3   OH229463   5.016   4.417   5.771 -0.0802 -0.3063 -0.4042
 2683TIP3    H129464   5.084   4.376   5.718  2.4288  1.9376  0.7989
 2683TIP3    H229465   5.011   4.364   5.850  1.0046 -0.0113 -0.1150
 2684TIP3   OH229466   2.707   5.552   0.514  0.3789  0.3771  0.1108
 2684TIP3    H129467   2.771   5.601   0.565  1.1533 -0.4521 -0.0274
 2684TIP3    H229468   2.757   5.518   0.439 -0.3419  0.1524 -0.2768
 2685TIP3   OH229469   6.459   4.679  14.191  0.0287 -0.1859  0.1933
 2685TIP3    H129470   6.454   4.738  14.266 -1.5388  1.9925 -1.4913
 2685TIP3    H229471   6.549   4.686  14.160 -0.0450  1.0719  0.2311
 2686TIP3   OH229472   0.462   4.225   5.310 -0.1658  0.3655 -0.5036
 2686TIP3    H129473   0.379   4.247   5.269 -1.1597 -0.7000  0.8437
 2686TIP3    H229474   0.473   4.289   5.379 -1.0691 -0.8466  0.8225
 2687TIP3   OH229475   0.568   2.589   0.114 -0.0799  0.1370  0.1429
 2687TIP3    H129476   0.520   2.613   0.193  1.1395 -2.0463  1.6544
 2687TIP3    H229477   0.645   2.645   0.114  0.3667 -0.4564  1.0388
 2688TIP3   OH229478   3.517   2.543  12.700 -0.1600 -0.6575  0.3598
 2688TIP3    H129479   3.477   2.471  12.747  0.8191 -1.0032  0.6928
 2688TIP3    H229480   3.611   2.536  12.720  0.0081  0.4424  0.0531
 2689TIP3   OH229481   3.516   4.622  15.914 -0.0524  0.6489  0.0498
 2689TIP3    H129482   3.580   4.693  15.903  0.0880  0.4495 -0.4704
 2689TIP3    H229483   3.518   4.576  15.830  0.3865 -0.4038  0.6315
 2690TIP3   OH229484   2.474   1.513   1.316 -0.1920 -0.0027  0.0850
 2690TIP3    H129485   2.435   1.436   1.357  0.1671 -0.1533  0.1396
 2690TIP3    H229486   2.413   1.585   1.338 -0.1881 -0.1475  0.5758
 2691TIP3   OH229487   6.427   6.313  14.667 -0.5402 -0.2081  0.5574
 2691TIP3    H129488   6.397   6.256  14.738  0.4820  0.6190  1.6957
 2691TIP3    H229489   6.367   6.388  14.669  0.6457  0.7518  1.8782
 2692TIP3   OH229490   0.506   1.928   2.350  0.3896  0.4145 -0.8348
 2692TIP3    H129491   0.434   1.869   2.373  0.3207  0.6689 -0.3847
 2692TIP3    H229492   0.577   1.905   2.410 -0.5441  2.5729  1.2383
 2693TIP3   OH229493   0.404   0.560   4.041  0.2000  0.8759 -0.2168
 2693TIP3    H129494   0.460   0.635   4.023  0.5776  1.2804  2.3303
 2693TIP3    H229495   0.374   0.573   4.131 -2.5782 -0.2431 -0.8698
 2694TIP3   OH229496   1.045   4.159   1.885 -0.2965 -0.2255 -0.0026
 2694TIP3    H129497   0.978   4.129   1.947 -0.7102  0.1945 -0.2361
 2694TIP3    H229498   0.995   4.188   1.808  0.0940  0.7307  0.0857
 2695TIP3   OH229499   0.055   3.451   1.411  0.1025 -0.0746  1.1738
 2695TIP3    H129500   0.079   3.479   1.323 -1.5982 -2.3108 -0.1138
 2695TIP3    H229501  -0.040   3.458   1.414  0.2138  1.1410  3.3170
 2696TIP3   OH229502   5.328   0.107  13.542  0.1236  0.3956  0.2054
 2696TIP3    H129503   5.399   0.131  13.602 -0.1069  0.7297  0.3486
 2696TIP3    H229504   5.315   0.013  13.556 -0.4929  0.6349  1.2895
 2697TIP3   OH229505   0.899   4.123   1.195 -0.1802 -0.5142  0.4176
 2697TIP3    H129506   0.950   4.204   1.194  0.1327 -0.7027  0.9123
 2697TIP3    H229507   0.835   4.134   1.124  0.2456 -0.0877  0.0945
 2698TIP3   OH229508   3.393   3.595  13.255  0.6267 -0.4219 -0.0584
 2698TIP3    H129509   3.464   3.605  13.192 -0.8458 -1.2731 -1.9406
 2698TIP3    H229510   3.376   3.501  13.257  0.5355 -0.3998  1.5404
 2699TIP3   OH229511   4.000   4.333   4.364 -0.4070 -0.2358  0.0477
 2699TIP3    H129512   3.908   4.362   4.367 -0.0955  1.0979 -1.4855
 2699TIP3    H229513   3.997   4.250   4.317 -0.6222  1.2177 -2.7215
 2700TIP3   OH229514   3.172   0.013   2.598  0.3581 -0.4186 -0.1882
 2700TIP3    H129515   3.115  -0.061   2.616  0.1124 -0.0633  0.5548
 2700TIP3    H229516   3.151   0.040   2.508  0.2899 -1.0955 -0.3762
 2701TIP3   OH229517   1.774   1.188   4.678  0.1016  0.4262 -0.4942
 2701TIP3    H129518   1.775   1.130   4.754  0.0595 -0.8363 -1.4138
 2701TIP3    H229519   1.819   1.138   4.610  0.4147  1.6507 -1.2177
 2702TIP3   OH229520   2.925   0.972  15.572  0.3668  0.1784 -0.8964
 2702TIP3    H129521   2.910   1.039  15.638 -0.3037  0.3368 -1.1924
 2702TIP3    H229522   2.916   1.019  15.488  0.9619 -0.0665 -1.1014
 2703TIP3   OH229523   5.299   3.425   0.311 -0.3380 -0.3405 -0.7829
 2703TIP3    H129524   5.341   3.408   0.226 -1.8130 -1.4770 -1.3380
 2703TIP3    H229525   5.306   3.341   0.358 -2.6408 -0.8406 -1.2315
 2704TIP3   OH229526   4.142   6.371   5.313  0.2007 -0.2401  0.1240
 2704TIP3    H129527   4.189   6.405   5.390  0.6784  0.6473 -0.5421
 2704TIP3    H229528   4.069   6.433   5.301  0.2779 -0.2311 -0.2884
 2705TIP3   OH229529   3.603   4.088  16.936  0.0473 -0.3783 -0.1414
 2705TIP3    H129530   3.576   3.996  16.937 -1.2155 -0.0334  1.2755
 2705TIP3    H229531   3.526   4.135  16.903  0.8216  0.1588 -1.2364
 2706TIP3   OH229532   3.899   4.083  14.809  0.0916  0.1438  0.0643
 2706TIP3    H129533   3.913   3.998  14.852  1.0543  0.2997  0.0791
 2706TIP3    H229534   3.863   4.139  14.877 -3.7627 -1.1008 -0.7169
 2707TIP3   OH229535   3.377   2.853   2.576 -0.0297  0.7904  0.6800
 2707TIP3    H129536   3.455   2.801   2.557 -0.3160  0.7215 -0.3828
 2707TIP3    H229537   3.307   2.812   2.525 -1.0927  0.0389  2.6325
 2708TIP3   OH229538   4.348   5.876   1.103  0.4019  0.1894  0.0415
 2708TIP3    H129539   4.262   5.900   1.067 -0.7065 -0.3576  2.2012
 2708TIP3    H229540   4.340   5.783   1.125  1.4290  0.2230  0.6150
 2709TIP3   OH229541   3.850   1.340  16.445  0.4622  0.0062  0.1192
 2709TIP3    H129542   3.927   1.396  16.436 -0.8861  2.3408  2.1727
 2709TIP3    H229543   3.787   1.375  16.382 -0.9548  2.0272  2.4705
 2710TIP3   OH229544   4.500   6.020   0.541 -0.2132  0.2375  0.0766
 2710TIP3    H129545   4.536   5.932   0.552 -1.6966 -0.4163 -0.1438
 2710TIP3    H229546   4.421   6.021   0.594 -2.7179 -0.0985 -3.2724
 2711TIP3   OH229547   4.961   3.133   0.745 -0.4634 -0.2372  0.5633
 2711TIP3    H129548   5.021   3.135   0.819 -1.0175  0.1753  1.0156
 2711TIP3    H229549   5.007   3.180   0.675  0.3881 -1.3150  0.3787
 2712TIP3   OH229550   5.640   5.926  11.630 -0.5049 -0.2850 -0.3853
 2712TIP3    H129551   5.596   5.844  11.609 -2.1982  0.7402 -1.0681
 2712TIP3    H229552   5.652   5.969  11.545 -1.2399  0.9315  0.1014
 2713TIP3   OH229553   4.204   0.197  11.708  0.2540 -0.1954  0.3639
 2713TIP3    H129554   4.120   0.238  11.688  0.1151 -0.2795  0.7739
 2713TIP3    H229555   4.257   0.268  11.745  0.0591 -0.3521  0.9473
 2714TIP3   OH229556   5.232   6.191   1.910 -0.3696  0.1997 -0.5688
 2714TIP3    H129557   5.250   6.120   1.971  0.7643  0.7228 -0.2544
 2714TIP3    H229558   5.166   6.156   1.850  0.0274 -1.0424 -0.3019
 2715TIP3   OH229559   4.204   3.425  11.829  0.4349  0.1915  0.4258
 2715TIP3    H129560   4.215   3.398  11.738  1.3114 -0.7201  0.7832
 2715TIP3    H229561   4.227   3.517  11.830 -0.5049  0.4505 -0.4404
 2716TIP3   OH229562   0.583   2.650  16.141  0.0978  1.0365 -0.3996
 2716TIP3    H129563   0.579   2.592  16.065  0.5085  0.6404 -0.1215
 2716TIP3    H229564   0.675   2.647  16.169 -0.0603  1.1441  0.1418
 2717TIP3   OH229565   6.666   0.860   2.500  0.1255 -0.0655 -0.6289
 2717TIP3    H129566   6.753   0.833   2.530  0.5225  1.7326 -0.0318
 2717TIP3    H229567   6.657   0.950   2.532 -2.5559 -0.6855  0.6040
 2718TIP3   OH229568   1.675   1.650   0.452  0.1791 -0.0715  0.8096
 2718TIP3    H129569   1.733   1.574   0.450 -0.5266 -0.6406  1.3125
 2718TIP3    H229570   1.631   1.643   0.537 -1.3165 -0.1817  0.0415
 2719TIP3   OH229571   4.173   0.500  14.879 -0.0277  0.0689 -0.5200
 2719TIP3    H129572   4.174   0.585  14.836  0.5983 -0.1365 -0.9214
 2719TIP3    H229573   4.254   0.499  14.931 -0.0593 -0.2606 -0.4787
 2720TIP3   OH229574   2.537   3.617   1.098 -0.3458 -0.3115 -0.3802
 2720TIP3    H129575   2.573   3.638   1.012 -1.1126  1.7238 -0.2636
 2720TIP3    H229576   2.481   3.542   1.083  0.7153 -0.9434 -1.3438
 2721TIP3   OH229577   0.779   1.677   5.088 -0.5634  0.1640 -0.5042
 2721TIP3    H129578   0.740   1.764   5.078 -2.9481 -0.6734  0.5909
 2721TIP3    H229579   0.720   1.632   5.148  0.4775 -2.2908 -1.2130
 2722TIP3   OH229580   5.445   6.496   2.608 -0.8477 -0.0949 -0.3980
 2722TIP3    H129581   5.493   6.506   2.690 -1.6066 -1.3291  0.2359
 2722TIP3    H229582   5.447   6.583   2.568  1.8898 -0.0847 -0.4264
 2723TIP3   OH229583   3.998   0.587   2.965 -0.1591  0.0586  0.2267
 2723TIP3    H129584   4.011   0.677   2.995  0.4323  0.2617 -0.5927
 2723TIP3    H229585   4.082   0.544   2.983  0.0021  0.0268 -0.5553
 2724TIP3   OH229586   2.010   1.428   4.169  0.7237  0.3399 -0.1585
 2724TIP3    H129587   2.081   1.397   4.113  0.1586 -0.1749 -0.5869
 2724TIP3    H229588   1.965   1.494   4.116  1.5166  1.4442  0.5037
 2725TIP3   OH229589   5.105   6.607   1.457  0.1426  0.1297  0.1599
 2725TIP3    H129590   5.017   6.643   1.471 -0.9736 -1.8268 -1.2311
 2725TIP3    H229591   5.126   6.630   1.366  1.8055  1.9196  0.9327
 2726TIP3   OH229592   2.218   0.254  13.986  0.2675 -0.1487  0.0867
 2726TIP3    H129593   2.218   0.349  13.997  1.3303  0.1295 -1.8504
 2726TIP3    H229594   2.126   0.229  13.997 -0.0599  1.1203  0.4470
 2727TIP3   OH229595   4.888   6.136   4.199  0.1612 -0.0543 -0.1483
 2727TIP3    H129596   4.927   6.223   4.205 -1.2694  0.5775  0.4199
 2727TIP3    H229597   4.846   6.123   4.284  3.1032 -2.7022  1.0870
 2728TIP3   OH229598   6.678   1.824   1.741 -0.0741  0.6850 -0.0254
 2728TIP3    H129599   6.585   1.841   1.755  0.2136  0.7184  2.1559
 2728TIP3    H229600   6.692   1.736   1.775  0.6131  0.4642 -0.8343
 2729TIP3   OH229601   5.672   0.865  11.431 -0.2234  0.1295 -0.0945
 2729TIP3    H129602   5.719   0.836  11.352  0.1582 -0.0309  0.1848
 2729TIP3    H229603   5.590   0.901  11.399  0.2800  0.8249 -0.6373
 2730TIP3   OH229604   5.988   0.568  17.019  0.1107  0.0024  0.1668
 2730TIP3    H129605   6.067   0.609  17.054 -0.7238  1.7355  0.1140
 2730TIP3    H229606   5.935   0.548  17.097  0.4763 -0.9476  0.1878
 2731TIP3   OH229607   1.742   6.469   2.102 -0.4358  0.8219  0.0816
 2731TIP3    H129608   1.730   6.378   2.129 -1.0033  0.8590 -0.0281
 2731TIP3    H229609   1.759   6.516   2.183 -2.1394  0.9335  0.4079
 2732TIP3   OH229610   4.075   4.326   0.945 -0.1238  0.9427 -0.4787
 2732TIP3    H129611   4.050   4.418   0.934 -0.0844  1.0716  0.4454
 2732TIP3    H229612   4.087   4.294   0.855  0.9735  2.1536 -0.8066
 2733TIP3   OH229613   4.071   0.742  14.066 -0.3789 -0.3404  0.5833
 2733TIP3    H129614   3.999   0.702  14.018 -0.1979 -1.2773  1.0595
 2733TIP3    H229615   4.032   0.770  14.149 -0.6988  1.3022 -0.0818
 2734TIP3   OH229616   4.405   1.532   4.004 -0.4528  0.7575 -0.2194
 2734TIP3    H129617   4.492   1.569   4.016 -0.8156  1.6484 -0.2484
 2734TIP3    H229618   4.420   1.449   3.959  0.4166  0.6275  0.2910
 2735TIP3   OH229619   5.626   2.901   1.593  0.4166 -0.5048 -0.1758
 2735TIP3    H129620   5.674   2.824   1.563  0.8755 -0.9065  1.4960
 2735TIP3    H229621   5.694   2.965   1.614  0.1631 -0.5054  0.6868
 2736TIP3   OH229622   4.817   2.717  16.314  0.2122  0.1837 -0.1854
 2736TIP3    H129623   4.732   2.688  16.346  0.2110  1.4289  1.0843
 2736TIP3    H229624   4.800   2.802  16.273  0.5979 -0.3217 -1.4213
 2737TIP3   OH229625   4.771   5.202   0.010 -0.1935 -0.2906 -0.1169
 2737TIP3    H129626   4.785   5.293  -0.013 -1.2543  0.0614  0.5797
 2737TIP3    H229627   4.742   5.160  -0.072  0.2359 -0.0014 -0.4192
 2738TIP3   OH229628   3.317   0.560   2.336  0.0105  0.0079 -0.4104
 2738TIP3    H129629   3.284   0.498   2.400  0.9143  1.2500  1.3655
 2738TIP3    H229630   3.409   0.535   2.323  0.2731  0.7068  0.0215
 2739TIP3   OH229631   3.389   3.944  17.249 -0.2907  0.3256 -0.1356
 2739TIP3    H129632   3.378   4.039  17.249  0.9222  0.4828 -0.8431
 2739TIP3    H229633   3.348   3.914  17.331 -0.2134  1.4989  0.3388
 2740TIP3   OH229634   3.381   3.362   4.239  0.0150  0.3074 -0.6192
 2740TIP3    H129635   3.462   3.409   4.261  1.3127 -1.2330 -1.8881
 2740TIP3    H229636   3.361   3.391   4.150 -1.8530  1.9714  0.2668
 2741TIP3   OH229637   3.485   1.061   1.580 -0.7698  0.4816 -0.0468
 2741TIP3    H129638   3.524   0.974   1.577 -1.6162  0.1124 -0.9003
 2741TIP3    H229639   3.503   1.099   1.494 -0.6207  1.0568  0.2297
 2742TIP3   OH229640   4.104   2.737   2.566  0.2374 -0.2387  0.7172
 2742TIP3    H129641   4.110   2.831   2.587  2.7505 -0.3683  0.8636
 2742TIP3    H229642   4.102   2.694   2.651 -0.8146 -0.3334  0.6495
 2743TIP3   OH229643   2.510   4.713   0.121 -0.0920  0.2414  0.3408
 2743TIP3    H129644   2.462   4.795   0.114 -3.0215 -1.1277  2.4056
 2743TIP3    H229645   2.447   4.646   0.094  1.7445 -1.4739  0.0297
 2744TIP3   OH229646   2.381   5.991   4.198  0.5843 -0.3806  0.2486
 2744TIP3    H129647   2.347   6.069   4.240  1.5124  0.2722 -0.1817
 2744TIP3    H229648   2.324   5.920   4.229 -1.3326  0.6821 -0.6638
 2745TIP3   OH229649   5.650   3.983   6.128 -0.0604 -0.5020 -0.2813
 2745TIP3    H129650   5.598   4.044   6.179  0.7280 -0.6065  0.6854
 2745TIP3    H229651   5.589   3.913   6.104 -0.9377  0.5683 -1.2899
 2746TIP3   OH229652   6.004   2.986   2.915 -0.2517 -0.2314 -0.5372
 2746TIP3    H129653   6.061   2.937   2.975  1.6258  0.6775 -1.4714
 2746TIP3    H229654   6.030   2.955   2.828 -2.4360 -1.0135 -0.9718
 2747TIP3   OH229655   6.274   1.508   2.814 -0.1523 -1.0704  0.4767
 2747TIP3    H129656   6.246   1.450   2.743 -0.9988 -0.6231  0.4308
 2747TIP3    H229657   6.195   1.523   2.865 -0.5669  1.8317 -0.7839
 2748TIP3   OH229658   5.876   6.639   3.599  0.3045  0.6939 -0.5075
 2748TIP3    H129659   5.802   6.590   3.562  0.0989  0.8355 -0.2875
 2748TIP3    H229660   5.943   6.572   3.615 -0.3954  0.2721  0.8892
 2749TIP3   OH229661   5.576   6.008  10.828  0.3091 -0.0148 -0.4299
 2749TIP3    H129662   5.531   6.072  10.883  2.1202 -1.3192  2.8859
 2749TIP3    H229663   5.637   6.061  10.775  0.0370  1.1904  0.4067
 2750TIP3   OH229664   4.237   1.415  13.807 -0.3858 -0.3394 -0.3340
 2750TIP3    H129665   4.302   1.403  13.876  0.0698 -2.5501 -1.0551
 2750TIP3    H229666   4.288   1.441  13.730 -0.7021  0.5835 -0.2415
 2751TIP3   OH229667   2.369   4.245   4.454  0.2442 -0.3657 -0.6004
 2751TIP3    H129668   2.442   4.296   4.418  1.5618 -0.2931  1.9492
 2751TIP3    H229669   2.402   4.212   4.538 -2.4297 -0.9603  0.3014
 2752TIP3   OH229670   3.135   3.664   5.802  0.4189  0.4234  0.0291
 2752TIP3    H129671   3.196   3.619   5.744 -0.7884 -1.8626  0.4298
 2752TIP3    H229672   3.060   3.605   5.811  0.2456  0.9025  3.4142
 2753TIP3   OH229673   4.151   1.684   2.446  0.5751 -0.3138 -0.3052
 2753TIP3    H129674   4.247   1.690   2.451  0.6273  0.4631 -1.7263
 2753TIP3    H229675   4.135   1.611   2.387  0.3116  0.2030 -0.8778
 2754TIP3   OH229676   2.300   4.886   3.171 -0.3431 -0.2934 -0.3259
 2754TIP3    H129677   2.307   4.801   3.215  0.0606 -1.4348 -2.4762
 2754TIP3    H229678   2.256   4.942   3.235 -0.4298 -2.0497  1.2404
 2755TIP3   OH229679   6.702   5.272   0.844 -0.2385  0.1818 -0.0350
 2755TIP3    H129680   6.711   5.360   0.880  2.7202 -0.2046  0.4107
 2755TIP3    H229681   6.636   5.230   0.899 -0.1446  1.4469  1.0880
 2756TIP3   OH229682   5.337   1.972  14.006  0.3628  0.3796  0.1427
 2756TIP3    H129683   5.251   2.014  14.007  0.0859 -0.1686 -0.4449
 2756TIP3    H229684   5.318   1.879  14.018  0.6798 -0.0622 -2.3836
 2757TIP3   OH229685   5.394   1.350  12.655 -0.0088  0.3475 -0.7379
 2757TIP3    H129686   5.488   1.345  12.638  0.4964  0.1705  1.6627
 2757TIP3    H229687   5.353   1.345  12.569  2.2376  3.4133 -2.1374
 2758TIP3   OH229688   4.193   3.682  13.320 -0.3038 -0.1407  0.2313
 2758TIP3    H129689   4.283   3.702  13.345  0.3844 -1.6496 -0.8746
 2758TIP3    H229690   4.142   3.757  13.350  0.9816 -0.2009  2.7816
 2759TIP3   OH229691   4.648   1.183   2.558  0.3922 -0.4992  0.4478
 2759TIP3    H129692   4.701   1.105   2.577 -0.0722 -1.1655 -0.8910
 2759TIP3    H229693   4.604   1.202   2.641  0.5816 -1.6094  0.8228
 2760TIP3   OH229694   3.862   4.276  16.856 -0.7262 -0.4590  0.4021
 2760TIP3    H129695   3.924   4.348  16.862  0.3203 -1.1079 -1.6576
 2760TIP3    H229696   3.786   4.305  16.907 -0.3386  2.0761 -0.3403
 2761TIP3   OH229697   6.729   0.620  17.364 -0.0913  0.3359 -0.0832
 2761TIP3    H129698   6.701   0.704  17.330  1.4312  0.7109 -0.5185
 2761TIP3    H229699   6.824   0.630  17.377  0.0799 -1.2221  0.0980
 2762TIP3   OH229700   0.728   0.053   3.636 -0.5922 -0.3729  0.1252
 2762TIP3    H129701   0.799   0.053   3.572 -0.9897  0.9953 -0.3508
 2762TIP3    H229702   0.764   0.101   3.711 -1.2605  1.1415 -0.4686
 2763TIP3   OH229703   1.547   3.957  13.666 -0.2629  0.5636 -0.1783
 2763TIP3    H129704   1.480   3.897  13.633  0.0864 -0.4484  0.8822
 2763TIP3    H229705   1.582   3.913  13.744  1.6133  1.0701 -0.6764
 2764TIP3   OH229706   4.726   3.236  16.096  0.3713  0.1617  0.4382
 2764TIP3    H129707   4.639   3.211  16.128  0.9398 -0.1051  1.8001
 2764TIP3    H229708   4.710   3.316  16.046 -0.7198 -0.1393  0.2727
 2765TIP3   OH229709   4.630   0.745   5.421 -0.8440 -0.2600 -0.1610
 2765TIP3    H129710   4.665   0.811   5.481  0.2331 -0.7081 -0.2672
 2765TIP3    H229711   4.604   0.795   5.344  1.5608 -0.0892 -0.9421
 2766TIP3   OH229712   6.363   3.163   1.495  0.4856 -0.3742 -0.2377
 2766TIP3    H129713   6.331   3.075   1.476  1.9978 -0.9194 -0.4006
 2766TIP3    H229714   6.399   3.157   1.584 -1.9589  0.8533  0.9141
 2767TIP3   OH229715   1.205   3.931   1.992  0.6603 -0.2322 -0.5903
 2767TIP3    H129716   1.196   4.019   1.957 -1.0064  0.0349  0.4210
 2767TIP3    H229717   1.124   3.915   2.040  1.5040 -1.7988  0.4124
 2768TIP3   OH229718   0.099   1.279  13.043  0.1738 -0.2486  0.4954
 2768TIP3    H129719   0.150   1.199  13.059 -1.1883 -0.6780  3.1884
 2768TIP3    H229720   0.122   1.337  13.115 -0.0027  1.2587 -0.6073
 2769TIP3   OH229721   0.469   5.496   1.076 -0.4056  0.3398 -0.3370
 2769TIP3    H129722   0.487   5.407   1.105  1.2135 -0.2517 -2.8456
 2769TIP3    H229723   0.403   5.487   1.008 -1.9855  1.3823  0.9619
 2770TIP3   OH229724   2.825   1.806  14.930  0.3971  0.1034  0.0253
 2770TIP3    H129725   2.863   1.747  14.995 -1.1693 -2.1632 -1.0152
 2770TIP3    H229726   2.742   1.766  14.906 -0.5555  2.5471 -1.0636
 2771TIP3   OH229727   2.617   3.715  17.064  0.1055  0.3561  0.2872
 2771TIP3    H129728   2.541   3.769  17.043  0.3076  1.2417  1.6829
 2771TIP3    H229729   2.679   3.775  17.105  1.5329 -0.3738 -0.7009
 2772TIP3   OH229730   2.840   1.638  16.346 -0.0424 -0.4578 -0.2937
 2772TIP3    H129731   2.865   1.645  16.254 -0.8953 -4.1029 -0.9598
 2772TIP3    H229732   2.773   1.706  16.358  2.0154  1.9226 -1.5011
 2773TIP3   OH229733   3.072   2.779   0.837  0.1784 -0.6598  0.4114
 2773TIP3    H129734   3.135   2.745   0.774  2.8334  0.5575  2.2082
 2773TIP3    H229735   3.082   2.723   0.914  0.3198  0.5782  1.3211
 2774TIP3   OH229736   2.332   2.925   1.143  0.2756  0.2509 -0.2743
 2774TIP3    H129737   2.250   2.907   1.189 -0.9827  0.7013 -2.2205
 2774TIP3    H229738   2.330   3.020   1.127  1.5174  0.3848  0.2264
 2775TIP3   OH229739   1.884   0.094  12.554 -0.0208 -0.3380 -0.0291
 2775TIP3    H129740   1.878  -0.001  12.550 -0.6888 -0.2824 -0.5520
 2775TIP3    H229741   1.895   0.122  12.463 -0.7861  0.1323  0.0117
 2776TIP3   OH229742   5.114   0.080   3.755  0.1922  0.5936  0.2862
 2776TIP3    H129743   5.154   0.153   3.709  0.7448  1.3641  1.8996
 2776TIP3    H229744   5.026   0.072   3.717  0.4233  1.5608 -0.4763
 2777TIP3   OH229745   4.439   2.888   6.760 -0.0368 -1.3578 -0.5287
 2777TIP3    H129746   4.379   2.961   6.747  0.0478 -1.5190 -1.9882
 2777TIP3    H229747   4.413   2.850   6.844  0.4614  0.8420  0.7047
 2778TIP3   OH229748   6.670   0.093   2.181  0.0761  0.9966  0.2258
 2778TIP3    H129749   6.621   0.142   2.247  0.0188 -0.0209  0.9621
 2778TIP3    H229750   6.732   0.041   2.232 -0.9078 -0.8711 -0.4059
 2779TIP3   OH229751   6.559   5.918   1.848  0.1303  0.4484 -0.1551
 2779TIP3    H129752   6.582   5.976   1.776  0.8429 -1.9040 -1.9564
 2779TIP3    H229753   6.643   5.894   1.887 -0.1814  0.8408  0.7979
 2780TIP3   OH229754   0.455   4.170   3.597 -0.1340 -0.6578 -0.5824
 2780TIP3    H129755   0.387   4.134   3.540 -1.3236 -0.4970  0.6684
 2780TIP3    H229756   0.511   4.095   3.617 -0.7150 -1.0995 -0.5755
 2781TIP3   OH229757   0.401   5.884  12.146  0.4262 -0.4110  0.0356
 2781TIP3    H129758   0.379   5.819  12.080 -0.8637  0.8730 -0.8672
 2781TIP3    H229759   0.403   5.967  12.098  3.5494  0.1071  0.8303
 2782TIP3   OH229760   6.422   5.878  12.855  0.8333 -0.0690  0.2590
 2782TIP3    H129761   6.488   5.908  12.917  0.0689  2.3781  0.0121
 2782TIP3    H229762   6.470   5.865  12.773  1.2834  0.0710  0.4984
 2783TIP3   OH229763   6.359   5.379  13.305 -0.0359 -0.1353 -0.1115
 2783TIP3    H129764   6.423   5.338  13.247 -0.8591  0.4052 -1.4857
 2783TIP3    H229765   6.280   5.385  13.251 -1.1083 -0.3809  1.3833
 2784TIP3   OH229766   4.195   2.707   4.385  0.5049 -0.1033 -0.4511
 2784TIP3    H129767   4.149   2.640   4.335 -0.3785  0.7689 -0.8393
 2784TIP3    H229768   4.278   2.666   4.409  0.8752 -0.6364 -2.4454
 2785TIP3   OH229769   2.929   1.377   3.888  0.1883  0.3616  0.2185
 2785TIP3    H129770   2.993   1.376   3.959 -0.9757 -0.7035  1.2959
 2785TIP3    H229771   2.883   1.460   3.899  1.7814  1.4650 -0.9863
 2786TIP3   OH229772   1.253   6.685  15.200  0.1656 -0.7363  0.0098
 2786TIP3    H129773   1.165   6.663  15.169  0.5492 -0.8472 -1.0322
 2786TIP3    H229774   1.241   6.763  15.253 -0.2774  0.6231 -1.9746
 2787TIP3   OH229775   3.721   2.103  12.156 -0.3225 -0.4976  0.2533
 2787TIP3    H129776   3.786   2.037  12.133 -0.6441 -1.2428  1.4046
 2787TIP3    H229777   3.726   2.110  12.251  1.0575  2.5595  0.0796
 2788TIP3   OH229778   6.280   3.916   3.761  0.1614 -0.6867  1.1566
 2788TIP3    H129779   6.307   3.981   3.827  1.2015 -1.7665  1.8348
 2788TIP3    H229780   6.274   3.834   3.810  2.5512 -1.8772 -0.3409
 2789TIP3   OH229781   2.842   3.793  13.142 -0.1834  0.0257 -0.5435
 2789TIP3    H129782   2.858   3.716  13.087 -2.0529  0.4454 -1.7873
 2789TIP3    H229783   2.808   3.757  13.224  2.2445 -0.5852  0.2946
 2790TIP3   OH229784   5.564   1.034  14.490  0.2689 -0.2078 -0.3682
 2790TIP3    H129785   5.561   1.094  14.565  0.3407  0.1128 -0.6205
 2790TIP3    H229786   5.485   0.980  14.499  1.0375 -1.2114  0.7871
 2791TIP3   OH229787   6.755   4.904  15.553  0.0558  0.4226 -0.2447
 2791TIP3    H129788   6.736   4.992  15.586  2.6563  0.8997  0.2214
 2791TIP3    H229789   6.838   4.881  15.594 -0.4177 -2.1723 -0.5754
 2792TIP3   OH229790   5.260   0.499   3.753 -0.0252  0.1193  0.3804
 2792TIP3    H129791   5.232   0.547   3.830  0.7124  0.0293  0.7142
 2792TIP3    H229792   5.184   0.446   3.728 -0.4463  0.5662  0.7106
 2793TIP3   OH229793   3.300   3.965   3.342  0.3966  0.5070 -0.5930
 2793TIP3    H129794   3.318   3.951   3.435  1.9490 -0.6276 -1.0178
 2793TIP3    H229795   3.238   4.038   3.339 -0.7466 -0.3129  1.3897
 2794TIP3   OH229796   5.812   4.961   2.556  0.4915  0.2723 -0.0601
 2794TIP3    H129797   5.760   4.886   2.583  0.0257 -0.7200 -3.3054
 2794TIP3    H229798   5.900   4.925   2.540  0.1763  0.2186 -1.9850
 2795TIP3   OH229799   4.278   3.923  11.335 -0.3584 -0.2671 -0.1008
 2795TIP3    H129800   4.350   3.958  11.283 -0.7006  0.8480  0.1316
 2795TIP3    H229801   4.288   3.828  11.330 -1.1379 -0.2718 -3.2498
 2796TIP3   OH229802   0.458   4.270   0.957  0.2301  0.1173 -0.3442
 2796TIP3    H129803   0.410   4.235   1.031 -0.5031  0.4568 -0.6447
 2796TIP3    H229804   0.491   4.355   0.987  0.1137  0.1612 -0.3422
 2797TIP3   OH229805   1.922   1.863  16.241  0.3528 -0.1842  0.0467
 2797TIP3    H129806   1.838   1.892  16.205 -0.2107 -1.1435  0.5250
 2797TIP3    H229807   1.938   1.920  16.316 -0.4350 -0.6802  0.6146
 2798TIP3   OH229808   5.927   0.221  17.076 -0.8514 -0.4332  0.0663
 2798TIP3    H129809   5.947   0.187  17.163 -0.5116  0.2462  0.2553
 2798TIP3    H229810   5.861   0.289  17.091 -1.0557 -0.5591 -0.2457
 2799TIP3   OH229811   6.160   2.122  15.008 -0.2361 -0.8621 -0.0762
 2799TIP3    H129812   6.172   2.075  15.091  0.5503 -0.9552 -0.2326
 2799TIP3    H229813   6.066   2.138  15.003 -0.2822 -0.7348  0.9037
 2800TIP3   OH229814   4.534   3.021   3.069  0.1883 -0.5343  0.0357
 2800TIP3    H129815   4.454   2.986   3.028 -0.8125  1.2362  0.3946
 2800TIP3    H229816   4.601   3.010   3.002 -0.5631 -1.1576 -0.6487
 2801TIP3   OH229817   4.017   1.641   2.929  0.2772 -0.5993  0.3294
 2801TIP3    H129818   3.958   1.567   2.915  2.0280 -2.0169  0.1017
 2801TIP3    H229819   3.991   1.704   2.862 -1.2591 -0.9579  0.5287
 2802TIP3   OH229820   5.827   3.789  14.443 -0.3345  0.5552  0.0230
 2802TIP3    H129821   5.746   3.780  14.392 -0.5836  0.6217  0.4061
 2802TIP3    H229822   5.896   3.798  14.377 -0.8669  2.5880 -0.3181
 2803TIP3   OH229823   1.025   0.238  16.337  0.6802  0.3584  0.1786
 2803TIP3    H129824   1.092   0.173  16.356  0.7250  0.1453 -0.6500
 2803TIP3    H229825   1.025   0.244  16.241  2.1978  3.1571  0.2411
 2804TIP3   OH229826   1.809   2.827   5.463 -0.2834  0.3329 -0.4515
 2804TIP3    H129827   1.728   2.866   5.497 -0.3379 -1.5153  1.7594
 2804TIP3    H229828   1.872   2.836   5.534  1.5182  1.6622 -2.1163
 2805TIP3   OH229829   4.876   4.972   4.124  0.2423  0.3236 -0.3646
 2805TIP3    H129830   4.960   4.928   4.108  0.1939 -1.0644  2.6221
 2805TIP3    H229831   4.813   4.901   4.134 -0.6548  1.2238  0.6175
 2806TIP3   OH229832   1.936   5.935   1.928  0.1987 -0.4930 -0.0517
 2806TIP3    H129833   1.850   5.976   1.922 -1.1907 -3.2879 -0.8653
 2806TIP3    H229834   1.981   5.961   1.848 -0.1303  0.4850  0.0760
 2807TIP3   OH229835   3.075   3.604   0.776  0.2469  0.1442  0.7155
 2807TIP3    H129836   2.980   3.596   0.768  0.4056 -0.7079 -0.5847
 2807TIP3    H229837   3.101   3.659   0.703  0.9809 -1.6284 -0.4212
 2808TIP3   OH229838   2.760   1.098  13.423  0.2513 -0.3069  0.4004
 2808TIP3    H129839   2.739   1.013  13.383 -0.5181 -0.3778  0.9232
 2808TIP3    H229840   2.787   1.153  13.350 -0.6494 -0.5873 -0.1646
 2809TIP3   OH229841   1.668   3.725  15.657 -0.2133 -0.3968 -0.2363
 2809TIP3    H129842   1.684   3.673  15.579  1.3241  1.8133 -1.5139
 2809TIP3    H229843   1.741   3.786  15.661 -0.3213 -0.3016  2.8848
 2810TIP3   OH229844   2.501   6.311  16.861 -0.0511 -0.1417  0.2568
 2810TIP3    H129845   2.571   6.287  16.921  1.3752 -0.4700 -1.4459
 2810TIP3    H229846   2.546   6.336  16.780 -1.8937 -0.2273 -0.8656
 2811TIP3   OH229847   2.769   2.169   0.800  0.0722 -0.1149 -0.2101
 2811TIP3    H129848   2.762   2.189   0.707  1.6220 -0.1974 -0.3767
 2811TIP3    H229849   2.809   2.247   0.839  1.5046 -0.9069 -0.0208
 2812TIP3   OH229850   6.447   0.478   6.655 -0.2688  0.1281 -0.8128
 2812TIP3    H129851   6.364   0.499   6.697  0.4376  1.5136 -0.0155
 2812TIP3    H229852   6.509   0.540   6.694  1.4642 -1.8270 -0.2994
 2813TIP3   OH229853   0.926   6.655  14.443  0.3437  0.1884  0.5527
 2813TIP3    H129854   0.867   6.663  14.517 -0.4234  1.2769 -0.1482
 2813TIP3    H229855   0.945   6.561  14.437 -2.9224 -0.5299 -0.4129
 2814TIP3   OH229856   0.084   0.808  11.369  0.6076  0.0322 -0.1033
 2814TIP3    H129857   0.178   0.827  11.362  0.2171  1.8002 -1.6660
 2814TIP3    H229858   0.051   0.873  11.431  0.3785 -0.4947  0.3352
 2815TIP3   OH229859   4.427   4.323  12.080 -0.2604  0.4125 -0.0157
 2815TIP3    H129860   4.405   4.258  12.147  0.3462  0.3556  0.1409
 2815TIP3    H229861   4.431   4.273  11.998  0.7343  0.1267  0.1839
 2816TIP3   OH229862   5.932   3.745  10.956  0.5747 -0.1643  0.1932
 2816TIP3    H129863   5.970   3.794  10.883 -4.1771  2.2868 -1.0951
 2816TIP3    H229864   5.919   3.657  10.922  0.8114  0.2553 -1.0342
 2817TIP3   OH229865   0.067   5.667   4.068 -0.1922  0.5919  0.1846
 2817TIP3    H129866   0.099   5.684   4.157 -0.1556 -1.5502  0.6413
 2817TIP3    H229867  -0.021   5.705   4.067 -2.4098 -3.6625  2.9955
 2818TIP3   OH229868   1.056   0.868  15.909  0.1937 -0.2645  0.1737
 2818TIP3    H129869   1.017   0.926  15.975  2.1297  1.6113 -0.2080
 2818TIP3    H229870   1.148   0.861  15.935  0.6239 -0.8421 -1.4161
 2819TIP3   OH229871   4.286   3.925   3.144  0.1493  0.2393 -0.5617
 2819TIP3    H129872   4.315   3.920   3.235  0.0642  1.1091 -0.4775
 2819TIP3    H229873   4.355   3.879   3.095 -0.4890 -1.4586  0.0540
 2820TIP3   OH229874   2.217   3.555   5.673  0.2536  0.1275 -0.0184
 2820TIP3    H129875   2.255   3.635   5.637  1.6923  0.2731  1.6863
 2820TIP3    H229876   2.222   3.566   5.768  1.5715 -2.4218  0.3066
 2821TIP3   OH229877   3.082   2.757  16.085  0.7427 -0.2466 -0.6976
 2821TIP3    H129878   3.097   2.795  15.999  0.7539  1.3362 -0.0271
 2821TIP3    H229879   3.162   2.707  16.104  1.3792  0.6418 -0.9746
 2822TIP3   OH229880   1.977   4.425   2.029  0.0569 -0.1117  0.6060
 2822TIP3    H129881   2.066   4.393   2.018 -0.1432 -0.5906  0.3270
 2822TIP3    H229882   1.985   4.503   2.083  0.7163  0.2376  0.0172
 2823TIP3   OH229883   0.211   5.861  15.075 -0.5346 -0.9512 -0.0496
 2823TIP3    H129884   0.131   5.877  15.125 -0.8668  0.1202 -0.8712
 2823TIP3    H229885   0.280   5.859  15.141 -0.7207  2.1025  0.4185
 2824TIP3   OH229886   0.981   0.568  13.417  0.2302 -0.0144  0.1105
 2824TIP3    H129887   0.896   0.603  13.444  0.3320 -1.1237  2.0707
 2824TIP3    H229888   1.033   0.646  13.397 -0.5324  0.8058  1.1966
 2825TIP3   OH229889   4.526   3.043   5.061 -0.0972  0.0134 -0.1967
 2825TIP3    H129890   4.450   3.063   5.007 -1.0576 -0.7862  0.8221
 2825TIP3    H229891   4.511   3.092   5.142  0.6415  0.1080 -0.1099
 2826TIP3   OH229892   3.989   3.824   6.661 -0.1695 -0.1105 -0.0706
 2826TIP3    H129893   4.028   3.909   6.680  1.2246 -1.2075  2.4029
 2826TIP3    H229894   4.013   3.769   6.735 -0.5663 -2.8462 -1.8166
 2827TIP3   OH229895   0.827   1.919   3.269  0.4206 -0.2115  0.2746
 2827TIP3    H129896   0.899   1.917   3.332  0.8462 -1.3406 -0.2346
 2827TIP3    H229897   0.754   1.959   3.318  0.5838 -1.5053  1.6478
 2828TIP3   OH229898   5.063   1.144   5.197 -0.1156 -0.3983  0.1020
 2828TIP3    H129899   5.011   1.212   5.155 -0.6648 -1.2018 -0.5393
 2828TIP3    H229900   5.106   1.098   5.125  0.5474 -0.4988  0.5518
 2829TIP3   OH229901   5.465   4.469  15.937  0.1742  0.6413  0.6162
 2829TIP3    H129902   5.555   4.489  15.962  0.9999 -0.7358 -1.0448
 2829TIP3    H229903   5.435   4.408  16.004  0.6454  0.7241  0.9053
 2830TIP3   OH229904   3.017   6.310  12.816 -0.3654 -0.0388 -0.1663
 2830TIP3    H129905   3.112   6.300  12.805  0.4288  2.4290  2.9197
 2830TIP3    H229906   2.991   6.234  12.867 -0.3671 -1.3711 -2.0627
 2831TIP3   OH229907   1.270   2.322  14.874  0.0526 -0.6961 -0.0217
 2831TIP3    H129908   1.203   2.312  14.807  1.8440 -2.3508 -1.7165
 2831TIP3    H229909   1.346   2.276  14.839  1.7877  0.2401  2.2242
 2832TIP3   OH229910   3.965   0.607  13.156  0.7979 -0.2071 -0.1946
 2832TIP3    H129911   3.909   0.542  13.197  1.1721  0.0061  0.6638
 2832TIP3    H229912   4.029   0.631  13.223  0.6669  1.0559 -0.4853
 2833TIP3   OH229913   2.443   2.381   1.172 -0.0159 -0.6295  0.4014
 2833TIP3    H129914   2.359   2.426   1.160  0.8852  1.2755  0.9032
 2833TIP3    H229915   2.463   2.393   1.264  2.2799  1.7542 -0.2952
 2834TIP3   OH229916   0.777   3.078   2.330  0.1552  1.2818 -0.5065
 2834TIP3    H129917   0.797   2.995   2.286  3.7022  2.1900 -0.9172
 2834TIP3    H229918   0.757   3.139   2.258 -2.0914  0.9439 -0.2278
 2835TIP3   OH229919   2.090   2.563   3.451 -0.6861 -1.1971 -0.2828
 2835TIP3    H129920   2.103   2.469   3.443 -1.1492 -1.2032 -1.0229
 2835TIP3    H229921   2.018   2.583   3.391 -1.8323 -0.6437  1.1971
 2836TIP3   OH229922   5.527   1.441  15.682  0.3931 -0.1883  0.1442
 2836TIP3    H129923   5.563   1.453  15.594  1.3709  1.3174  0.7083
 2836TIP3    H229924   5.480   1.522  15.700  0.1852 -0.4880  0.9957
 2837TIP3   OH229925   2.788   6.062  12.270  0.2777  0.7710 -0.4907
 2837TIP3    H129926   2.853   6.104  12.214  0.3480  1.9386  0.4189
 2837TIP3    H229927   2.840   6.024  12.341  0.1198  0.0450 -0.7618
 2838TIP3   OH229928   2.218   6.712   4.191 -0.1318  0.2407 -0.2392
 2838TIP3    H129929   2.277   6.689   4.119  0.4777 -0.6483  0.5227
 2838TIP3    H229930   2.233   6.805   4.206  0.9943  0.0596 -0.1498
 2839TIP3   OH229931   5.692   0.330   4.925  0.4712 -0.0078 -0.3112
 2839TIP3    H129932   5.662   0.241   4.907 -2.2711  0.7001  0.3341
 2839TIP3    H229933   5.753   0.320   4.998  1.0626 -1.4486 -0.9695
 2840TIP3   OH229934   4.373   4.120  17.369 -0.3489  0.4325 -0.2681
 2840TIP3    H129935   4.320   4.071  17.306 -3.7839  1.9114  1.1979
 2840TIP3    H229936   4.359   4.075  17.452  1.3095  0.5020  0.0788
 2841TIP3   OH229937   5.443   1.131   1.337  0.3882 -0.3688 -0.3673
 2841TIP3    H129938   5.424   1.122   1.244  0.2607 -1.5575 -0.2364
 2841TIP3    H229939   5.416   1.048   1.376  1.7093 -0.4136  0.5214
 2842TIP3   OH229940   3.379   0.625  15.496  0.4713 -0.2373 -0.5984
 2842TIP3    H129941   3.328   0.691  15.542  0.3059 -1.7220  1.5021
 2842TIP3    H229942   3.315   0.559  15.469  1.0726 -1.5685  1.0781
 2843TIP3   OH229943   3.036   5.092   4.874  0.1172 -0.5781  0.3842
 2843TIP3    H129944   2.944   5.067   4.884 -0.4149  1.4568  1.0452
 2843TIP3    H229945   3.082   5.039   4.940 -0.8375 -0.4245  1.2021
 2844TIP3   OH229946   2.475   1.098   4.108  0.2755 -0.5624  0.5014
 2844TIP3    H129947   2.450   1.044   4.183  1.0925  0.2416  1.3782
 2844TIP3    H229948   2.418   1.069   4.038 -1.7973 -0.0833  1.9054
 2845TIP3   OH229949   2.644   3.715   3.129  0.1373 -0.5475  0.5472
 2845TIP3    H129950   2.725   3.669   3.108  0.8725 -0.2669  2.5260
 2845TIP3    H229951   2.659   3.805   3.102 -0.2652 -0.8599 -0.8078
 2846TIP3   OH229952   6.463   4.973  15.386  0.5656 -0.2653  0.1434
 2846TIP3    H129953   6.537   5.019  15.347 -0.0678  0.9339  0.3151
 2846TIP3    H229954   6.503   4.906  15.441  1.5561  0.7974  0.7608
 2847TIP3   OH229955   1.272   2.478  16.233  0.2980  0.1922 -0.4590
 2847TIP3    H129956   1.346   2.538  16.230  1.3017 -0.9844  0.0495
 2847TIP3    H229957   1.202   2.530  16.273  1.3914  0.7942  0.7716
 2848TIP3   OH229958   5.507   3.669   0.698 -0.2775 -0.2805 -0.1541
 2848TIP3    H129959   5.544   3.677   0.610  1.6730  3.0170  0.8264
 2848TIP3    H229960   5.579   3.635   0.751 -0.8256 -0.3143  0.5831
 2849TIP3   OH229961   5.337   3.158  14.634 -0.6758 -0.0884  0.2882
 2849TIP3    H129962   5.388   3.201  14.703 -3.0526 -1.1047  2.8761
 2849TIP3    H229963   5.400   3.101  14.589  0.9759  0.6560  1.5452
 2850TIP3   OH229964   3.112   2.351  10.405  0.3275  0.1493 -0.1461
 2850TIP3    H129965   3.135   2.394  10.323  1.2689 -1.4556 -0.7847
 2850TIP3    H229966   3.071   2.268  10.377 -0.1268 -0.0326  1.0049
 2851TIP3   OH229967   2.817   1.336   2.474 -0.4581  0.3166 -0.4431
 2851TIP3    H129968   2.829   1.268   2.541  2.2554 -1.5019 -2.5641
 2851TIP3    H229969   2.752   1.300   2.414 -1.0872  0.8613 -0.0951
 2852TIP3   OH229970   4.270   1.269   3.790 -0.5611 -0.2215  0.6127
 2852TIP3    H129971   4.186   1.224   3.801  0.0741 -1.6072  0.0355
 2852TIP3    H229972   4.250   1.340   3.728 -1.4082 -0.2275  0.8608
 2853TIP3   OH229973   3.939   5.128  16.761 -0.0145  0.5419 -0.3534
 2853TIP3    H129974   3.872   5.187  16.794  1.0026  1.1333  0.7436
 2853TIP3    H229975   3.922   5.122  16.667 -1.0292  1.3976 -0.2435
 2854TIP3   OH229976   5.008   0.960  12.737 -0.0164 -0.0253  1.0329
 2854TIP3    H129977   4.914   0.975  12.744 -0.4381 -2.3695  1.4109
 2854TIP3    H229978   5.026   0.960  12.643 -0.2284  1.1820  0.9809
 2855TIP3   OH229979   6.294   0.365  15.776  0.0130  0.6923 -0.5213
 2855TIP3    H129980   6.209   0.385  15.735  0.5218  0.5140 -1.7066
 2855TIP3    H229981   6.335   0.304  15.716  1.8443  2.3469 -1.0516
 2856TIP3   OH229982   1.187   2.833   3.439  0.0513  0.3853  0.3344
 2856TIP3    H129983   1.265   2.842   3.385 -0.4996 -1.0641 -0.7616
 2856TIP3    H229984   1.220   2.828   3.528  1.2410 -0.4918 -0.1316
 2857TIP3   OH229985   1.960   5.825  15.305  0.2126  0.0582 -0.5847
 2857TIP3    H129986   1.965   5.753  15.368  0.1957 -0.0059 -0.6574
 2857TIP3    H229987   1.894   5.798  15.242 -0.7921  0.7301  0.1458
 2858TIP3   OH229988   6.196   4.643  10.543  0.3811 -0.3364 -0.5617
 2858TIP3    H129989   6.206   4.562  10.494  1.2641  0.1271 -1.1754
 2858TIP3    H229990   6.240   4.710  10.490  0.6275  0.3362  0.4419
 2859TIP3   OH229991   1.962   3.840   5.703  0.1464 -0.2660 -0.1923
 2859TIP3    H129992   1.965   3.770   5.768 -0.0803 -1.0486 -0.9922
 2859TIP3    H229993   1.869   3.850   5.682  0.2553 -0.3592 -0.7360
 2860TIP3   OH229994   0.906   0.568   5.331  0.1461  0.3641 -0.0074
 2860TIP3    H129995   0.910   0.641   5.269  0.7938  0.3846  0.0541
 2860TIP3    H229996   0.812   0.547   5.337 -0.0098  0.9526 -0.2958
 2861TIP3   OH229997   0.907   4.239  16.835  0.2511  0.1438 -0.4790
 2861TIP3    H129998   0.947   4.285  16.761 -1.6124  1.1959 -0.9067
 2861TIP3    H229999   0.938   4.285  16.913  0.7954  0.1741 -0.7128
 2862TIP3   OH230000   0.974   4.374  12.279 -0.1069 -0.0195 -0.2066
 2862TIP3    H130001   0.880   4.375  12.300  0.0183 -1.2573  0.5435
 2862TIP3    H230002   1.017   4.364  12.364  0.7362  0.9957 -0.5014
 2863TIP3   OH230003   3.948   2.822  17.030  0.1802  0.0957 -0.1645
 2863TIP3    H130004   3.858   2.805  17.001  0.3202  0.3707 -0.7829
 2863TIP3    H230005   3.949   2.915  17.052  0.1359 -0.0603  0.5279
 2864TIP3   OH230006   0.056   0.303  11.846  0.7769  0.7277  0.1010
 2864TIP3    H130007   0.145   0.276  11.823  1.0629  1.8583 -0.2015
 2864TIP3    H230008   0.044   0.387  11.800 -0.5122  0.4972 -0.0150
 2865TIP3   OH230009   5.010   4.317  17.237  0.2620  0.0214  0.0459
 2865TIP3    H130010   5.057   4.393  17.203  0.9278  0.0789  1.0457
 2865TIP3    H230011   4.917   4.341  17.232  0.3669  0.2379 -1.1665
 2866TIP3   OH230012   4.304   3.072  11.138 -0.0198  0.0527  0.1180
 2866TIP3    H130013   4.250   3.085  11.060 -1.8983 -0.5952  1.2334
 2866TIP3    H230014   4.284   2.983  11.166  0.6059  0.2713  1.3300
 2867TIP3   OH230015   6.313   4.352   5.728  0.2709 -0.1277  0.4393
 2867TIP3    H130016   6.252   4.325   5.660  0.6723  0.2847 -0.0965
 2867TIP3    H230017   6.349   4.270   5.762  0.5768 -0.3204 -0.3257
 2868TIP3   OH230018   0.171   3.421  14.018 -0.1453 -0.4400 -0.0199
 2868TIP3    H130019   0.101   3.474  13.981 -0.8827 -1.7222 -0.5252
 2868TIP3    H230020   0.174   3.343  13.962  0.9147 -0.9307  0.6875
 2869TIP3   OH230021   3.201   1.639   4.139  0.4174 -0.2884 -0.2406
 2869TIP3    H130022   3.199   1.617   4.233  0.9551 -1.5845 -0.5001
 2869TIP3    H230023   3.186   1.555   4.095 -1.0564  0.5052 -1.3222
 2870TIP3   OH230024   3.846   2.794   0.043  0.3255  0.0731  0.0833
 2870TIP3    H130025   3.845   2.889   0.037 -0.3390 -0.0156 -1.7572
 2870TIP3    H230026   3.769   2.766  -0.006  0.5957 -1.4281  0.4594
 2871TIP3   OH230027   3.998   5.188   6.099 -0.0067  0.1683  0.1002
 2871TIP3    H130028   3.937   5.188   6.173 -0.7583  0.4197 -0.4992
 2871TIP3    H230029   3.963   5.123   6.039  0.2147  0.4439 -0.3354
 2872TIP3   OH230030   1.585   4.799  16.058 -0.4010  0.0469 -0.2937
 2872TIP3    H130031   1.544   4.876  16.019 -0.8532  0.6125  1.2124
 2872TIP3    H230032   1.655   4.834  16.112 -0.1844 -0.6518 -0.1097
 2873TIP3   OH230033   4.141   3.378  12.674 -0.4649  0.1206 -0.0231
 2873TIP3    H130034   4.097   3.437  12.613 -1.9034  0.0270  0.8788
 2873TIP3    H230035   4.234   3.383  12.649 -0.8687  0.8792 -1.5180
 2874TIP3   OH230036   0.226   4.613  15.889  0.5547  0.0426 -0.0606
 2874TIP3    H130037   0.136   4.612  15.858 -0.4496 -3.2841  2.4280
 2874TIP3    H230038   0.271   4.546  15.838  0.8433 -0.2507  0.5597
 2875TIP3   OH230039   4.598   3.931  16.568 -0.1574  0.0688 -0.4300
 2875TIP3    H130040   4.682   3.962  16.534  0.5751  0.5608  1.6581
 2875TIP3    H230041   4.607   3.937  16.663 -3.0762  1.5366 -0.1374
 2876TIP3   OH230042   2.903   2.393  12.882 -0.0291  0.2048 -0.3359
 2876TIP3    H130043   2.936   2.473  12.842  1.2099  0.4238  1.0415
 2876TIP3    H230044   2.944   2.391  12.968 -2.3404 -0.4154  0.8083
 2877TIP3   OH230045   5.487   0.844  13.391 -0.2679  0.2754  0.6403
 2877TIP3    H130046   5.463   0.817  13.303  2.0336 -1.4234  0.4300
 2877TIP3    H230047   5.405   0.872  13.432 -1.4795  0.5035 -1.8075
 2878TIP3   OH230048   5.528   5.537  15.565 -0.0486  0.3138 -0.0085
 2878TIP3    H130049   5.531   5.627  15.596 -2.9681  0.2812  0.6229
 2878TIP3    H230050   5.512   5.543  15.471 -0.0066  0.4387 -0.0065
 2879TIP3   OH230051   3.923   5.804  16.382 -0.8200 -0.0265 -0.2691
 2879TIP3    H130052   3.941   5.740  16.452  0.5768  0.7234  0.0928
 2879TIP3    H230053   3.896   5.883  16.428 -2.2959 -0.2565 -0.7094
 2880TIP3   OH230054   1.746   1.482   5.524  0.5755 -0.5315 -0.1135
 2880TIP3    H130055   1.784   1.396   5.545  1.4467  0.0906  0.9799
 2880TIP3    H230056   1.678   1.463   5.459  2.2503 -1.7864 -1.6153
 2881TIP3   OH230057   5.635   2.380  17.044  0.0719 -0.4392 -0.1556
 2881TIP3    H130058   5.674   2.466  17.059 -3.1293  1.5933 -2.2458
 2881TIP3    H230059   5.691   2.340  16.978  1.4967  0.1022  0.6823
 2882TIP3   OH230060   2.348   3.976   3.268 -0.2898 -0.1822  0.3954
 2882TIP3    H130061   2.367   3.893   3.224 -0.5009 -0.2333  0.3983
 2882TIP3    H230062   2.339   3.954   3.360 -2.7732 -0.6045  0.1449
 2883TIP3   OH230063   0.272   4.404   3.142  0.1128 -0.2077 -0.2040
 2883TIP3    H130064   0.234   4.435   3.059 -0.1735  0.2113  0.0797
 2883TIP3    H230065   0.198   4.365   3.189  0.0767  0.4192  0.2626
 2884TIP3   OH230066   1.983   4.897   0.462  0.2256 -0.4775 -0.0826
 2884TIP3    H130067   1.917   4.919   0.527  1.8303 -1.1143  1.8414
 2884TIP3    H230068   2.023   4.981   0.438  1.8879 -0.4717  2.3407
 2885TIP3   OH230069   3.795   1.646   2.262 -0.2093  0.1228  0.1557
 2885TIP3    H130070   3.707   1.647   2.299 -1.1188  0.3726 -1.8923
 2885TIP3    H230071   3.810   1.737   2.234  0.8330  0.1455  0.7202
 2886TIP3   OH230072   1.739   4.830  14.108  0.0036  0.7039 -0.4520
 2886TIP3    H130073   1.651   4.857  14.133 -1.0725 -0.6017 -2.5870
 2886TIP3    H230074   1.726   4.758  14.045  2.6005 -0.1143 -0.1807
 2887TIP3   OH230075   1.259   0.075   0.416 -0.0846  0.1203 -0.0843
 2887TIP3    H130076   1.180   0.083   0.470  0.6576  0.2248  1.0220
 2887TIP3    H230077   1.282   0.166   0.394 -0.0222  0.1156 -0.0380
 2888TIP3   OH230078   3.961   4.342  14.193 -0.2059 -0.4050 -0.1939
 2888TIP3    H130079   3.914   4.404  14.249  3.0439  1.7675  0.4161
 2888TIP3    H230080   4.008   4.285  14.254  0.8297 -0.1263 -0.7089
 2889TIP3   OH230081   3.297   1.448   1.582  0.0516 -0.3685 -0.3448
 2889TIP3    H130082   3.326   1.463   1.672  0.3081  0.3083 -0.5303
 2889TIP3    H230083   3.263   1.359   1.582  2.2555 -1.2853 -0.1252
 2890TIP3   OH230084   6.642   5.152  14.657 -0.3247 -0.3812 -0.0431
 2890TIP3    H130085   6.598   5.080  14.700  1.0201 -0.5605  1.1189
 2890TIP3    H230086   6.689   5.198  14.727  1.8623 -0.6178 -1.2345
 2891TIP3   OH230087   1.335   4.599  15.931  0.1135  0.1498 -0.0689
 2891TIP3    H130088   1.402   4.654  15.891  0.7473 -0.4385  0.1680
 2891TIP3    H230089   1.267   4.592  15.863  0.6563  0.0892 -0.6165
 2892TIP3   OH230090   2.592   6.534  11.994  0.3461  0.0011 -0.4767
 2892TIP3    H130091   2.528   6.603  12.008  1.4008  0.9339 -0.0982
 2892TIP3    H230092   2.567   6.494  11.911 -0.2513  0.8686 -0.7223
 2893TIP3   OH230093   1.791   0.481   1.154 -0.5693 -0.5855  0.0643
 2893TIP3    H130094   1.856   0.437   1.099 -1.9213 -2.2593 -0.2910
 2893TIP3    H230095   1.796   0.435   1.238 -1.5847 -1.0762 -0.1214
 2894TIP3   OH230096   5.769   4.919   1.510  0.1121  0.1051 -0.0709
 2894TIP3    H130097   5.694   4.866   1.535 -0.4466  0.9912  0.1729
 2894TIP3    H230098   5.798   4.959   1.592  1.3108 -0.7753 -0.0273
 2895TIP3   OH230099   2.067   3.584  16.890  0.1837 -0.1054 -0.5665
 2895TIP3    H130100   2.129   3.532  16.941 -2.0756 -1.7843  0.6467
 2895TIP3    H230101   2.035   3.650  16.952 -0.6775 -0.5177 -0.5599
 2896TIP3   OH230102   4.962   4.433   6.420  0.0427 -0.3218  0.1588
 2896TIP3    H130103   4.873   4.423   6.455 -0.1773 -0.1894 -0.3541
 2896TIP3    H230104   4.982   4.349   6.380 -0.7589  0.3568 -1.7637
 2897TIP3   OH230105   1.414   6.459   7.011 -0.1346  0.7000 -0.3708
 2897TIP3    H130106   1.379   6.371   7.019  1.3945  0.0889  0.0202
 2897TIP3    H230107   1.366   6.498   6.938 -0.8494 -0.4356 -0.5286
 2898TIP3   OH230108   0.066   2.961  13.601  0.4743  0.2899 -0.5201
 2898TIP3    H130109  -0.013   3.014  13.608 -1.0892 -2.0297  1.1396
 2898TIP3    H230110   0.118   3.003  13.532 -1.6294  2.6002 -0.8272
 2899TIP3   OH230111   1.959   0.270   3.128  0.2590 -0.0909  0.1018
 2899TIP3    H130112   1.966   0.315   3.044 -1.1222 -0.7899 -0.4174
 2899TIP3    H230113   1.881   0.216   3.120 -0.9811  1.1982  2.4818
 2900TIP3   OH230114   4.821   2.874  16.528  0.1536 -0.2703 -0.0329
 2900TIP3    H130115   4.801   2.796  16.476 -0.6043  0.5382 -0.9922
 2900TIP3    H230116   4.761   2.869  16.603  0.9742 -1.2341  0.5856
 2901TIP3   OH230117   3.099   2.663  13.574  0.3962 -0.0576 -0.4785
 2901TIP3    H130118   3.078   2.754  13.554  0.3714 -0.0546 -0.4398
 2901TIP3    H230119   3.016   2.625  13.604  1.1837  1.1258  4.1025
 2902TIP3   OH230120   3.175   6.730   4.915 -0.1432  0.1034 -0.4242
 2902TIP3    H130121   3.120   6.801   4.948  0.5391 -0.8824  3.3350
 2902TIP3    H230122   3.150   6.654   4.968  3.3965 -0.8457  0.1420
 2903TIP3   OH230123   1.365   2.072   2.091 -0.7807 -0.1938 -0.1184
 2903TIP3    H130124   1.273   2.072   2.119 -0.9970 -1.8679 -0.6809
 2903TIP3    H230125   1.361   2.095   1.998 -0.7377 -1.0522 -0.3453
 2904TIP3   OH230126   4.057   0.549  16.045  0.5585  0.8624 -0.3082
 2904TIP3    H130127   4.139   0.559  16.093 -0.5494  3.0748  1.3189
 2904TIP3    H230128   4.084   0.526  15.956  2.8045 -0.7187  0.6837
 2905TIP3   OH230129   1.896   2.964  15.335 -0.1442 -0.1511 -0.3136
 2905TIP3    H130130   1.842   2.908  15.391  0.1683  0.8652  1.0638
 2905TIP3    H230131   1.834   3.022  15.291 -0.4381 -1.2939 -1.4722
 2906TIP3   OH230132   2.863   5.126  13.860 -0.0548 -0.2136  0.0007
 2906TIP3    H130133   2.826   5.123  13.949  0.9732 -1.1911  0.4107
 2906TIP3    H230134   2.794   5.167  13.807 -0.6380  0.4971  1.2638
 2907TIP3   OH230135   2.689   5.371  11.473 -0.3375  0.0108 -0.6040
 2907TIP3    H130136   2.680   5.402  11.563  0.1578 -0.8829 -0.2403
 2907TIP3    H230137   2.621   5.305  11.462  0.9543 -1.4241 -0.1911
 2908TIP3   OH230138   5.601   2.553  14.475  0.0117  0.2445  0.6624
 2908TIP3    H130139   5.506   2.555  14.488  0.1302  1.7490  1.6333
 2908TIP3    H230140   5.637   2.578  14.561  1.2552  0.4331  0.1096
 2909TIP3   OH230141   6.020   3.087  13.310 -0.4503 -0.0875  0.3806
 2909TIP3    H130142   5.930   3.120  13.298 -0.7248 -1.4129 -1.6697
 2909TIP3    H230143   6.019   3.046  13.396 -1.5786  0.6014  0.7227
 2910TIP3   OH230144   3.849   5.344   6.295  0.4012  0.2527  0.2012
 2910TIP3    H130145   3.868   5.429   6.254  2.1011  0.1017  0.6137
 2910TIP3    H230146   3.865   5.359   6.388 -0.4564 -0.2200  0.4272
 2911TIP3   OH230147   4.052   3.906  12.323  0.0560 -0.2148  0.2424
 2911TIP3    H130148   4.114   3.860  12.379  1.6188 -1.2162 -2.1487
 2911TIP3    H230149   4.050   3.855  12.242 -1.7637  1.3726 -0.8119
 2912TIP3   OH230150   3.425   3.818  15.650 -0.8456 -0.3589  1.4394
 2912TIP3    H130151   3.369   3.895  15.663 -0.4130 -0.1618  2.1814
 2912TIP3    H230152   3.481   3.841  15.576 -1.9830 -0.7107  0.4198
 2913TIP3   OH230153   2.905   0.360  17.346  0.6030  0.0983  0.4008
 2913TIP3    H130154   2.997   0.371  17.369  1.0356 -0.0183 -1.1654
 2913TIP3    H230155   2.891   0.265  17.351  0.4609  0.1472  0.9911
 2914TIP3   OH230156   3.995   4.689  15.243  0.1349 -0.0339  0.0390
 2914TIP3    H130157   3.962   4.629  15.175  0.3074 -2.4545  1.9485
 2914TIP3    H230158   4.068   4.734  15.201 -1.4995  0.6862 -2.2460
 2915TIP3   OH230159   6.643   0.645   4.795  1.5823  0.6285 -0.4347
 2915TIP3    H130160   6.628   0.550   4.794 -2.1839  1.0049 -3.8162
 2915TIP3    H230161   6.730   0.655   4.757  1.2523 -1.4724 -1.9419
 2916TIP3   OH230162   1.660   0.029  11.949  0.0162 -0.7668 -0.2083
 2916TIP3    H130163   1.659   0.034  12.045  1.1697  2.7731 -0.2191
 2916TIP3    H230164   1.585   0.082  11.922  0.9766  0.1337 -1.2115
 2917TIP3   OH230165   2.258   2.514  14.446  0.2155 -0.2077  0.2273
 2917TIP3    H130166   2.201   2.544  14.517  0.0827  1.9266 -0.7030
 2917TIP3    H230167   2.318   2.452  14.488 -0.3866  0.3731  2.0305
 2918TIP3   OH230168   4.573   2.295  12.195  0.1977  0.2803 -0.4719
 2918TIP3    H130169   4.518   2.231  12.239  1.4345 -0.1990  0.4413
 2918TIP3    H230170   4.548   2.379  12.234  0.4480  0.0008  0.3202
 2919TIP3   OH230171   4.298   4.130   5.930 -0.6538  0.1627 -0.1325
 2919TIP3    H130172   4.279   4.190   6.002  1.1315  0.2460  0.3143
 2919TIP3    H230173   4.253   4.169   5.855 -1.9562  0.4536  0.7705
 2920TIP3   OH230174   4.918   0.287  13.550 -0.1238  0.1158  0.3408
 2920TIP3    H130175   4.969   0.334  13.616 -0.1412  0.6415 -0.0064
 2920TIP3    H230176   4.845   0.249  13.598  0.6293 -0.7032  0.8578
 2921TIP3   OH230177   0.579   3.721  13.316 -0.0636  0.4967 -0.1924
 2921TIP3    H130178   0.529   3.660  13.371  0.8376 -0.7269 -0.6847
 2921TIP3    H230179   0.524   3.799  13.311 -0.8587  0.0635  1.1800
 2922TIP3   OH230180   3.285   4.312   0.060  0.4622 -0.1161 -0.3134
 2922TIP3    H130181   3.222   4.370   0.103  0.1536 -0.7626  0.1296
 2922TIP3    H230182   3.369   4.355   0.073  0.3757 -0.2708  0.9497
 2923TIP3   OH230183   3.282   4.767  15.946  0.3090 -0.3471  0.3321
 2923TIP3    H130184   3.368   4.728  15.930 -0.6076 -2.5268  0.4412
 2923TIP3    H230185   3.294   4.860  15.928  2.3912 -0.7867 -0.7896
 2924TIP3   OH230186   3.236   0.279  11.173 -0.8645 -0.0481  0.2157
 2924TIP3    H130187   3.149   0.280  11.132 -0.3548 -1.9592 -1.0920
 2924TIP3    H230188   3.297   0.294  11.100  0.0755 -3.4140  0.1149
 2925TIP3   OH230189   4.385   5.820  11.212 -0.5061  0.1173  0.0505
 2925TIP3    H130190   4.410   5.805  11.120  0.9452 -1.9874  0.7041
 2925TIP3    H230191   4.457   5.872  11.248  0.3760 -1.4127  0.6157
 2926TIP3   OH230192   4.271   2.832  12.325  0.1521 -0.2071 -0.5211
 2926TIP3    H130193   4.292   2.906  12.381 -0.8166 -1.4750  1.6594
 2926TIP3    H230194   4.352   2.814  12.277  1.8600 -0.4723  2.2232
 2927TIP3   OH230195   0.787   4.201  11.296  0.0660 -0.4054  0.5123
 2927TIP3    H130196   0.779   4.158  11.382 -0.8782 -0.6808  0.2972
 2927TIP3    H230197   0.803   4.130  11.235 -1.1037 -0.4336  0.2112
 2928TIP3   OH230198   1.453   1.843  15.901 -0.1714  0.1024 -0.5044
 2928TIP3    H130199   1.408   1.883  15.976 -0.7497  2.4910 -2.0091
 2928TIP3    H230200   1.387   1.786  15.861 -0.6669  0.7306 -0.5933
 2929TIP3   OH230201   1.335   3.791  13.629  0.2280  0.3378 -0.0427
 2929TIP3    H130202   1.341   3.735  13.706 -0.0657  0.8089  0.3329
 2929TIP3    H230203   1.249   3.833  13.636 -1.1823 -1.8886 -2.2288
 2930TIP3   OH230204   0.591   5.058  11.597 -0.4924  0.5213  0.2752
 2930TIP3    H130205   0.667   5.079  11.543 -0.4966  0.1090  0.1048
 2930TIP3    H230206   0.517   5.056  11.536 -0.5220  0.2131  0.3153
 2931TIP3   OH230207   4.314   3.306   3.370  0.6260 -0.0152  0.0002
 2931TIP3    H130208   4.350   3.339   3.453 -0.0773 -0.2473  0.4061
 2931TIP3    H230209   4.252   3.374   3.343 -1.4072 -1.2507  1.2272
 2932TIP3   OH230210   3.639   4.180   2.969  0.0228  0.3794 -0.7877
 2932TIP3    H130211   3.602   4.266   2.951 -0.8968 -0.3589 -2.8051
 2932TIP3    H230212   3.568   4.132   3.011  0.2033  0.3071 -0.5646
 2933TIP3   OH230213   4.625   1.387   1.726  0.0454 -0.3590 -0.8168
 2933TIP3    H130214   4.598   1.422   1.811  1.7387  0.5402 -0.5999
 2933TIP3    H230215   4.603   1.456   1.664  3.3368  1.3070 -0.3959
 2934TIP3   OH230216   0.519   0.930  15.289 -0.3794 -0.0214  0.3633
 2934TIP3    H130217   0.428   0.955  15.306 -0.5204 -0.2792 -0.0011
 2934TIP3    H230218   0.571   1.000  15.329 -0.7355  0.1202  0.5864
 2935TIP3   OH230219   0.494   3.342  14.240 -0.2541  0.1169  0.0797
 2935TIP3    H130220   0.589   3.336  14.252 -0.4470 -2.9323  0.9545
 2935TIP3    H230221   0.463   3.384  14.320  0.2701  0.0605  0.3182
 2936TIP3   OH230222   4.462   6.614  16.735  0.6127  0.0268  0.2898
 2936TIP3    H130223   4.430   6.543  16.792 -0.1337  0.4691  0.4327
 2936TIP3    H230224   4.407   6.609  16.657 -0.4223  1.3515  0.9032
 2937TIP3   OH230225   6.343   4.429   6.534  0.1830  0.0095  0.0018
 2937TIP3    H130226   6.378   4.416   6.445  0.6698 -0.3813  0.2466
 2937TIP3    H230227   6.248   4.431   6.521  0.2187 -0.7119 -0.4523
 2938TIP3   OH230228   4.096   0.096   2.709 -0.0296 -0.4948  0.0961
 2938TIP3    H130229   4.040   0.096   2.787  0.7417  0.8323  0.6828
 2938TIP3    H230230   4.100   0.188   2.683  1.9169 -0.5326  0.1107
 2939TIP3   OH230231   0.025   2.930   4.076 -0.2415 -0.0810  0.0503
 2939TIP3    H130232  -0.000   3.005   4.023  1.4962 -0.2925 -1.1703
 2939TIP3    H230233   0.028   2.857   4.015  2.0785 -0.2816  0.2836
 2940TIP3   OH230234   3.512   4.425  12.554  0.2025  0.5818  0.1164
 2940TIP3    H130235   3.466   4.390  12.477 -0.7308  2.5867 -0.3105
 2940TIP3    H230236   3.441   4.456  12.611  0.9476  1.3603  0.6377
 2941TIP3   OH230237   2.292   6.180   4.388 -0.3564 -0.0601  0.0696
 2941TIP3    H130238   2.285   6.270   4.421  3.2532  0.5565 -0.5096
 2941TIP3    H230239   2.340   6.133   4.455 -0.8311 -1.1851 -0.3491
 2942TIP3   OH230240   6.567   2.083  16.668 -0.2396 -0.9121  0.0672
 2942TIP3    H130241   6.521   2.109  16.748  0.5755 -0.2937  0.3411
 2942TIP3    H230242   6.586   1.990  16.680 -2.9368 -1.6652 -0.8089
 2943TIP3   OH230243   6.107   6.543   4.752  0.4699  0.1733 -0.4759
 2943TIP3    H130244   6.056   6.624   4.760 -1.0139 -0.7654  0.1383
 2943TIP3    H230245   6.042   6.473   4.762  1.6131 -1.1056 -1.5876
 2944TIP3   OH230246   6.106   6.055   5.368  0.1282 -0.2849 -0.0937
 2944TIP3    H130247   6.063   6.017   5.445 -1.3479 -0.4446 -0.9541
 2944TIP3    H230248   6.189   6.089   5.401 -0.3081 -0.6751  1.4939
 2945TIP3   OH230249   0.943   2.163  12.738  0.1148  0.2499  0.0766
 2945TIP3    H130250   0.884   2.192  12.669 -0.3399 -1.2250 -0.2010
 2945TIP3    H230251   1.029   2.155  12.695 -0.4086 -1.8901 -0.7318
 2946TIP3   OH230252   6.493   3.006  11.590 -0.6514 -0.2293  0.2593
 2946TIP3    H130253   6.398   3.013  11.577 -0.6054 -0.5412 -0.2556
 2946TIP3    H230254   6.531   3.045  11.511 -0.3338  0.6485  0.8312
 2947TIP3   OH230255   4.334   3.772   0.329 -0.0885 -0.1261  0.1687
 2947TIP3    H130256   4.400   3.716   0.369  1.5702  0.8634 -1.0397
 2947TIP3    H230257   4.296   3.718   0.260  0.7245 -0.1533 -0.2743
 2948TIP3   OH230258   2.105   5.818   5.568 -0.0175 -0.0082  0.3655
 2948TIP3    H130259   2.187   5.796   5.524 -0.0074 -1.9593  1.2615
 2948TIP3    H230260   2.131   5.849   5.654 -0.1929  0.1032  0.3797
 2949TIP3   OH230261   4.412   1.918  14.724 -0.1547 -0.5042  0.1466
 2949TIP3    H130262   4.449   1.901  14.637  1.7638  0.9384  0.5953
 2949TIP3    H230263   4.460   1.860  14.783  0.2502  0.1961  0.5251
 2950TIP3   OH230264   2.585   2.640   3.130 -0.5857 -0.0290  0.2677
 2950TIP3    H130265   2.659   2.597   3.172  2.2825  1.9846 -2.3171
 2950TIP3    H230266   2.559   2.582   3.060  0.1614  0.2997 -0.2923
 2951TIP3   OH230267   5.442   5.345   0.948  0.7582 -0.3601 -0.5631
 2951TIP3    H130268   5.488   5.424   0.920 -1.3444  0.8959 -0.7004
 2951TIP3    H230269   5.471   5.332   1.039  0.5946  1.0140 -0.2916
 2952TIP3   OH230270   6.000   3.540  10.683  0.1334  0.7327 -0.3217
 2952TIP3    H130271   5.910   3.533  10.715  0.7890 -0.6315  1.3678
 2952TIP3    H230272   6.028   3.628  10.710  0.1612  0.1734  1.6107
 2953TIP3   OH230273   0.048   6.482   5.732  0.1120 -0.0147 -0.4788
 2953TIP3    H130274   0.075   6.492   5.824  0.1537  2.0380 -0.6765
 2953TIP3    H230275   0.127   6.452   5.687  1.0716  2.2013 -0.3818
 2954TIP3   OH230276   1.558   5.622   2.647  0.0571  0.4125 -0.0068
 2954TIP3    H130277   1.492   5.666   2.700 -0.4042 -1.1469  0.7794
 2954TIP3    H230278   1.517   5.540   2.620  0.3149  1.0568 -2.7136
 2955TIP3   OH230279   3.112   5.536   3.757 -0.2235  0.1148 -0.4293
 2955TIP3    H130280   3.140   5.615   3.710  0.8929 -1.3131 -2.2719
 2955TIP3    H230281   3.025   5.517   3.721  0.8700 -1.3042 -2.4411
 2956TIP3   OH230282   2.681   6.725   1.964  0.3726  0.1425 -0.3137
 2956TIP3    H130283   2.767   6.766   1.968  0.2396  0.5175 -1.2233
 2956TIP3    H230284   2.669   6.687   2.051  1.2656  0.4671 -0.0401
 2957TIP3   OH230285   5.773   3.953   4.766 -0.2798  0.0438 -0.1485
 2957TIP3    H130286   5.859   3.992   4.781 -0.1352 -0.5498  0.6566
 2957TIP3    H230287   5.760   3.959   4.672  0.1141  1.2230 -0.1423
 2958TIP3   OH230288   1.815   1.812  14.792 -0.1927  0.3617  0.3669
 2958TIP3    H130289   1.744   1.748  14.793 -1.3861  1.6093 -0.3005
 2958TIP3    H230290   1.771   1.896  14.779  1.5077  1.0526 -1.3376
 2959TIP3   OH230291   6.268   5.663  15.286 -0.1248  0.0175  0.1833
 2959TIP3    H130292   6.242   5.613  15.364 -2.5213  2.1473  0.8955
 2959TIP3    H230293   6.212   5.629  15.217  0.6356 -0.5524 -0.1620
 2960TIP3   OH230294   0.638   3.232   3.772  0.8120  0.9990  0.1172
 2960TIP3    H130295   0.675   3.275   3.849 -0.4563  2.7020 -0.1525
 2960TIP3    H230296   0.668   3.285   3.698  0.4200  0.5376 -0.3809
 2961TIP3   OH230297   1.551   4.474   6.081  0.4623  0.1812 -0.9628
 2961TIP3    H130298   1.551   4.387   6.041  0.1479  0.6396 -1.9965
 2961TIP3    H230299   1.488   4.468   6.152  0.6010 -0.4999 -0.8937
 2962TIP3   OH230300   1.911   5.377   3.839  0.4073  0.0498 -0.0430
 2962TIP3    H130301   1.880   5.348   3.925  1.1327 -1.8637 -0.3817
 2962TIP3    H230302   1.919   5.472   3.847 -2.1273  0.2438  1.1412
 2963TIP3   OH230303   0.650   0.101  16.962 -0.0752  0.6266  0.0492
 2963TIP3    H130304   0.596   0.029  16.996  1.0473 -0.7005 -0.8690
 2963TIP3    H230305   0.624   0.176  17.014 -3.5026  0.3248 -0.9520
 2964TIP3   OH230306   1.759   6.602   3.754 -0.1859 -0.1513  0.2641
 2964TIP3    H130307   1.825   6.571   3.815  0.9493  1.8701  0.1314
 2964TIP3    H230308   1.676   6.566   3.787  0.9333 -3.0056  0.2471
 2965TIP3   OH230309   2.579   3.374  10.752  0.0483  0.4262 -0.0108
 2965TIP3    H130310   2.668   3.339  10.760  0.4960  1.0868 -1.7121
 2965TIP3    H230311   2.531   3.309  10.702  0.2112  1.0768 -1.0450
 2966TIP3   OH230312   0.444   2.524   4.384  0.5396  0.3697 -0.5213
 2966TIP3    H130313   0.486   2.565   4.309  0.2275 -0.9512 -1.4474
 2966TIP3    H230314   0.350   2.535   4.369  0.4836  0.6033 -0.0284
 2967TIP3   OH230315   1.036   6.228  15.341  0.2426 -0.4048  0.4348
 2967TIP3    H130316   1.107   6.292  15.349 -0.6885  0.7096  0.0276
 2967TIP3    H230317   0.958   6.274  15.372  0.0145 -2.3062  3.0011
 2968TIP3   OH230318   5.753   2.540  16.136 -0.2542 -0.1139 -0.1465
 2968TIP3    H130319   5.716   2.575  16.217  0.1161  1.4274 -0.6080
 2968TIP3    H230320   5.705   2.459  16.121 -2.1327  0.8677  0.2785
 2969TIP3   OH230321   3.270   3.054   3.998  0.2984 -0.4501  0.3692
 2969TIP3    H130322   3.251   3.117   3.929 -1.5547  0.9956  2.0871
 2969TIP3    H230323   3.364   3.061   4.012  0.1345  2.2009  0.6808
 2970TIP3   OH230324   1.797   0.209  13.855  0.8819 -0.2597  0.0700
 2970TIP3    H130325   1.711   0.171  13.873 -0.4019  1.2183 -2.3582
 2970TIP3    H230326   1.858   0.160  13.910 -1.3475 -2.1776  0.9572
 2971TIP3   OH230327   4.955   3.615   3.418 -0.2705  0.0970 -0.0998
 2971TIP3    H130328   4.912   3.699   3.401  1.0720  0.7121 -0.6100
 2971TIP3    H230329   5.047   3.638   3.433 -0.0413 -1.2046  0.6267
 2972TIP3   OH230330   5.181   2.849  12.222 -0.6482  0.1079  0.2064
 2972TIP3    H130331   5.106   2.797  12.194 -1.8269  0.6006  2.1961
 2972TIP3    H230332   5.199   2.819  12.311  0.4896  1.1302  0.3540
 2973TIP3   OH230333   1.312   0.321  14.496 -0.7736  0.0743  1.0622
 2973TIP3    H130334   1.245   0.352  14.435  1.3128  0.8743 -0.9665
 2973TIP3    H230335   1.337   0.398  14.546  2.0115  1.1297 -1.6425
 2974TIP3   OH230336   2.278   4.335   0.100  0.3815  0.1300  0.1121
 2974TIP3    H130337   2.224   4.413   0.103 -0.2979 -0.3395  0.4315
 2974TIP3    H230338   2.350   4.353   0.161  0.3385  0.5742  0.0338
 2975TIP3   OH230339   4.260   0.702   2.442  0.1297  0.2737 -0.6832
 2975TIP3    H130340   4.347   0.674   2.471 -0.3317 -0.3884  0.1083
 2975TIP3    H230341   4.230   0.761   2.510  0.6882  2.0093 -1.8668
 2976TIP3   OH230342   4.959   5.613   3.348  0.5083 -0.4082  0.1066
 2976TIP3    H130343   5.051   5.631   3.368  0.4906  0.0752 -0.2418
 2976TIP3    H230344   4.954   5.616   3.252  0.0889 -0.2310  0.1331
 2977TIP3   OH230345   1.223   4.889  14.943 -0.1029 -0.2965 -0.4182
 2977TIP3    H130346   1.317   4.906  14.940  0.0635 -0.7878  1.0965
 2977TIP3    H230347   1.206   4.866  15.034 -1.8607  0.6844 -0.4551
 2978TIP3   OH230348   3.727   4.965   3.818 -0.5178  0.5263 -0.3132
 2978TIP3    H130349   3.785   5.041   3.822 -0.6427  0.5731  1.0121
 2978TIP3    H230350   3.648   4.997   3.775 -0.7416  1.2793  0.6260
 2979TIP3   OH230351   5.044   2.215  14.167 -0.2706 -0.2024 -0.0460
 2979TIP3    H130352   5.085   2.179  14.089  2.3329  1.3223  0.4982
 2979TIP3    H230353   4.999   2.294  14.137 -1.1088 -0.7830 -0.3285
 2980TIP3   OH230354   6.390   6.586   3.834  0.7812  0.0726 -0.3356
 2980TIP3    H130355   6.458   6.527   3.801  0.8455  0.3511 -0.7012
 2980TIP3    H230356   6.418   6.673   3.805 -0.3113  0.0744 -1.4481
 2981TIP3   OH230357   2.637   2.239  10.392 -0.4444  0.6009  0.0416
 2981TIP3    H130358   2.662   2.162  10.441 -0.6699  0.5120  0.0191
 2981TIP3    H230359   2.634   2.309  10.457 -0.2524  0.5899  0.0636
 2982TIP3   OH230360   3.964   1.359  16.739  0.2696  0.3556 -0.0694
 2982TIP3    H130361   4.054   1.389  16.735  0.2389  0.3632 -0.7242
 2982TIP3    H230362   3.947   1.319  16.654 -0.9300  2.0448 -0.6687
 2983TIP3   OH230363   5.814   6.158  16.914 -0.5740 -0.5951 -0.6116
 2983TIP3    H130364   5.839   6.212  16.989  0.7031 -2.2718  0.2481
 2983TIP3    H230365   5.722   6.138  16.928 -1.0077  1.1294 -0.8375
 2984TIP3   OH230366   2.398   3.114   2.246  0.2210 -0.6333  0.4471
 2984TIP3    H130367   2.434   3.027   2.230  0.6785 -0.1278 -1.5505
 2984TIP3    H230368   2.461   3.155   2.305  0.5371 -1.3075  0.5893
 2985TIP3   OH230369   5.401   0.482   5.661  0.1179  0.1123 -0.5804
 2985TIP3    H130370   5.436   0.417   5.722  0.0043 -0.5768 -1.2383
 2985TIP3    H230371   5.479   0.523   5.623  0.2046 -0.4792 -1.0478
 2986TIP3   OH230372   3.742   3.995  12.654  0.1582  0.3184  0.2981
 2986TIP3    H130373   3.810   3.929  12.639 -0.1039  0.1588 -0.2246
 2986TIP3    H230374   3.712   3.978  12.743  0.8670  0.4569  0.5713
 2987TIP3   OH230375   2.337   4.123   5.220 -0.1877  0.2481  0.0939
 2987TIP3    H130376   2.293   4.130   5.135 -1.5536 -2.4341  0.4771
 2987TIP3    H230377   2.282   4.172   5.280 -0.9211 -0.3964 -0.0373
 2988TIP3   OH230378   4.985   0.923   1.034 -0.3146 -0.1464  0.2815
 2988TIP3    H130379   5.037   0.979   0.978 -0.1972  0.4999  1.0131
 2988TIP3    H230380   4.982   0.838   0.989 -0.2946  0.3766 -0.7188
 2989TIP3   OH230381   5.002   1.273   0.560  0.2053 -0.0792 -0.3144
 2989TIP3    H130382   5.016   1.180   0.581 -2.9253 -0.4381  0.6241
 2989TIP3    H230383   4.989   1.314   0.646 -0.7493  0.7806 -0.8626
 2990TIP3   OH230384   3.167   1.282  16.638  0.1281 -0.0863 -0.2130
 2990TIP3    H130385   3.189   1.261  16.729  0.5512  0.1937 -0.2485
 2990TIP3    H230386   3.097   1.346  16.645  1.5850  1.5422 -0.0362
 2991TIP3   OH230387   2.597   4.665   3.598  0.3449  0.2592  0.2090
 2991TIP3    H130388   2.534   4.664   3.527 -1.6585 -1.2405  1.8877
 2991TIP3    H230389   2.669   4.720   3.566 -1.8145  2.1460 -1.7549
 2992TIP3   OH230390   4.526   0.421  15.601 -0.0067  0.1749 -0.1754
 2992TIP3    H130391   4.564   0.333  15.599 -1.0717 -0.3167  0.3085
 2992TIP3    H230392   4.447   0.413  15.547  0.5818  1.1890 -1.2173
 2993TIP3   OH230393   5.441   1.387   5.932  0.1129  0.1227 -0.0148
 2993TIP3    H130394   5.346   1.392   5.940  0.2222  2.1567  0.6722
 2993TIP3    H230395   5.473   1.380   6.022  0.6451  1.6647 -0.0418
 2994TIP3   OH230396   6.280   5.379   6.752  0.3524 -0.4568 -0.3175
 2994TIP3    H130397   6.207   5.439   6.764  0.0214 -1.0856  1.0209
 2994TIP3    H230398   6.239   5.294   6.734  0.7361 -0.7703  0.2377
 2995TIP3   OH230399   0.049   5.408   6.162  0.2059  0.2060  0.6882
 2995TIP3    H130400   0.074   5.405   6.254 -1.6792 -1.0445  1.2290
 2995TIP3    H230401  -0.011   5.334   6.151  0.0476  0.5855 -1.4429
 2996TIP3   OH230402   4.349   5.456  17.338 -0.3024 -0.1470  0.5558
 2996TIP3    H130403   4.333   5.361  17.338  0.4660 -0.3524 -1.7021
 2996TIP3    H230404   4.440   5.465  17.366  0.1662 -0.2729 -0.8198
 2997TIP3   OH230405   1.399   6.622  12.267 -0.0999  0.0622  0.0441
 2997TIP3    H130406   1.375   6.704  12.224 -3.1615 -1.1180 -0.7951
 2997TIP3    H230407   1.373   6.634  12.358  0.8495  0.5009  0.2696
 2998TIP3   OH230408   3.317   0.908   3.075 -0.0460  0.5353  0.1986
 2998TIP3    H130409   3.226   0.899   3.047  0.0814  1.1514 -0.4425
 2998TIP3    H230410   3.364   0.842   3.024 -0.1296  0.1961  0.5522
 2999TIP3   OH230411   5.818   2.448   2.319 -0.5163 -0.1749 -0.8634
 2999TIP3    H130412   5.813   2.510   2.392  1.0757 -0.0887 -0.7955
 2999TIP3    H230413   5.755   2.380   2.342  1.0765 -1.0040  1.4938
 3000TIP3   OH230414   5.752   4.015  13.428  0.2982 -0.0798 -0.2003
 3000TIP3    H130415   5.846   4.005  13.421  0.0348 -1.6683 -2.2992
 3000TIP3    H230416   5.716   3.933  13.394 -1.8625  1.0916 -0.9299
 3001TIP3   OH230417   0.646   2.961   0.331  0.1689 -0.0284  0.4947
 3001TIP3    H130418   0.725   2.943   0.279 -0.8768  0.2348 -1.2752
 3001TIP3    H230419   0.633   3.056   0.321 -0.3576 -0.0699  0.7781
 3002TIP3   OH230420   6.030   6.351   1.260 -0.0390  0.2883  0.0281
 3002TIP3    H130421   5.994   6.277   1.309 -3.1722  2.1497  0.7684
 3002TIP3    H230422   6.074   6.404   1.326  1.0475 -0.1977 -0.2818
 3003TIP3   OH230423   4.418   5.600  16.481  0.2985 -0.0226  0.2743
 3003TIP3    H130424   4.329   5.583  16.451  0.2740  2.0819 -1.0393
 3003TIP3    H230425   4.413   5.687  16.521  1.6295 -0.1915  0.8578
 3004TIP3   OH230426   1.588   1.512   4.435 -0.3443 -0.1122 -0.4499
 3004TIP3    H130427   1.644   1.436   4.420 -1.0444 -0.7277 -0.0421
 3004TIP3    H230428   1.644   1.575   4.479 -0.3784 -1.3704  1.5396
 3005TIP3   OH230429   1.838   4.561   1.058  0.1979 -0.4767  0.4914
 3005TIP3    H130430   1.771   4.617   1.096 -0.8777 -2.9309  2.4864
 3005TIP3    H230431   1.910   4.563   1.121  0.6738 -0.3411 -0.0509
 3006TIP3   OH230432   2.556   4.940  13.829 -0.4964  0.4911  0.4905
 3006TIP3    H130433   2.633   4.923  13.774 -1.3083 -0.4674 -0.4009
 3006TIP3    H230434   2.548   4.862  13.884 -0.8751  0.5442  0.5157
 3007TIP3   OH230435   3.151   2.800   5.001 -0.6660 -0.1121  0.0269
 3007TIP3    H130436   3.163   2.710   5.030 -1.1695  0.0536  0.7737
 3007TIP3    H230437   3.092   2.793   4.925  0.1455 -0.4914 -0.5799
 3008TIP3   OH230438   6.445   4.450  16.422  0.3826 -0.4173  0.2090
 3008TIP3    H130439   6.422   4.360  16.399  2.2669 -1.1041  0.8381
 3008TIP3    H230440   6.488   4.443  16.507  1.5916  0.9264 -0.2542
 3009TIP3   OH230441   2.025   3.789   3.983 -0.1726 -0.8137 -0.0926
 3009TIP3    H130442   2.096   3.845   4.015 -0.5484  0.1077 -0.8078
 3009TIP3    H230443   1.999   3.738   4.059  1.0488 -0.9471  0.2593
 3010TIP3   OH230444   1.164   3.061  16.222  0.2362 -0.1274  0.1366
 3010TIP3    H130445   1.114   3.121  16.277  3.8242  0.8019  2.8292
 3010TIP3    H230446   1.227   3.117  16.176  0.3094 -1.3793 -1.3674
 3011TIP3   OH230447   3.933   2.552  15.321  0.0571 -0.2530  0.5446
 3011TIP3    H130448   3.944   2.522  15.230  1.3732 -0.1974  0.6586
 3011TIP3    H230449   3.927   2.472  15.372  2.3224 -0.3935  0.7075
 3012TIP3   OH230450   4.299   2.296   4.387 -0.1281  0.1032  0.2417
 3012TIP3    H130451   4.361   2.255   4.327 -0.0928 -0.2663  0.5303
 3012TIP3    H230452   4.332   2.386   4.396 -1.7412  1.1255 -2.5587
 3013TIP3   OH230453   5.754   2.628  14.714  0.0027 -0.4936  0.5764
 3013TIP3    H130454   5.837   2.676  14.704 -0.1156 -0.5296 -0.8350
 3013TIP3    H230455   5.772   2.562  14.780  0.5498  0.6793  1.6262
 3014TIP3   OH230456   5.658   2.849  17.217  0.5319 -0.4411 -0.4408
 3014TIP3    H130457   5.593   2.842  17.147  1.7685  2.0850 -1.9282
 3014TIP3    H230458   5.736   2.806  17.182  0.7387 -0.3988 -0.0374
 3015TIP3   OH230459   2.802   0.188  12.519 -0.2540 -0.6186  0.1858
 3015TIP3    H130460   2.801   0.240  12.438 -0.2290  0.5351  0.8943
 3015TIP3    H230461   2.894   0.165  12.532  0.2241  1.5661  1.2845
 3016TIP3   OH230462   2.791   3.027   4.521 -0.4203  0.1585  0.3118
 3016TIP3    H130463   2.869   3.036   4.466 -0.4551  0.5000  0.3192
 3016TIP3    H230464   2.722   3.000   4.460 -0.1300 -0.8776  0.4255
 3017TIP3   OH230465   5.513   1.745   3.709  0.2811  0.5004  0.1624
 3017TIP3    H130466   5.475   1.832   3.703 -0.1699  0.2158 -1.4888
 3017TIP3    H230467   5.606   1.758   3.688 -0.0273  0.4376 -1.3468
 3018TIP3   OH230468   0.454   2.264  16.085 -0.6107  0.4820  0.1829
 3018TIP3    H130469   0.475   2.320  16.011 -1.0907 -0.3754 -0.6087
 3018TIP3    H230470   0.363   2.284  16.105 -0.6721  0.2468  0.1348
 3019TIP3   OH230471   0.605   5.604   0.866  0.0602  0.1519 -0.3051
 3019TIP3    H130472   0.563   5.570   0.945  0.5338 -0.8311 -0.4567
 3019TIP3    H230473   0.645   5.686   0.894 -0.0471 -0.0245  0.3994
 3020TIP3   OH230474   5.002   0.282  15.292  0.4581 -0.4561  0.1719
 3020TIP3    H130475   5.004   0.187  15.279 -1.5541 -0.6208  0.7419
 3020TIP3    H230476   4.976   0.293  15.383  1.3074  0.6558  0.2946
 3021TIP3   OH230477   2.904   6.470  15.457 -0.5738  0.4080  0.0473
 3021TIP3    H130478   2.897   6.482  15.362 -0.3663  1.4605  0.1556
 3021TIP3    H230479   2.998   6.464  15.474 -0.6308 -0.3708  0.1286
 3022TIP3   OH230480   3.105   1.414   2.412 -0.3164  0.2072 -0.6314
 3022TIP3    H130481   3.031   1.362   2.380 -0.6565  0.1381  0.2498
 3022TIP3    H230482   3.132   1.370   2.492 -0.1528  0.9945 -0.2489
 3023TIP3   OH230483   4.061   2.287   0.701 -0.1569  0.8749 -0.2059
 3023TIP3    H130484   3.983   2.329   0.738  0.4991  0.9843  1.1351
 3023TIP3    H230485   4.042   2.194   0.703 -0.3406  0.9145 -0.0831
 3024TIP3   OH230486   4.249   2.593  15.639 -0.0774 -0.3389 -0.2423
 3024TIP3    H130487   4.233   2.649  15.714  2.2542 -0.3111  0.3310
 3024TIP3    H230488   4.193   2.628  15.570 -1.3453  0.4065  1.1035
 3025TIP3   OH230489   5.692   6.490   3.924 -0.0751 -0.3672 -0.3363
 3025TIP3    H130490   5.731   6.403   3.910 -0.1347 -0.7181  1.4276
 3025TIP3    H230491   5.619   6.493   3.862 -0.2899 -1.7307 -0.1912
 3026TIP3   OH230492   4.754   5.917   2.947  0.0536 -0.4532  0.1585
 3026TIP3    H130493   4.767   5.951   2.859 -0.5235 -1.1858 -0.2264
 3026TIP3    H230494   4.842   5.903   2.981  0.2843 -1.0192 -0.6489
 3027TIP3   OH230495   6.144   4.848   2.130 -0.6547  0.3772 -0.1764
 3027TIP3    H130496   6.087   4.915   2.091  1.4375  1.4382 -1.6269
 3027TIP3    H230497   6.224   4.894   2.152  1.3524 -1.7591 -2.3250
 3028TIP3   OH230498   5.211   6.434  11.316 -0.6285  0.5150  0.7960
 3028TIP3    H130499   5.172   6.449  11.230  2.2068  1.8666 -0.3961
 3028TIP3    H230500   5.266   6.357  11.304 -2.4634 -1.1215  2.3159
 3029TIP3   OH230501   2.138   2.040   2.420 -0.2948  0.1371  0.2571
 3029TIP3    H130502   2.058   2.050   2.472  0.0414 -2.3087  1.3325
 3029TIP3    H230503   2.117   2.084   2.337 -2.9010 -0.7316  0.3762
 3030TIP3   OH230504   0.547   1.072  13.840 -0.0662 -0.1146 -0.8182
 3030TIP3    H130505   0.620   1.110  13.889 -0.2728  0.1261 -0.6927
 3030TIP3    H230506   0.493   1.147  13.815  0.6220 -0.1144 -2.4046
 3031TIP3   OH230507   1.697   2.562   3.621 -0.5496  0.1313  0.7408
 3031TIP3    H130508   1.638   2.495   3.586 -0.4797  0.8038 -0.7228
 3031TIP3    H230509   1.669   2.643   3.579  0.8867  0.6015  0.6472
 3032TIP3   OH230510   0.410   1.896  15.273  0.4659  0.4938  0.1987
 3032TIP3    H130511   0.471   1.853  15.333  0.6292 -1.5035 -1.2900
 3032TIP3    H230512   0.457   1.899  15.190 -0.4741  1.4020 -0.3202
 3033TIP3   OH230513   1.379   1.122  12.485  0.2226 -0.3871  0.3689
 3033TIP3    H130514   1.341   1.056  12.428  0.2208 -0.4171  0.4048
 3033TIP3    H230515   1.444   1.167  12.431  1.1764 -1.3014  0.7373
 3034TIP3   OH230516   6.324   6.425  11.004 -0.6024  0.1002 -0.3563
 3034TIP3    H130517   6.395   6.483  11.032 -0.4356  0.8609 -2.2526
 3034TIP3    H230518   6.366   6.357  10.952 -1.1490  0.0199 -0.7107
 3035TIP3   OH230519   1.207   0.625  12.431 -0.3363  0.2025  0.0873
 3035TIP3    H130520   1.161   0.580  12.502  0.1629 -2.4383 -1.1425
 3035TIP3    H230521   1.150   0.614  12.354  0.0668  1.2396 -0.3847
 3036TIP3   OH230522   5.777   0.003   0.928 -0.1658 -0.0140 -0.2018
 3036TIP3    H130523   5.704   0.005   0.991 -0.6472  1.0319 -0.7497
 3036TIP3    H230524   5.822   0.086   0.943 -0.3296  0.2774 -1.2660
 3037TIP3   OH230525   3.405   2.412   4.477 -0.6022 -0.3423  0.1535
 3037TIP3    H130526   3.335   2.475   4.459  0.8549  1.9592  2.0032
 3037TIP3    H230527   3.425   2.373   4.391 -2.1371  1.0680 -0.9005
 3038TIP3   OH230528   0.082   1.372  16.887  0.1422  0.7547 -0.0139
 3038TIP3    H130529   0.019   1.304  16.910 -0.2723  1.4964  1.1778
 3038TIP3    H230530   0.108   1.410  16.971  2.3925  0.3167 -0.4682
 3039TIP3   OH230531   4.707   6.704  10.707  0.2442  0.2231 -0.5723
 3039TIP3    H130532   4.703   6.632  10.770 -0.6746  0.3594 -0.4625
 3039TIP3    H230533   4.699   6.783  10.760 -1.3740  0.3145 -0.9143
 3040TIP3   OH230534   6.568   1.665   4.034  0.0749  0.0482  0.3861
 3040TIP3    H130535   6.633   1.600   4.061  1.8917  1.9910  1.0527
 3040TIP3    H230536   6.485   1.619   4.036  0.9945 -1.6919  2.8279
 3041TIP3   OH230537   0.380   0.581   6.160 -0.6505  0.0892 -0.6775
 3041TIP3    H130538   0.361   0.539   6.244 -0.0118  0.5758 -0.2732
 3041TIP3    H230539   0.391   0.674   6.182  1.3642 -0.0201 -0.9719
 3042TIP3   OH230540   5.605   2.090  14.137 -0.4315 -0.3807  0.0681
 3042TIP3    H130541   5.588   2.177  14.174 -1.6854  0.1615 -1.6280
 3042TIP3    H230542   5.577   2.029  14.205 -1.9345  0.5679  0.3519
 3043TIP3   OH230543   5.122   2.449   4.386  0.3522  0.1729  0.2680
 3043TIP3    H130544   5.172   2.367   4.393 -0.8956 -0.8518 -1.6804
 3043TIP3    H230545   5.061   2.446   4.460 -1.2112 -1.8914 -0.9630
 3044TIP3   OH230546   6.086   3.820   4.082 -0.0857  0.3213  0.4855
 3044TIP3    H130547   6.127   3.790   4.163 -0.1321  0.6730  0.6407
 3044TIP3    H230548   6.001   3.854   4.110  0.8347  2.6847  0.6551
 3045TIP3   OH230549   1.644   1.635  13.881  0.1218 -0.3033 -0.0630
 3045TIP3    H130550   1.678   1.591  13.802 -0.8869  1.3929 -1.5216
 3045TIP3    H230551   1.556   1.662  13.857 -0.0166  0.7122  1.4927
 3046TIP3   OH230552   5.560   5.141   5.452 -0.0476  0.1671  0.8227
 3046TIP3    H130553   5.650   5.167   5.472 -0.5751  1.3625  1.7208
 3046TIP3    H230554   5.531   5.203   5.385 -0.4453  0.2367  1.0598
 3047TIP3   OH230555   1.109   3.298   4.452  0.2842 -0.6216 -0.0584
 3047TIP3    H130556   1.197   3.287   4.490 -0.1293  0.6341  1.3742
 3047TIP3    H230557   1.056   3.231   4.494  0.5202 -1.3619 -0.9037
 3048TIP3   OH230558   1.549   2.734  10.561  0.4404 -0.2153 -0.3264
 3048TIP3    H130559   1.598   2.815  10.572 -0.0524  0.1092 -0.4410
 3048TIP3    H230560   1.596   2.669  10.612 -0.1406  0.5630  1.2570
 3049TIP3   OH230561   5.888   3.279   3.459  0.0647 -0.2224  0.3832
 3049TIP3    H130562   5.827   3.353   3.454 -0.1150 -0.4021 -0.1104
 3049TIP3    H230563   5.970   3.313   3.423 -0.1415 -0.3884 -0.2510
 3050TIP3   OH230564   4.851   3.449  16.912  0.2010 -0.0073  0.4084
 3050TIP3    H130565   4.915   3.382  16.936 -1.4570 -1.5052  0.8496
 3050TIP3    H230566   4.880   3.528  16.959  1.1343 -0.9187  1.4264
 3051TIP3   OH230567   2.369   3.739   2.862 -0.2962  0.5622 -0.0920
 3051TIP3    H130568   2.434   3.732   2.932  0.1927  0.6857 -0.5279
 3051TIP3    H230569   2.284   3.730   2.907 -0.0142  1.2065  0.5986
 3052TIP3   OH230570   5.990   5.803  15.901 -0.0834  0.5664 -0.5660
 3052TIP3    H130571   5.976   5.719  15.944 -0.6548  0.8355 -0.2175
 3052TIP3    H230572   5.902   5.838  15.887  0.1821  1.6355  0.3420
 3053TIP3   OH230573   6.304   6.050  16.270  0.2589  0.1631  0.1122
 3053TIP3    H130574   6.339   5.962  16.253 -2.3830 -0.8859 -0.2755
 3053TIP3    H230575   6.312   6.095  16.186 -0.1373 -0.3720 -0.2242
 3054TIP3   OH230576   2.200   4.622   2.756 -0.0737  0.1374 -0.1262
 3054TIP3    H130577   2.146   4.669   2.819  0.6458 -1.4621  1.7869
 3054TIP3    H230578   2.159   4.536   2.749  0.6724 -0.1800 -0.7580
 3055TIP3   OH230579   0.226   5.754   4.710 -0.1407 -0.1202  0.5257
 3055TIP3    H130580   0.266   5.806   4.641 -0.8124 -0.3248 -0.0338
 3055TIP3    H230581   0.158   5.811   4.746 -1.8104 -1.0378 -1.0034
 3056TIP3   OH230582   4.218   5.038   5.964 -0.1928 -0.4165 -0.3121
 3056TIP3    H130583   4.287   4.979   5.932  0.9519 -0.7507  2.5041
 3056TIP3    H230584   4.139   5.007   5.920  0.8106 -2.4274 -0.8394
 3057TIP3   OH230585   1.248   6.029   5.688 -0.5031 -0.0566  0.4682
 3057TIP3    H130586   1.343   6.030   5.700 -0.7696  0.0029  3.3236
 3057TIP3    H230587   1.229   6.109   5.640  0.8609  0.0768  0.1121
 3058TIP3   OH230588   0.911   5.650  14.519 -0.0444 -0.6608  0.1352
 3058TIP3    H130589   0.882   5.559  14.516  1.6609 -1.3307  1.6325
 3058TIP3    H230590   0.977   5.656  14.450  0.4944 -0.8480  0.6210
 3059TIP3   OH230591   4.180   1.811  16.541 -0.4963  0.2457  0.0781
 3059TIP3    H130592   4.123   1.758  16.597 -0.7699  2.1695  1.7459
 3059TIP3    H230593   4.239   1.748  16.500 -1.1943 -1.3962  1.4747
 3060TIP3   OH230594   6.453   2.411   0.911  0.1650 -0.0317  0.0029
 3060TIP3    H130595   6.539   2.442   0.938 -0.1428 -1.0271  2.3919
 3060TIP3    H230596   6.457   2.316   0.920 -1.1147 -0.1091 -0.0534
 3061TIP3   OH230597   5.363   0.773  13.891 -0.0874  0.1742 -0.4869
 3061TIP3    H130598   5.445   0.821  13.875 -0.2531  0.5244 -0.3009
 3061TIP3    H230599   5.294   0.833  13.861 -0.3702  0.5680  0.8423
 3062TIP3   OH230600   6.121   0.345   0.496 -0.2724  0.1431 -0.3900
 3062TIP3    H130601   6.111   0.259   0.455 -0.0935  0.7225 -1.7081
 3062TIP3    H230602   6.168   0.328   0.577  0.3384 -0.9416 -0.9547
 3063TIP3   OH230603   6.201   1.033   1.926 -0.1012  0.5076 -0.5876
 3063TIP3    H130604   6.227   1.019   2.018 -0.5962  0.2046 -0.4904
 3063TIP3    H230605   6.236   0.957   1.880 -2.3584 -0.9228 -0.1429
 3064TIP3   OH230606   3.918   6.051  12.911  0.5382 -0.0897 -0.0370
 3064TIP3    H130607   3.888   6.010  12.992  0.5866  0.5925  0.3344
 3064TIP3    H230608   4.002   6.090  12.934  0.4006  0.3861 -0.3236
 3065TIP3   OH230609   0.517   2.814   5.360 -0.2293  0.0682 -0.3257
 3065TIP3    H130610   0.442   2.791   5.306 -0.2745  0.4084 -0.4121
 3065TIP3    H230611   0.504   2.766   5.442 -1.0485  0.8767  0.0309
 3066TIP3   OH230612   6.390   6.352   5.812  0.2662 -0.0765  0.0518
 3066TIP3    H130613   6.438   6.425   5.773  0.3079 -1.0992 -2.0066
 3066TIP3    H230614   6.308   6.348   5.762  0.2028 -1.3191  0.2128
 3067TIP3   OH230615   3.404   2.748  10.923  0.9657 -0.6013 -0.5203
 3067TIP3    H130616   3.438   2.793  10.846 -0.7967  1.0054 -0.4317
 3067TIP3    H230617   3.450   2.788  10.997  0.8775 -0.3857 -0.5813
 3068TIP3   OH230618   4.029   4.637  13.327 -0.5901 -0.0836 -0.3248
 3068TIP3    H130619   4.099   4.584  13.289 -1.1374 -0.7798 -0.3682
 3068TIP3    H230620   4.068   4.676  13.405  0.8071  1.9755 -1.9326
 3069TIP3   OH230621   5.846   5.046   4.860 -0.0992 -0.0450 -0.1278
 3069TIP3    H130622   5.803   5.101   4.926 -3.2587 -0.7091 -1.4283
 3069TIP3    H230623   5.906   5.105   4.815 -2.2200  2.0284 -0.4596
 3070TIP3   OH230624   4.979   0.386  11.706 -0.2094  0.2662 -0.3164
 3070TIP3    H130625   5.056   0.443  11.701  0.1517 -0.1926 -0.1252
 3070TIP3    H230626   4.936   0.396  11.621 -0.1881  0.8648 -0.2616
 3071TIP3   OH230627   4.526   1.175  14.918  0.0398  0.8552  0.3160
 3071TIP3    H130628   4.569   1.093  14.893  1.2811  1.2731  1.0287
 3071TIP3    H230629   4.514   1.222  14.835  0.7520  0.6272  0.0789
 3072TIP3   OH230630   0.670   5.510   3.189  0.8092 -0.1819 -0.1998
 3072TIP3    H130631   0.631   5.491   3.274  0.5280  0.4584 -0.1819
 3072TIP3    H230632   0.736   5.577   3.207  1.2210 -0.5247 -0.3911
 3073TIP3   OH230633   0.904   5.517   0.575  0.2707 -0.4147  0.4248
 3073TIP3    H130634   0.880   5.592   0.521  0.5009  0.6171  1.7286
 3073TIP3    H230635   0.955   5.461   0.516 -0.8747 -0.1313 -0.8836
 3074TIP3   OH230636   0.686   1.989  10.899  0.3499 -0.7932  0.2451
 3074TIP3    H130637   0.722   1.958  10.816 -0.5673  2.1132 -1.3741
 3074TIP3    H230638   0.672   2.082  10.885 -2.1315 -0.6627  2.8519
 3075TIP3   OH230639   5.339   0.170  12.261  0.3917 -0.0444  0.1993
 3075TIP3    H130640   5.368   0.089  12.303 -0.5063 -1.0343 -1.0141
 3075TIP3    H230641   5.410   0.192  12.201  0.5100 -0.1012  0.3174
 3076TIP3   OH230642   2.001   0.471   2.079 -0.1822 -0.7141  0.0321
 3076TIP3    H130643   2.029   0.384   2.107  1.1131  0.0167  1.1630
 3076TIP3    H230644   2.022   0.528   2.153  1.5140  0.9997 -1.6329
 3077TIP3   OH230645   1.043   2.717  13.056  0.7650  0.0290  0.0660
 3077TIP3    H130646   1.061   2.785  13.120  1.7603 -0.4346  0.2914
 3077TIP3    H230647   1.109   2.650  13.072 -1.7897 -2.2963  1.6561
 3078TIP3   OH230648   3.560   5.497  12.901  0.3058 -0.1572  0.3439
 3078TIP3    H130649   3.485   5.438  12.894 -1.1471  1.5089  1.0442
 3078TIP3    H230650   3.577   5.524  12.810  0.0101 -0.4769  0.1901
 3079TIP3   OH230651   4.978   1.912   3.582  0.1846  0.3480 -0.8398
 3079TIP3    H130652   4.927   1.840   3.546 -1.9055  1.0769  0.5055
 3079TIP3    H230653   5.029   1.872   3.653 -0.6217  0.0995 -0.3929
 3080TIP3   OH230654   3.981   2.124  16.306  0.3817  0.6509 -0.8931
 3080TIP3    H130655   4.038   2.174  16.365 -0.3153 -0.2106  0.5757
 3080TIP3    H230656   4.013   2.034  16.314  0.4091  0.5531 -2.0187
 3081TIP3   OH230657   5.406   0.035  16.297  0.2253  0.1847  0.3492
 3081TIP3    H130658   5.388   0.092  16.372  1.2180 -1.4829  1.9240
 3081TIP3    H230659   5.411  -0.053  16.334  2.3214 -0.5265 -1.4003
 3082TIP3   OH230660   3.925   1.287   2.686  0.2755 -0.2013  0.2692
 3082TIP3    H130661   3.901   1.211   2.634 -3.5485 -0.7499  2.3945
 3082TIP3    H230662   3.868   1.357   2.653 -0.2923  0.1330  1.8648
 3083TIP3   OH230663   5.183   6.686   1.187  0.1807 -0.1678  0.2840
 3083TIP3    H130664   5.133   6.760   1.153 -0.6015 -0.6419  0.3958
 3083TIP3    H230665   5.249   6.669   1.119 -0.5699 -0.3021 -0.4159
 3084TIP3   OH230666   3.612   3.018  15.752  0.2784  0.9360  0.0030
 3084TIP3    H130667   3.567   2.999  15.670 -0.7861  1.2345  0.5080
 3084TIP3    H230668   3.693   2.967  15.747 -0.6667 -0.6002 -0.3925
 3085TIP3   OH230669   6.438   3.631  13.324  0.0998  0.1406 -0.1330
 3085TIP3    H130670   6.346   3.642  13.299 -0.0326 -2.8066 -1.3635
 3085TIP3    H230671   6.479   3.591  13.248  2.4347  1.3037  0.4233
 3086TIP3   OH230672   5.644   1.236   6.529 -0.2697  0.4083  0.2737
 3086TIP3    H130673   5.688   1.159   6.493  0.7839 -0.5534  3.3237
 3086TIP3    H230674   5.554   1.229   6.498  0.3425 -0.7822 -1.3529
 3087TIP3   OH230675   3.636   1.202   2.792  0.2761  0.1633  0.4649
 3087TIP3    H130676   3.689   1.153   2.730  1.8876  2.6105 -0.1834
 3087TIP3    H230677   3.548   1.166   2.781  1.0555 -1.3937 -1.1578
 3088TIP3   OH230678   1.307   2.682  10.663 -0.0799  0.2385 -0.3270
 3088TIP3    H130679   1.393   2.672  10.622 -0.3932  0.2541 -1.0115
 3088TIP3    H230680   1.289   2.776  10.658  0.9718  0.6648  2.1736
 3089TIP3   OH230681   2.473   4.360   3.737  0.0056  0.4099  0.6556
 3089TIP3    H130682   2.519   4.428   3.788 -0.2293  3.4231 -2.7186
 3089TIP3    H230683   2.381   4.371   3.760  0.0470  0.7075  0.6844
 3090TIP3   OH230684   3.230   6.543  17.008 -0.3134  0.3103  0.1936
 3090TIP3    H130685   3.262   6.633  17.007 -1.5932  0.8024 -1.4660
 3090TIP3    H230686   3.264   6.504  16.927 -1.9755  0.1651 -0.4689
 3091TIP3   OH230687   4.148   6.052   3.783 -0.1257 -0.7633  0.0815
 3091TIP3    H130688   4.206   5.983   3.816  1.0641 -0.1170 -0.6264
 3091TIP3    H230689   4.118   6.097   3.862  0.8738 -0.6768  0.4237
 3092TIP3   OH230690   4.080   2.621   1.850 -0.1067 -0.6293  0.2450
 3092TIP3    H130691   3.989   2.617   1.879 -1.2874  0.0412 -2.9394
 3092TIP3    H230692   4.114   2.700   1.891 -2.1621  1.1490 -1.2151
 3093TIP3   OH230693   2.307   0.466  17.072  0.1965  0.2086  0.4111
 3093TIP3    H130694   2.362   0.409  17.126  0.6768 -0.8150 -1.1041
 3093TIP3    H230695   2.368   0.509  17.012 -0.4429  0.4889 -0.0581
 3094TIP3   OH230696   2.222   6.297  11.671 -0.5617 -0.1368  0.6906
 3094TIP3    H130697   2.146   6.289  11.728 -1.1194  0.4348  0.0437
 3094TIP3    H230698   2.188   6.335  11.590  0.3365 -0.2722  0.2320
 3095TIP3   OH230699   5.690   5.052  10.855  0.5854  0.0127  0.3130
 3095TIP3    H130700   5.731   5.136  10.833  2.5493 -0.8732  0.3913
 3095TIP3    H230701   5.687   5.051  10.951 -2.1114  1.1439  0.3527
 3096TIP3   OH230702   5.738   5.781   1.279 -1.0641 -0.1401  0.1624
 3096TIP3    H130703   5.694   5.865   1.269 -0.3861  0.2656  0.4999
 3096TIP3    H230704   5.766   5.780   1.371 -0.5591 -0.4734  0.0067
 3097TIP3   OH230705   0.136   5.983   0.940  0.0261 -0.3096  0.0413
 3097TIP3    H130706   0.070   5.976   1.009 -1.4441  1.8499 -0.9971
 3097TIP3    H230707   0.096   5.940   0.865 -0.3292  1.1496 -0.6414
 3098TIP3   OH230708   2.644   0.751   0.047 -0.2453 -0.4064  0.3084
 3098TIP3    H130709   2.729   0.707   0.043  0.0554  0.2418 -0.8957
 3098TIP3    H230710   2.605   0.735  -0.039 -0.4279  1.0610  0.0905
 3099TIP3   OH230711   0.910   4.909  16.055 -0.2509  0.2397  0.5727
 3099TIP3    H130712   0.866   4.912  15.970 -1.4936  2.8380  1.2357
 3099TIP3    H230713   1.004   4.912  16.034 -0.3786 -2.2974 -0.7386
 3100TIP3   OH230714   2.093   4.517  11.353  0.8373 -0.2360 -0.3599
 3100TIP3    H130715   2.179   4.542  11.320  0.4565  0.7384 -0.6511
 3100TIP3    H230716   2.031   4.563  11.297  0.0979 -1.3574 -0.5028
 3101TIP3   OH230717   3.620   0.274  12.299 -0.1850 -0.2312 -0.0456
 3101TIP3    H130718   3.571   0.192  12.300 -0.4578 -0.0728  1.0952
 3101TIP3    H230719   3.672   0.270  12.219 -0.3196 -1.4447 -0.0890
 3102TIP3   OH230720   1.329   2.941   1.300  0.0311  0.5862 -0.0244
 3102TIP3    H130721   1.404   2.982   1.257 -0.4244 -0.6520 -2.1636
 3102TIP3    H230722   1.315   2.859   1.252 -0.9503 -0.6210  2.1320
 3103TIP3   OH230723   1.180   1.227   2.469  0.6025 -0.2708  0.4349
 3103TIP3    H130724   1.217   1.156   2.416  0.9903 -0.3780  0.8476
 3103TIP3    H230725   1.199   1.203   2.559 -0.4464 -0.3130  0.6647
 3104TIP3   OH230726   6.725   2.440   5.452  0.1169  0.2017  0.0282
 3104TIP3    H130727   6.646   2.441   5.506 -1.8293 -1.5977 -2.5755
 3104TIP3    H230728   6.793   2.475   5.510 -2.1650  0.1856  2.9794
 3105TIP3   OH230729   0.028   4.789  13.381 -0.4865 -0.2326  0.1188
 3105TIP3    H130730  -0.014   4.746  13.456  0.0076  0.6395  0.9141
 3105TIP3    H230731   0.087   4.853  13.420 -0.4168  0.4275 -1.0265
 3106TIP3   OH230732   4.885   4.720  15.525 -0.0063  0.0030  0.0054
 3106TIP3    H130733   4.836   4.681  15.597  1.2819  0.3383  1.1039
 3106TIP3    H230734   4.937   4.790  15.565  0.0067  0.8578 -1.4133
 3107TIP3   OH230735   4.722   0.585  15.429  0.1591 -0.0991  0.5221
 3107TIP3    H130736   4.791   0.573  15.493 -1.0454  0.4220  1.9747
 3107TIP3    H230737   4.645   0.542  15.468 -0.7081  0.5890 -0.3663
 3108TIP3   OH230738   2.986   1.340   5.001  0.6503 -0.4151  0.3466
 3108TIP3    H130739   3.018   1.254   4.974  0.7160 -0.4382  0.4963
 3108TIP3    H230740   3.018   1.400   4.933 -2.3683 -0.9578 -1.7281
 3109TIP3   OH230741   1.425   2.432   0.602  0.1275 -0.1077 -0.1985
 3109TIP3    H130742   1.432   2.522   0.571  0.9845  0.0263  0.3493
 3109TIP3    H230743   1.340   2.402   0.571 -0.7143  1.3030  0.6455
 3110TIP3   OH230744   3.570   1.150   2.202  0.0163 -0.1087  0.3997
 3110TIP3    H130745   3.631   1.084   2.169  1.1379  0.9885  0.1974
 3110TIP3    H230746   3.483   1.115   2.180  0.5691 -1.4843  0.2758
 3111TIP3   OH230747   3.545   4.439   6.391  0.0575  0.4598 -0.2823
 3111TIP3    H130748   3.517   4.362   6.342  0.6356 -0.6439  1.0342
 3111TIP3    H230749   3.483   4.444   6.464 -0.4729  1.7530 -0.8070
 3112TIP3   OH230750   2.518   3.646  14.882 -0.0283  0.0930  0.1586
 3112TIP3    H130751   2.524   3.667  14.788  0.4815 -1.2451 -0.1277
 3112TIP3    H230752   2.580   3.705  14.923  0.1008  0.3580 -0.4009
 3113TIP3   OH230753   2.806   0.299   4.031  0.3366  0.3834  0.0855
 3113TIP3    H130754   2.847   0.213   4.043 -0.0913  0.0638 -0.6592
 3113TIP3    H230755   2.729   0.297   4.088  0.4892  0.3869  0.2930
 3114TIP3   OH230756   3.885   0.989  13.915 -0.2085  0.0366  0.0425
 3114TIP3    H130757   3.819   1.011  13.981  0.2601 -1.7602  1.1655
 3114TIP3    H230758   3.846   1.019  13.832 -1.8506  0.2181  0.8308
 3115TIP3   OH230759   4.220   0.263  16.232 -0.1501 -0.0155  0.1160
 3115TIP3    H130760   4.267   0.329  16.180  2.2200 -1.8493 -0.2580
 3115TIP3    H230761   4.267   0.261  16.315 -0.5894 -0.7770  0.3494
 3116TIP3   OH230762   0.034   2.694  14.191 -0.1427  0.0123  0.0502
 3116TIP3    H130763   0.106   2.699  14.128 -0.3213  0.4783 -0.1233
 3116TIP3    H230764   0.065   2.743  14.267 -0.3462  0.3801 -0.0996
 3117TIP3   OH230765   5.894   2.161  15.002 -0.0763  0.4512 -0.7689
 3117TIP3    H130766   5.830   2.221  15.039 -1.0595 -0.2351 -1.3232
 3117TIP3    H230767   5.878   2.078  15.046  0.8931  0.4306 -0.4247
 3118TIP3   OH230768   4.451   1.679   2.416  0.9569 -0.1607  0.3539
 3118TIP3    H130769   4.441   1.585   2.400  1.9811 -0.2436  0.1067
 3118TIP3    H230770   4.532   1.686   2.466  0.6466  0.5581  0.7637
 3119TIP3   OH230771   6.340   1.095   2.457 -0.0507  0.0835  0.0779
 3119TIP3    H130772   6.414   1.120   2.512  0.8254  2.1514 -1.8623
 3119TIP3    H230773   6.295   1.177   2.439 -0.8367 -0.6340 -1.4634
 3120TIP3   OH230774   0.065   5.250   6.577 -0.1550  0.6562 -0.0927
 3120TIP3    H130775   0.116   5.184   6.625 -0.2548  0.6883  0.0567
 3120TIP3    H230776   0.002   5.199   6.527 -1.8502  0.7117  1.8450
 3121TIP3   OH230777   0.043   3.224  13.885 -0.5563  0.1421 -0.1043
 3121TIP3    H130778   0.017   3.132  13.884 -2.5106  0.6461 -0.1127
 3121TIP3    H230779   0.005   3.260  13.805  0.0800  0.9929 -0.0363
 3122TIP3   OH230780   5.358   1.248  13.765 -0.3623 -0.1874  0.0267
 3122TIP3    H130781   5.345   1.339  13.738 -0.1252  0.0986  0.8385
 3122TIP3    H230782   5.276   1.224  13.809 -0.0822 -0.0473  0.6441
 3123TIP3   OH230783   4.228   6.518  14.421 -0.0020 -0.5020  0.3082
 3123TIP3    H130784   4.178   6.582  14.472  0.1483 -0.4615  0.4012
 3123TIP3    H230785   4.230   6.555  14.332  0.2701 -0.2748  0.4110
 3124TIP3   OH230786   3.973   3.342  11.976  0.6037  0.5111  0.1974
 3124TIP3    H130787   4.065   3.359  11.953  0.3743 -0.1464 -1.3439
 3124TIP3    H230788   3.972   3.251  12.005  0.4897  0.6047  0.4857
 3125TIP3   OH230789   4.815   1.906  11.967  0.0650 -0.2811  0.0293
 3125TIP3    H130790   4.860   1.943  12.043  2.9621 -1.7561 -0.8161
 3125TIP3    H230791   4.833   1.967  11.896  0.1635 -0.5289 -0.1625
 3126TIP3   OH230792   6.689   1.737  14.333  0.2765 -0.3626  0.8220
 3126TIP3    H130793   6.640   1.804  14.381  2.6030  0.8569  1.6170
 3126TIP3    H230794   6.673   1.758  14.241  0.8195  1.2058  1.0529
 3127TIP3   OH230795   4.413   3.260  15.496 -0.4215  0.3958  0.2011
 3127TIP3    H130796   4.321   3.269  15.471 -0.5555  0.4769  0.7261
 3127TIP3    H230797   4.432   3.167  15.485 -0.0761  0.6264 -1.5875
 3128TIP3   OH230798   1.831   2.253   2.888  0.0500 -0.2314  0.2556
 3128TIP3    H130799   1.776   2.188   2.843 -0.1644  0.6659 -0.8187
 3128TIP3    H230800   1.803   2.337   2.852  2.0070  0.2709 -0.1777
 3129TIP3   OH230801   4.007   3.329   2.233 -0.3912  0.1754 -0.1851
 3129TIP3    H130802   3.955   3.249   2.224 -0.0751  0.0690 -1.0709
 3129TIP3    H230803   4.050   3.340   2.149  0.7869  0.4382  0.4394
 3130TIP3   OH230804   2.089   0.494   0.162 -0.2234 -0.1352  0.1237
 3130TIP3    H130805   2.179   0.511   0.135 -0.8890  0.5871 -1.8477
 3130TIP3    H230806   2.049   0.453   0.085 -1.4378 -0.9756  1.1602
 3131TIP3   OH230807   6.148   1.743   4.376  0.2717 -0.5117  0.1017
 3131TIP3    H130808   6.137   1.694   4.295 -0.4363  0.7908 -0.6110
 3131TIP3    H230809   6.237   1.780   4.370 -0.2206  0.5857 -0.6619
 3132TIP3   OH230810   2.937   3.598  17.043 -0.0102  0.1338 -0.6095
 3132TIP3    H130811   2.980   3.517  17.070 -0.8489  0.1582  0.9034
 3132TIP3    H230812   2.911   3.583  16.952 -1.0672 -1.6889 -0.0418
 3133TIP3   OH230813   5.739   4.394   4.761 -0.1474 -0.3092  0.3052
 3133TIP3    H130814   5.663   4.434   4.804 -0.8154 -1.2505  0.0182
 3133TIP3    H230815   5.707   4.311   4.726  0.7241 -0.1872 -0.8468
 3134TIP3   OH230816   3.683   2.169   0.302 -0.2447  0.0700  0.6568
 3134TIP3    H130817   3.710   2.098   0.360  1.7131 -1.0809 -1.4631
 3134TIP3    H230818   3.766   2.203   0.267 -1.2985  1.0684 -0.9721
 3135TIP3   OH230819   3.157   4.261  13.812 -0.9000  0.2397  0.4072
 3135TIP3    H130820   3.099   4.335  13.797 -0.9420 -0.1779 -1.9997
 3135TIP3    H230821   3.222   4.267  13.742 -0.3992 -1.4963  0.6637
 3136TIP3   OH230822   4.529   5.337   2.767 -0.7593 -0.0868 -0.7660
 3136TIP3    H130823   4.458   5.284   2.804 -1.0982  0.9344  0.0937
 3136TIP3    H230824   4.536   5.308   2.676 -1.3650 -1.1423 -0.4955
 3137TIP3   OH230825   3.424   5.950   3.930 -0.1517 -0.1077 -0.3406
 3137TIP3    H130826   3.384   5.880   3.981  0.0886  0.9860  1.4464
 3137TIP3    H230827   3.390   6.031   3.969  2.0893  0.8204 -0.1374
 3138TIP3   OH230828   3.080   0.354   3.199  0.2892 -0.3635 -0.0546
 3138TIP3    H130829   3.004   0.295   3.199 -0.5552  0.6842 -1.1462
 3138TIP3    H230830   3.079   0.394   3.286 -0.0288 -0.8215  0.1589
 3139TIP3   OH230831   2.091   3.278   1.879  0.0244  0.5162 -0.0080
 3139TIP3    H130832   2.015   3.230   1.911  1.3963 -0.4549  2.0476
 3139TIP3    H230833   2.146   3.211   1.837 -0.2062  1.1957 -1.4479
 3140TIP3   OH230834   4.411   6.649   4.140  0.2207  0.5443  0.0301
 3140TIP3    H130835   4.384   6.557   4.147  0.4116  0.5548  1.0669
 3140TIP3    H230836   4.330   6.699   4.152  0.1717  0.5211 -0.1964
 3141TIP3   OH230837   5.707   3.324   0.527 -0.3648  0.1634 -0.0820
 3141TIP3    H130838   5.671   3.354   0.610 -1.8708 -1.7358  0.0048
 3141TIP3    H230839   5.747   3.239   0.547  2.4824  1.2539 -0.6159
 3142TIP3   OH230840   5.746   6.746  14.922  0.6444  0.1590  0.0150
 3142TIP3    H130841   5.709   6.821  14.875  0.1826  1.5026  2.3676
 3142TIP3    H230842   5.725   6.670  14.867 -1.2869  1.4314 -1.1199
 3143TIP3   OH230843   1.721   2.180   3.784  0.9918  0.3887  0.4448
 3143TIP3    H130844   1.770   2.175   3.702  0.0474 -0.1912 -0.0963
 3143TIP3    H230845   1.743   2.099   3.830  2.3074  1.1612  1.2423
 3144TIP3   OH230846   4.159   3.315  15.163 -0.0722 -0.3076 -0.0925
 3144TIP3    H130847   4.114   3.389  15.123 -0.0490  0.6388  1.5702
 3144TIP3    H230848   4.201   3.271  15.089  0.1722  1.4952 -1.0918
 3145TIP3   OH230849   6.369   3.342  10.486  0.1897  0.4638  0.1702
 3145TIP3    H130850   6.291   3.356  10.539 -0.7813 -0.2281 -1.0318
 3145TIP3    H230851   6.380   3.423  10.437 -0.3737  0.1982 -0.4026
 3146TIP3   OH230852   3.195   1.729  11.707  0.0346  0.0520 -0.8845
 3146TIP3    H130853   3.220   1.716  11.616  2.7263 -0.5083 -0.1556
 3146TIP3    H230854   3.195   1.640  11.745  0.5504  0.4053 -0.0097
 3147TIP3   OH230855   0.090   4.957   0.485  0.1810 -0.8533 -0.6479
 3147TIP3    H130856   0.033   4.921   0.553  1.1252 -0.2925  0.4783
 3147TIP3    H230857   0.114   5.044   0.518 -0.6662  0.1454 -2.4844
 3148TIP3   OH230858   1.121   3.980  13.765  0.6385 -0.3845 -0.8524
 3148TIP3    H130859   1.188   3.965  13.832 -0.3867 -0.1251  0.2708
 3148TIP3    H230860   1.140   4.068  13.732 -0.3129  0.5321  0.9092
 3149TIP3   OH230861   0.520   1.466  13.959  0.4154 -0.7920  0.0495
 3149TIP3    H130862   0.446   1.519  13.989  0.1405 -0.7384 -0.7142
 3149TIP3    H230863   0.588   1.530  13.937  1.3786 -0.8786  2.4144
 3150TIP3   OH230864   1.276   3.664   3.145  0.4725  0.5587 -0.2986
 3150TIP3    H130865   1.369   3.678   3.127  0.3146  2.4019  0.1252
 3150TIP3    H230866   1.265   3.688   3.237 -0.2081 -0.9206  0.0416
 3151TIP3   OH230867   4.583   3.371   1.835  0.5066  0.1446 -0.2240
 3151TIP3    H130868   4.610   3.451   1.878 -1.6282  0.2103  1.1473
 3151TIP3    H230869   4.642   3.304   1.869  0.4440  0.6398  0.8953
 3152TIP3   OH230870   3.110   4.237  15.009 -0.9627 -0.7349 -0.3147
 3152TIP3    H130871   3.200   4.270  15.004 -0.8157 -1.2935 -2.4271
 3152TIP3    H230872   3.056   4.315  15.013 -0.4063 -0.3937  1.1796
 3153TIP3   OH230873   0.687   6.109   2.912  0.3417  0.8546  0.0387
 3153TIP3    H130874   0.630   6.081   2.840  0.3842  0.2857  0.2246
 3153TIP3    H230875   0.742   6.177   2.873 -0.2643  1.2070 -0.2191
 3154TIP3   OH230876   5.106   1.262  13.909  0.0824 -0.0339  0.3089
 3154TIP3    H130877   5.063   1.238  13.991 -2.0983 -0.2068 -0.8142
 3154TIP3    H230878   5.102   1.184  13.855  1.3303  0.1323 -0.0684
 3155TIP3   OH230879   0.006   2.724  16.814 -0.2800 -0.7629 -0.0772
 3155TIP3    H130880   0.093   2.754  16.840 -0.6529 -2.4498  3.8302
 3155TIP3    H230881   0.002   2.633  16.844 -2.2171 -1.9810 -3.4863
 3156TIP3   OH230882   0.060   3.412  12.941  0.0880 -0.0929 -0.4063
 3156TIP3    H130883   0.087   3.467  13.015  0.4500 -1.9682  0.9169
 3156TIP3    H230884  -0.003   3.466  12.893  0.5883  1.5456  0.7090
 3157TIP3   OH230885   0.069   2.535   3.014  0.5295  0.1140 -0.0272
 3157TIP3    H130886   0.163   2.538   3.030  0.0765 -0.9002  4.0183
 3157TIP3    H230887   0.036   2.619   3.046 -0.0719 -0.0364 -0.2311
 3158TIP3   OH230888   1.454   1.348  13.340 -0.7080  0.1959  0.4517
 3158TIP3    H130889   1.478   1.422  13.395 -0.9337 -0.0617  0.9007
 3158TIP3    H230890   1.387   1.301  13.390  1.2057 -1.7547  1.3664
 3159TIP3   OH230891   5.632   3.953  14.969 -0.0325  0.2572  0.1857
 3159TIP3    H130892   5.687   4.021  14.930  0.0315 -0.2118 -0.5680
 3159TIP3    H230893   5.659   3.949  15.061 -1.2060  2.4083  0.6868
 3160TIP3   OH230894   4.904   4.531   3.119 -0.1742  0.4463  0.3345
 3160TIP3    H130895   4.836   4.548   3.053  0.2996 -0.2532 -0.3597
 3160TIP3    H230896   4.916   4.436   3.116 -0.3002  0.3751  1.6048
 3161TIP3   OH230897   5.450   1.236  14.099  0.4079 -0.0016  0.2064
 3161TIP3    H130898   5.496   1.282  14.029 -1.5443  0.6023 -0.7574
 3161TIP3    H230899   5.408   1.305  14.151 -3.0199 -0.4916 -1.5892
 3162TIP3   OH230900   5.839   4.609   4.933  0.1745 -0.5332 -0.0179
 3162TIP3    H130901   5.847   4.530   4.879  0.3994 -1.3216  1.1273
 3162TIP3    H230902   5.758   4.596   4.982  0.1751 -0.0192  0.1227
 3163TIP3   OH230903   4.395   6.215  17.238  0.1081 -0.1756  0.3062
 3163TIP3    H130904   4.314   6.195  17.285 -0.2510 -0.3549 -0.3776
 3163TIP3    H230905   4.385   6.307  17.212 -0.6365 -0.6474 -1.2220
 3164TIP3   OH230906   1.266   2.622  12.078  0.1988  0.1529 -0.2632
 3164TIP3    H130907   1.307   2.540  12.050  2.3821  1.3553 -0.7764
 3164TIP3    H230908   1.215   2.598  12.156  0.6316 -1.7126 -0.5123
 3165TIP3   OH230909   2.221   2.608   5.254 -0.4209 -0.2021  0.1333
 3165TIP3    H130910   2.181   2.689   5.222  0.6086 -0.2815 -1.4433
 3165TIP3    H230911   2.214   2.613   5.349 -4.3118 -0.2788  0.0155
 3166TIP3   OH230912   1.207   4.212  14.176  0.5519  0.1241  0.5669
 3166TIP3    H130913   1.273   4.278  14.154  1.2064 -0.8835 -0.6442
 3166TIP3    H230914   1.123   4.256  14.165  0.9407  0.4634 -1.3934
 3167TIP3   OH230915   0.123   0.208  16.694 -0.3271 -0.2278  0.4955
 3167TIP3    H130916   0.124   0.171  16.782 -0.6025 -0.1093  0.5512
 3167TIP3    H230917   0.104   0.134  16.636 -2.0658 -0.0065  0.7033
 3168TIP3   OH230918   3.586   6.195   0.017 -0.4317  0.1917 -0.5239
 3168TIP3    H130919   3.499   6.190   0.055  0.0449 -0.6275  0.5067
 3168TIP3    H230920   3.574   6.245  -0.064 -1.7015  0.8179  0.0214
 3169TIP3   OH230921   5.233   6.444   0.378  0.2275 -0.5405  0.1251
 3169TIP3    H130922   5.312   6.436   0.432 -0.2601  0.8776  1.0857
 3169TIP3    H230923   5.244   6.527   0.331 -0.9149 -0.0741  0.6511
 3170TIP3   OH230924   6.220   0.624   6.779  0.3056 -0.0008  0.1819
 3170TIP3    H130925   6.215   0.632   6.684 -0.3024 -1.0585  0.1101
 3170TIP3    H230926   6.217   0.714   6.811 -0.8331  0.3078 -0.7467
 3171TIP3   OH230927   2.635   2.414   2.057 -0.1983 -0.3628  0.6137
 3171TIP3    H130928   2.636   2.319   2.048 -0.4373 -0.3295  0.2109
 3171TIP3    H230929   2.572   2.431   2.127  1.3041 -0.5991  2.0907
 3172TIP3   OH230930   1.902   0.072  12.827  0.0650  0.1708  0.1016
 3172TIP3    H130931   1.944  -0.013  12.836 -1.0290 -0.3167  0.7754
 3172TIP3    H230932   1.883   0.080  12.733  2.1924  0.7021 -0.3450
 3173TIP3   OH230933   6.004   4.365   1.638 -0.1969  0.6678  0.2442
 3173TIP3    H130934   6.013   4.359   1.543  0.4316  1.2007  0.2635
 3173TIP3    H230935   5.909   4.371   1.653 -0.2464  1.7130 -0.4282
 3174TIP3   OH230936   3.130   1.207  16.361  0.2083 -0.5458 -0.2057
 3174TIP3    H130937   3.084   1.291  16.354  1.5528  0.2885  0.5540
 3174TIP3    H230938   3.151   1.199  16.454  1.6212 -0.8550 -0.5266
 3175TIP3   OH230939   2.482   5.603  16.011  0.0220 -0.0371 -0.0693
 3175TIP3    H130940   2.533   5.589  16.090 -0.1489 -1.0851 -0.1362
 3175TIP3    H230941   2.445   5.691  16.022 -0.2167 -0.2689  1.1337
 3176TIP3   OH230942   6.461   3.169  14.669  0.1477  0.1080 -0.1454
 3176TIP3    H130943   6.371   3.169  14.638  0.1741 -0.3724 -0.2253
 3176TIP3    H230944   6.455   3.137  14.759  0.0841  1.3823  0.3324
 3177TIP3   OH230945   1.628   3.157  15.194 -0.0786 -0.4872  0.4099
 3177TIP3    H130946   1.562   3.218  15.162 -0.4697 -0.6228  0.9578
 3177TIP3    H230947   1.580   3.093  15.245 -0.1819 -3.1994 -2.7478
 3178TIP3   OH230948   3.978   0.107   0.472  0.2305 -0.0648 -0.7198
 3178TIP3    H130949   4.056   0.155   0.445  0.3304 -0.0317 -0.3807
 3178TIP3    H230950   4.011   0.032   0.521  0.0210  0.6617  0.5719
 3179TIP3   OH230951   6.682   4.233  11.855 -0.3095  0.1670  0.0280
 3179TIP3    H130952   6.642   4.291  11.790  0.2319 -0.0937 -0.5448
 3179TIP3    H230953   6.667   4.144  11.821  1.7327  0.0959 -0.7967
 3180TIP3   OH230954   5.137   3.882  12.647 -0.1084  0.0124  0.1688
 3180TIP3    H130955   5.045   3.864  12.631 -0.6515  0.7887  2.1488
 3180TIP3    H230956   5.150   3.865  12.740  1.3946  1.2889  0.2425
 3181TIP3   OH230957   4.591   5.075  13.548  0.3814  0.1430  0.2038
 3181TIP3    H130958   4.636   5.153  13.517  1.2681 -0.2450  0.4820
 3181TIP3    H230959   4.557   5.099  13.634  0.7949  0.1730  0.3599
 3182TIP3   OH230960   5.731   5.005  12.257  0.1227 -0.7435  0.4403
 3182TIP3    H130961   5.676   5.007  12.336 -1.0264 -0.2933 -0.3542
 3182TIP3    H230962   5.680   5.051  12.191  1.0952 -1.0790 -0.5657
 3183TIP3   OH230963   0.067   2.539  15.677 -0.4208  0.4583 -0.0464
 3183TIP3    H130964   0.027   2.491  15.605  0.6425  0.3412 -0.5872
 3183TIP3    H230965   0.097   2.471  15.737  0.6568  0.4260 -0.5816
 3184TIP3   OH230966   3.578   6.391   1.668  0.0723  0.0359  0.2654
 3184TIP3    H130967   3.554   6.483   1.669 -1.0425 -0.2320  0.3663
 3184TIP3    H230968   3.667   6.388   1.703  0.1046  1.0614  0.2895
 3185TIP3   OH230969   0.834   3.996  15.933  0.1935  0.5413  0.2529
 3185TIP3    H130970   0.814   4.061  15.866 -2.5414 -1.4761 -1.0933
 3185TIP3    H230971   0.830   3.912  15.886  0.4631 -0.8170  2.5133
 3186TIP3   OH230972   2.156   5.294   3.069 -0.1690  0.0225  0.0288
 3186TIP3    H130973   2.207   5.316   3.147 -1.2475  0.6447  0.5668
 3186TIP3    H230974   2.092   5.229   3.099  0.7844 -1.3650 -0.8161
 3187TIP3   OH230975   1.566   2.201   5.135 -0.4114 -0.5108  0.2357
 3187TIP3    H130976   1.638   2.140   5.116  0.0760 -0.0749  0.6523
 3187TIP3    H230977   1.608   2.275   5.179 -0.9206  0.3732 -0.7118
 3188TIP3   OH230978   3.110   0.485   6.562 -0.3135  0.1205  0.6131
 3188TIP3    H130979   3.090   0.402   6.604  1.2577  0.4342  2.1397
 3188TIP3    H230980   3.034   0.540   6.580 -0.2720 -0.2032  1.8804
 3189TIP3   OH230981   5.307   6.215  13.354  0.0876  0.3987  0.2391
 3189TIP3    H130982   5.365   6.259  13.417 -0.5867  2.7761 -0.6820
 3189TIP3    H230983   5.352   6.224  13.270  1.1298 -3.0169  0.3078
 3190TIP3   OH230984   0.580   6.590   5.457 -0.5698  0.2050  0.7659
 3190TIP3    H130985   0.587   6.669   5.510 -1.4859  1.0280 -0.2724
 3190TIP3    H230986   0.506   6.607   5.398 -2.2522 -2.2940  1.9584
 3191TIP3   OH230987   4.403   2.061  11.595 -0.0811  0.2366  0.1011
 3191TIP3    H130988   4.470   2.028  11.535  0.6866  3.0569 -0.7346
 3191TIP3    H230989   4.452   2.089  11.673 -0.5268  0.6175  0.2483
 3192TIP3   OH230990   5.905   3.580   0.639  0.4779  0.3981  0.1853
 3192TIP3    H130991   5.935   3.490   0.630 -2.1171 -0.5428  0.0121
 3192TIP3    H230992   5.923   3.603   0.730 -0.1008 -0.8321  0.6359
 3193TIP3   OH230993   1.492   4.920   4.593  0.2140  0.1425  0.2162
 3193TIP3    H130994   1.410   4.935   4.546  0.3455 -1.1278 -0.4758
 3193TIP3    H230995   1.552   4.985   4.557  0.9689 -2.1188 -3.1771
 3194TIP3   OH230996   2.289   2.303   4.177 -0.6669 -0.1309  0.5635
 3194TIP3    H130997   2.350   2.233   4.155 -1.1499 -0.8293  1.4027
 3194TIP3    H230998   2.202   2.264   4.168 -0.9625  0.5220  0.4970
 3195TIP3   OH230999   5.652   3.944   0.362  0.6719 -0.7319  0.3428
 3195TIP3    H131000   5.570   3.980   0.396  0.8103  0.3996 -0.4523
 3195TIP3    H231001   5.660   3.858   0.403 -1.2943 -1.1794 -0.1403
 3196TIP3   OH231002   2.378   3.330  16.468  0.5474 -0.3489 -0.4974
 3196TIP3    H131003   2.413   3.311  16.381  0.4625 -0.2207 -0.5574
 3196TIP3    H231004   2.407   3.256  16.522 -3.3597 -3.0170 -1.6541
 3197TIP3   OH231005   0.282   3.125   0.992 -0.0953 -0.6768 -0.1837
 3197TIP3    H131006   0.353   3.183   0.964 -0.6936 -0.6036 -1.6195
 3197TIP3    H231007   0.208   3.183   1.006  0.1924 -0.7002  1.7088
 3198TIP3   OH231008   1.635   0.908   3.532 -0.5963  0.8882 -0.0094
 3198TIP3    H131009   1.714   0.892   3.584 -2.5844 -0.1224  2.9772
 3198TIP3    H231010   1.624   1.003   3.532 -0.1699  0.9419  0.8544
 3199TIP3   OH231011   6.084   4.625  11.466  0.6695  0.0870  0.1715
 3199TIP3    H131012   6.022   4.572  11.517  2.0336  0.8774  2.8395
 3199TIP3    H231013   6.147   4.561  11.431  1.0321 -0.3110  1.4925
 3200TIP3   OH231014   6.322   1.216  15.812  1.1809 -0.0514  0.4214
 3200TIP3    H131015   6.364   1.301  15.801  1.2506  0.1068  1.7996
 3200TIP3    H231016   6.229   1.232  15.799  1.1881  0.2413  0.7400
 3201TIP3   OH231017   5.541   5.690  17.340  0.4267 -0.5275  0.8398
 3201TIP3    H131018   5.461   5.674  17.290  2.2834 -2.1166 -1.8845
 3201TIP3    H231019   5.547   5.616  17.400 -0.5668  0.1062  1.7635
 3202TIP3   OH231020   1.331   6.416   0.031 -0.0656 -0.6532 -0.7100
 3202TIP3    H131021   1.288   6.501   0.029  1.0142  0.0592  1.8235
 3202TIP3    H231022   1.424   6.437   0.044  0.4400 -2.2107 -1.5537
 3203TIP3   OH231023   3.519   4.516   4.263 -0.2566  0.1280 -0.2912
 3203TIP3    H131024   3.435   4.480   4.289  1.1602 -2.1951  1.4668
 3203TIP3    H231025   3.503   4.610   4.254 -3.1263 -0.3033 -0.6467
 3204TIP3   OH231026   3.519   2.647   3.478  0.2477 -0.2452  0.0797
 3204TIP3    H131027   3.462   2.701   3.425 -0.4374 -1.6409 -0.6485
 3204TIP3    H231028   3.498   2.671   3.568 -0.3536  0.3746 -0.2176
 3205TIP3   OH231029   5.583   5.711  14.922  0.5429  0.7234  0.0989
 3205TIP3    H131030   5.627   5.776  14.976  1.3446  1.0125 -0.8794
 3205TIP3    H231031   5.490   5.728  14.935  0.7401  1.6467  0.3432
 3206TIP3   OH231032   2.126   5.678  11.702 -0.6664 -0.3139  0.0131
 3206TIP3    H131033   2.118   5.735  11.627  2.8378 -1.7162 -1.6490
 3206TIP3    H231034   2.048   5.622  11.698 -0.9043  0.0905 -2.1985
 3207TIP3   OH231035   1.216   3.285  11.546  0.7313 -0.1985  0.3656
 3207TIP3    H131036   1.201   3.191  11.535  2.4189 -0.4314 -0.2596
 3207TIP3    H231037   1.278   3.308  11.476 -2.0889  2.0986 -1.6550
 3208TIP3   OH231038   2.669   0.060   0.747 -0.0050 -0.2828  0.3308
 3208TIP3    H131039   2.606   0.112   0.696 -1.2583 -0.7601  1.3211
 3208TIP3    H231040   2.673   0.105   0.832  2.5140  0.8516 -0.2991
 3209TIP3   OH231041   1.973   6.493   5.345 -0.0449  0.2951 -0.2592
 3209TIP3    H131042   1.889   6.502   5.299 -1.1447  0.9569  1.7521
 3209TIP3    H231043   1.952   6.511   5.436  1.6888 -2.6379  0.8526
 3210TIP3   OH231044   1.132   2.948  10.896 -0.3901 -0.0969  0.0327
 3210TIP3    H131045   1.226   2.945  10.881 -0.4925 -0.2699 -0.6045
 3210TIP3    H231046   1.094   2.900  10.822 -0.9230 -1.0006  0.8794
 3211TIP3   OH231047   3.251   0.772  12.931  0.1691  0.4453 -0.2757
 3211TIP3    H131048   3.343   0.797  12.922  0.1556 -0.0676 -2.3673
 3211TIP3    H231049   3.203   0.855  12.932  0.6206  0.7154  0.8697
 3212TIP3   OH231050   6.368   2.893   2.025 -0.3430 -0.1339  0.2552
 3212TIP3    H131051   6.408   2.809   2.001 -0.7587 -0.5229  0.8838
 3212TIP3    H231052   6.376   2.897   2.120 -2.6720 -0.7228  0.5572
 3213TIP3   OH231053   5.433   5.739   5.456  0.3307 -0.2029 -0.5683
 3213TIP3    H131054   5.442   5.814   5.398 -1.4572 -1.7416 -3.0117
 3213TIP3    H231055   5.510   5.685   5.438  2.0752  1.2778  1.8104
 3214TIP3   OH231056   1.739   5.361   0.855  0.5830  0.2461 -0.1263
 3214TIP3    H131057   1.711   5.424   0.921  1.9411  2.2135 -1.3259
 3214TIP3    H231058   1.658   5.320   0.824 -0.1856  0.2810  1.7396
 3215TIP3   OH231059   1.056   2.160   2.441 -0.0156 -0.2391 -0.3320
 3215TIP3    H131060   1.091   2.214   2.512 -0.5651 -0.1437 -0.1275
 3215TIP3    H231061   1.005   2.092   2.486  0.4459 -0.7608 -0.6002
 3216TIP3   OH231062   4.923   4.634  13.121 -0.7784 -0.1129  0.0759
 3216TIP3    H131063   4.899   4.660  13.210  1.9594  2.1755  0.2714
 3216TIP3    H231064   4.871   4.691  13.065  3.1696  4.4799  0.4885
 3217TIP3   OH231065   2.249   3.469  17.110  0.0908 -0.2530  0.0482
 3217TIP3    H131066   2.194   3.445  17.184  0.0042  0.0122  0.0688
 3217TIP3    H231067   2.319   3.523  17.148 -1.0149  1.5128 -0.3167
 3218TIP3   OH231068   4.411   5.011  16.314 -0.0786  0.1876  0.5088
 3218TIP3    H131069   4.456   5.018  16.230  0.0967 -1.7069  0.3993
 3218TIP3    H231070   4.373   5.098  16.328 -1.1891  0.2214 -2.1433
 3219TIP3   OH231071   6.009   2.716  14.763  0.1472 -0.3773  0.2826
 3219TIP3    H131072   6.024   2.655  14.836 -0.9424  0.8673  1.6203
 3219TIP3    H231073   5.995   2.800  14.806  0.6462  0.6401 -1.4686
 3220TIP3   OH231074   4.261   0.199   2.205 -0.2122 -0.3432  0.0974
 3220TIP3    H131075   4.292   0.258   2.273  2.0850 -0.6772 -0.5575
 3220TIP3    H231076   4.322   0.126   2.207  0.0187 -0.3130 -2.3634
 3221TIP3   OH231077   0.994   1.200  10.733 -0.9149  0.1561  0.2652
 3221TIP3    H131078   0.932   1.161  10.670  0.5062 -1.4227 -0.2195
 3221TIP3    H231079   0.999   1.137  10.804  1.0613 -0.3852 -0.2933
 3222TIP3   OH231080   3.832   2.828   5.063  0.0055 -0.1216 -0.0981
 3222TIP3    H131081   3.845   2.819   5.157  1.0700 -0.3552 -0.2527
 3222TIP3    H231082   3.802   2.918   5.051  2.9464  1.0262  0.2140
 3223TIP3   OH231083   4.195   0.385   4.395 -0.0175  0.1287 -0.2130
 3223TIP3    H131084   4.274   0.332   4.407  0.6889  0.9491 -1.0798
 3223TIP3    H231085   4.223   0.457   4.338 -1.1447  1.0072  0.3081
 3224TIP3   OH231086   0.179   5.179   5.376 -0.1173 -0.2582 -0.9076
 3224TIP3    H131087   0.274   5.188   5.391 -0.1978  1.5434 -1.3448
 3224TIP3    H231088   0.157   5.097   5.421  1.5710 -0.5234 -0.4575
 3225TIP3   OH231089   4.015   3.112   3.754  0.3510  0.8131 -0.0892
 3225TIP3    H131090   3.954   3.181   3.781 -0.6405  0.2923 -0.8834
 3225TIP3    H231091   4.040   3.135   3.665 -0.6674 -0.2559 -0.6903
 3226TIP3   OH231092   3.117   5.940   0.445  0.1447  0.0009 -0.0476
 3226TIP3    H131093   3.040   5.898   0.483  0.1222  0.9094  0.9703
 3226TIP3    H231094   3.125   6.023   0.492  0.9225  0.5680 -1.1230
 3227TIP3   OH231095   5.669   2.831  13.697  0.1677 -0.5703  1.0744
 3227TIP3    H131096   5.583   2.866  13.671  0.7980  0.2365 -0.0206
 3227TIP3    H231097   5.648   2.754  13.750 -1.2413  0.1960  1.6932
 3228TIP3   OH231098   5.739   1.479   5.950  0.2093  0.0627  0.1180
 3228TIP3    H131099   5.737   1.405   6.011 -1.6183  2.1308  2.7889
 3228TIP3    H231100   5.795   1.544   5.993 -1.1984  1.6273 -0.3069
 3229TIP3   OH231101   4.788   1.830  11.583  0.1081 -0.1736 -0.7134
 3229TIP3    H131102   4.853   1.821  11.514  0.1816 -0.4417 -0.6104
 3229TIP3    H231103   4.830   1.793  11.661 -0.8418 -2.1520 -1.0669
 3230TIP3   OH231104   2.544   5.487  13.130  0.0025  0.0900  0.2602
 3230TIP3    H131105   2.548   5.517  13.221 -0.8817  0.5327  0.1618
 3230TIP3    H231106   2.553   5.567  13.078 -0.8708  0.0121 -0.0209
 3231TIP3   OH231107   2.852   5.639   0.746  0.3065  0.3081  0.4337
 3231TIP3    H131108   2.766   5.608   0.776  0.3479  1.0348  1.3500
 3231TIP3    H231109   2.903   5.648   0.826  0.4728  2.1612  0.1722
 3232TIP3   OH231110   1.760   3.591  14.543 -0.6321 -0.2818  0.2880
 3232TIP3    H131111   1.723   3.545  14.619  0.8234 -0.0799  1.1610
 3232TIP3    H231112   1.782   3.678  14.576  1.1678 -0.5897  0.0062
 3233TIP3   OH231113   1.599   4.244   3.271 -0.1457  0.1317  0.0844
 3233TIP3    H131114   1.556   4.317   3.226  1.5920  0.8438 -0.5204
 3233TIP3    H231115   1.677   4.225   3.218 -0.6116 -2.2864  0.1484
 3234TIP3   OH231116   6.513   6.700  15.195  0.0354 -0.2321 -0.0626
 3234TIP3    H131117   6.566   6.757  15.140 -0.3992 -0.1962 -0.4487
 3234TIP3    H231118   6.565   6.621  15.205 -0.0528 -0.3974 -0.8634
 3235TIP3   OH231119   5.552   1.941   5.922  0.4134  0.2723  0.2727
 3235TIP3    H131120   5.480   1.957   5.983  0.0185  1.1327 -0.3863
 3235TIP3    H231121   5.559   1.846   5.918 -0.9554  0.1526  0.0680
 3236TIP3   OH231122   6.694   0.814  14.591  0.0599 -0.5510 -0.3767
 3236TIP3    H131123   6.733   0.839  14.675  1.5881 -2.6164 -0.3974
 3236TIP3    H231124   6.654   0.728  14.608 -2.1665  0.2766 -1.0865
 3237TIP3   OH231125   6.751   6.093  17.119  0.0385  0.1281 -0.3560
 3237TIP3    H131126   6.762   6.159  17.187  0.2069  0.3684 -0.6152
 3237TIP3    H231127   6.785   6.013  17.159  0.3294  0.3119 -0.2299
 3238TIP3   OH231128   0.029   0.188   0.237 -0.0850 -0.1765  0.4914
 3238TIP3    H131129   0.110   0.180   0.287 -0.5493 -1.4953  1.0934
 3238TIP3    H231130   0.050   0.151   0.151 -0.2156 -1.1905  0.8783
 3239TIP3   OH231131   2.574   3.251   2.896  0.0012  0.3366  0.1717
 3239TIP3    H131132   2.576   3.220   2.986  1.3854  1.2156  0.4697
 3239TIP3    H231133   2.565   3.346   2.903  0.0318  0.4091 -0.6296
 3240TIP3   OH231134   4.533   2.082   5.615 -0.1472 -0.0169 -0.3274
 3240TIP3    H131135   4.470   2.013   5.636  0.5597 -1.3509 -2.3429
 3240TIP3    H231136   4.479   2.153   5.578 -1.1282  1.4781  3.4363
 3241TIP3   OH231137   5.674   0.747   2.890 -0.0307  0.2992  0.1191
 3241TIP3    H131138   5.607   0.764   2.824 -0.4125 -0.2180  0.3575
 3241TIP3    H231139   5.631   0.688   2.953  0.9838 -0.9614 -0.3088
 3242TIP3   OH231140   0.968   3.974   0.259 -0.6289 -0.7194  0.5681
 3242TIP3    H131141   1.034   3.951   0.194 -1.2060 -2.9087  0.6878
 3242TIP3    H231142   0.915   4.041   0.216  1.1908  0.5487  0.1984
 3243TIP3   OH231143   0.593   0.214  11.185  0.4500  0.0569 -0.3381
 3243TIP3    H131144   0.662   0.155  11.217  0.6996  0.0144 -0.9391
 3243TIP3    H231145   0.533   0.157  11.137  0.1358  0.1361 -0.0447
 3244TIP3   OH231146   6.604   3.512  12.067  0.0883  0.0565  0.3418
 3244TIP3    H131147   6.633   3.452  11.998  0.8016 -0.4822  1.0914
 3244TIP3    H231148   6.517   3.539  12.040 -0.8589 -2.4168  0.6526
 3245TIP3   OH231149   6.159   4.969   5.599  0.4176  0.2312  0.5020
 3245TIP3    H131150   6.144   4.982   5.505 -0.1506 -1.8068  0.2625
 3245TIP3    H231151   6.091   5.021   5.642 -0.5950 -0.3944 -0.2969
 3246TIP3   OH231152   5.057   4.658   5.875 -0.4133  0.0067 -0.3412
 3246TIP3    H131153   5.037   4.574   5.835 -1.3252  0.3091 -0.5596
 3246TIP3    H231154   5.148   4.675   5.852 -0.4341 -0.5912 -0.8941
 3247TIP3   OH231155   3.724   1.577   5.130 -0.2906  0.2547  0.2942
 3247TIP3    H131156   3.758   1.640   5.066 -1.2423  0.7096  0.2181
 3247TIP3    H231157   3.800   1.556   5.185 -0.0468  1.8825  0.6574
 3248TIP3   OH231158   1.565   1.354  17.364 -0.6743 -0.4044  0.2373
 3248TIP3    H131159   1.518   1.282  17.405 -1.1175 -0.5093 -0.4319
 3248TIP3    H231160   1.572   1.421  17.432 -1.7397 -0.4225  0.3810
 3249TIP3   OH231161   6.129   6.146   3.258  0.1302  0.2595  0.3466
 3249TIP3    H131162   6.215   6.128   3.294 -0.3525 -1.7278  0.6493
 3249TIP3    H231163   6.070   6.143   3.333 -0.5329 -1.1635 -0.1982
 3250TIP3   OH231164   3.497   2.217  12.361 -0.5898  0.6661  0.5265
 3250TIP3    H131165   3.500   2.155  12.288  1.1496  0.6279  0.5962
 3250TIP3    H231166   3.586   2.250  12.368 -1.1839  2.1756  1.3723
 3251TIP3   OH231167   2.927   1.693   0.707 -0.1699  0.1247  0.4507
 3251TIP3    H131168   3.003   1.684   0.764 -1.8095  0.4306  2.8010
 3251TIP3    H231169   2.887   1.776   0.732 -1.4532 -0.1700 -0.5262
 3252TIP3   OH231170   6.370   5.840  14.461 -0.3338  0.0660  0.5161
 3252TIP3    H131171   6.345   5.929  14.435  1.2433  0.6340  0.8713
 3252TIP3    H231172   6.421   5.851  14.541 -0.2417 -1.1797  0.6484
 3253TIP3   OH231173   4.068   0.114   0.824  0.2013 -0.3970  0.1927
 3253TIP3    H131174   4.011   0.191   0.823  0.4152 -0.2459 -0.7811
 3253TIP3    H231175   4.033   0.058   0.755  1.2244 -0.3105 -0.4056
 3254TIP3   OH231176   3.746   1.678   3.161 -0.0555  0.0436  0.0385
 3254TIP3    H131177   3.710   1.612   3.101  1.0203 -0.5868  0.0655
 3254TIP3    H231178   3.670   1.710   3.209 -0.5889 -1.3139  0.1461
 3255TIP3   OH231179   6.540   5.869  15.652 -0.3104  0.5797 -0.5904
 3255TIP3    H131180   6.465   5.929  15.644 -0.1753  1.1241  1.5043
 3255TIP3    H231181   6.502   5.782  15.641 -1.3853  0.8171  0.8659
 3256TIP3   OH231182   2.983   3.250  14.855  0.4285  0.7915  0.0643
 3256TIP3    H131183   3.013   3.185  14.919  0.7430 -0.5135 -1.3541
 3256TIP3    H231184   2.897   3.277  14.887  0.8300  0.6100  1.3428
 3257TIP3   OH231185   1.751   6.112  15.995 -0.4747  0.0938  0.3134
 3257TIP3    H131186   1.725   6.121  16.087  0.1708  0.7855  0.4398
 3257TIP3    H231187   1.838   6.073  15.999 -0.3414  0.3551  0.0116
 3258TIP3   OH231188   4.429   2.321  15.681 -0.2580 -0.0498  0.0733
 3258TIP3    H131189   4.398   2.410  15.700  1.6751  0.2287  2.4507
 3258TIP3    H231190   4.430   2.277  15.766  1.1396 -1.5488 -0.6531
 3259TIP3   OH231191   0.487   1.731   5.329  0.1279 -0.8208 -0.3660
 3259TIP3    H131192   0.579   1.706   5.333  0.2820 -0.8715 -2.9739
 3259TIP3    H231193   0.440   1.648   5.317  0.0863 -0.5481 -2.4509
 3260TIP3   OH231194   6.074   1.861   3.286 -0.1461 -0.4755 -0.2824
 3260TIP3    H131195   6.089   1.767   3.278  0.7552 -0.2378 -1.7565
 3260TIP3    H231196   6.147   1.893   3.338 -0.6899 -0.6315  0.6004
 3261TIP3   OH231197   2.756   3.281   2.708  0.2836  0.0458 -0.4804
 3261TIP3    H131198   2.675   3.275   2.759  0.4849 -1.1231 -0.2605
 3261TIP3    H231199   2.728   3.312   2.622 -0.3723 -0.1554 -0.3467
 3262TIP3   OH231200   1.469   4.678   1.041  0.8522 -0.1380 -0.0029
 3262TIP3    H131201   1.446   4.727   0.962  3.2165  1.6608  0.3242
 3262TIP3    H231202   1.473   4.587   1.012 -0.2629  0.2447 -1.4653
 3263TIP3   OH231203   2.332   1.143  13.586  0.1317  0.2352  1.0240
 3263TIP3    H131204   2.244   1.126  13.551  1.0687  2.2443 -2.8952
 3263TIP3    H231205   2.319   1.212  13.651 -1.3110 -0.5009  1.5646
 3264TIP3   OH231206   5.047   1.746  16.093  0.1391  0.2757  0.3259
 3264TIP3    H131207   5.045   1.809  16.165 -1.6462 -0.5564  1.0725
 3264TIP3    H231208   4.960   1.708  16.093 -0.6498  1.6545 -3.5945
 3265TIP3   OH231209   2.180   0.474  16.273  0.0871  0.5801  0.2685
 3265TIP3    H131210   2.140   0.498  16.190 -0.0008 -1.9934 -0.5316
 3265TIP3    H231211   2.242   0.404  16.250  1.8530  1.4380  2.0680
 3266TIP3   OH231212   2.019   2.223   4.124 -0.5270  0.1677 -0.2249
 3266TIP3    H131213   1.975   2.179   4.197  0.6175 -0.1487  0.2862
 3266TIP3    H231214   2.001   2.316   4.138 -2.1955 -0.0331 -0.8070
 3267TIP3   OH231215   5.589   4.682  11.569  0.2447  0.0003  0.9945
 3267TIP3    H131216   5.535   4.701  11.647  2.3829  0.7095  2.3815
 3267TIP3    H231217   5.525   4.662  11.501 -1.7434 -2.5236  3.3441
 3268TIP3   OH231218   5.330   5.385   1.535 -0.2616  0.0040  0.4608
 3268TIP3    H131219   5.254   5.399   1.479 -0.8193 -3.0541  0.2913
 3268TIP3    H231220   5.293   5.374   1.623  0.0198 -0.6489  0.5079
 3269TIP3   OH231221   0.215   6.565  12.692 -0.2462 -0.0915  0.3170
 3269TIP3    H131222   0.147   6.576  12.626  0.4505  1.3999 -0.1827
 3269TIP3    H231223   0.181   6.609  12.769 -0.0840  0.1909  0.2298
 3270TIP3   OH231224   6.714   0.114   2.646 -0.1220 -0.4018  0.1792
 3270TIP3    H131225   6.681   0.201   2.626  1.4753  0.0863 -0.5232
 3270TIP3    H231226   6.639   0.056   2.634 -0.5052  0.4978 -2.4232
 3271TIP3   OH231227   0.572   4.389  10.623 -0.6854  0.0336  0.6907
 3271TIP3    H131228   0.604   4.340  10.547 -0.2131 -1.0217  1.5360
 3271TIP3    H231229   0.650   4.404  10.677 -1.2802 -0.9135  1.8699
 3272TIP3   OH231230   2.645   6.094   3.822  0.2133  0.4104 -0.3820
 3272TIP3    H131231   2.593   6.072   3.744  1.2874 -0.6270 -0.8438
 3272TIP3    H231232   2.629   6.021   3.882  2.9491 -1.2476 -1.4835
 3273TIP3   OH231233   1.284   1.591   3.280 -0.2053  0.4071 -0.4611
 3273TIP3    H131234   1.287   1.596   3.376 -2.1107  0.7236 -0.3861
 3273TIP3    H231235   1.191   1.591   3.259  0.1879  0.6840 -2.3418
 3274TIP3   OH231236   3.680   0.555   1.343  0.8667 -0.4904  0.2230
 3274TIP3    H131237   3.723   0.484   1.391  1.0489  0.1842  1.0771
 3274TIP3    H231238   3.593   0.520   1.321  0.5944 -0.6329  1.4950
 3275TIP3   OH231239   3.319   2.645  14.500  0.3638 -0.6505  0.0873
 3275TIP3    H131240   3.227   2.640  14.476 -0.0275  0.4175  1.2642
 3275TIP3    H231241   3.365   2.597  14.431 -0.9320  0.0066 -1.2731
 3276TIP3   OH231242   0.991   5.896  13.472 -0.8305  0.0781  0.5083
 3276TIP3    H131243   1.046   5.951  13.417 -1.6180 -0.2608 -0.6483
 3276TIP3    H231244   1.053   5.839  13.518 -0.1826 -0.1288 -0.5826
 3277TIP3   OH231245   6.368   0.659  14.814  0.3555 -0.1006 -0.0133
 3277TIP3    H131246   6.454   0.621  14.826 -0.2882 -1.4036  0.7255
 3277TIP3    H231247   6.366   0.734  14.875  0.8514 -0.2670  0.2066
 3278TIP3   OH231248   2.557   3.608   0.837  0.0586  0.0649 -0.0800
 3278TIP3    H131249   2.642   3.602   0.794 -0.3066 -1.0699 -0.6826
 3278TIP3    H231250   2.494   3.604   0.765 -0.5322  3.5025  0.0745
 3279TIP3   OH231251   5.053   2.716   4.081  0.1717 -0.2025  0.6092
 3279TIP3    H131252   5.068   2.636   4.131  0.3530 -0.5192  0.0559
 3279TIP3    H231253   5.105   2.705   4.002  1.3385  1.0926  1.1523
 3280TIP3   OH231254   3.372   0.488  13.701 -0.1063  0.4934 -0.5988
 3280TIP3    H131255   3.353   0.394  13.698  1.2853 -0.0120  2.3381
 3280TIP3    H231256   3.437   0.502  13.633  1.3927 -1.2183  0.3759
 3281TIP3   OH231257   0.207   6.028  12.353 -0.1592 -0.0019  0.2844
 3281TIP3    H131258   0.212   6.002  12.260 -1.8598  0.3235  0.0726
 3281TIP3    H231259   0.298   6.026  12.383  0.2130 -2.3794 -0.7714
 3282TIP3   OH231260   1.522   0.530   0.338  0.0180 -0.2565  0.0402
 3282TIP3    H131261   1.458   0.600   0.352  0.4629  0.3712 -0.9565
 3282TIP3    H231262   1.520   0.515   0.243  0.9723 -0.5911  0.0638
 3283TIP3   OH231263   3.526   4.945   4.710 -0.3723  0.2327 -0.0369
 3283TIP3    H131264   3.507   4.851   4.706 -0.4226  0.2080  0.6838
 3283TIP3    H231265   3.440   4.986   4.716 -0.3169  0.2823  0.4119
 3284TIP3   OH231266   6.627   1.124  15.197 -0.5291 -0.6770  0.0112
 3284TIP3    H131267   6.562   1.170  15.144 -0.3980 -0.7345 -0.2041
 3284TIP3    H231268   6.693   1.095  15.133  0.6352  0.9192  0.4442
 3285TIP3   OH231269   1.518   4.679  17.371  0.3019 -0.9917  0.3349
 3285TIP3    H131270   1.609   4.649  17.362  0.3652 -0.7304  0.1103
 3285TIP3    H231271   1.479   4.665  17.285  0.9454  1.6296 -0.4763
 3286TIP3   OH231272   3.752   6.353  11.341  0.1752  0.1379  0.0176
 3286TIP3    H131273   3.780   6.385  11.256  1.3430  4.3377  1.7447
 3286TIP3    H231274   3.832   6.323  11.384 -0.3150 -1.3627 -0.0319
 3287TIP3   OH231275   4.431   2.323  14.634 -0.0337  0.4608  0.0871
 3287TIP3    H131276   4.434   2.273  14.716 -0.0233  0.8842  0.3491
 3287TIP3    H231277   4.493   2.278  14.576  1.2078  1.1120  0.8611
 3288TIP3   OH231278   1.929   1.945   5.273  0.1260  0.2408  0.3116
 3288TIP3    H131279   2.024   1.943   5.276  0.1810  1.5623 -0.1558
 3288TIP3    H231280   1.902   1.964   5.362  0.2750 -0.3714  0.4953
 3289TIP3   OH231281   0.409   0.357   0.819  0.8270 -0.4584  0.2569
 3289TIP3    H131282   0.478   0.361   0.753  0.3408 -1.9175 -0.3723
 3289TIP3    H231283   0.373   0.446   0.821  0.0005 -0.6301 -2.4055
 3290TIP3   OH231284   6.275   0.315  14.205  0.5478  0.3345 -0.1850
 3290TIP3    H131285   6.237   0.394  14.243 -1.2418 -0.1934 -0.7595
 3290TIP3    H231286   6.288   0.256  14.279 -1.8481 -0.2697 -0.1727
 3291TIP3   OH231287   1.034   4.061  11.818 -0.2246  0.1094  0.9389
 3291TIP3    H131288   1.125   4.061  11.847 -0.0558 -1.0498  0.4467
 3291TIP3    H231289   1.032   4.000  11.745 -1.4443 -0.0231  1.0687
 3292TIP3   OH231290   6.453   2.035  13.529 -0.0446  0.0859 -0.2741
 3292TIP3    H131291   6.415   2.058  13.445 -0.0041 -2.7697 -1.1748
 3292TIP3    H231292   6.406   1.957  13.557  1.2681 -0.1661  1.4237
 3293TIP3   OH231293   4.967   6.385   0.831 -0.1772  0.4182  0.7474
 3293TIP3    H131294   5.042   6.412   0.778  0.5269 -0.5935  1.2048
 3293TIP3    H231295   4.949   6.295   0.804 -0.8853  0.4644  1.0304
 3294TIP3   OH231296   6.066   5.804  12.410  0.1787 -0.5779  0.3930
 3294TIP3    H131297   6.043   5.720  12.370 -0.4163 -0.4046  0.3646
 3294TIP3    H231298   6.044   5.793  12.503  2.2117 -1.2231  0.8462
 3295TIP3   OH231299   3.092   1.938  14.111  0.2961  0.2592  0.4327
 3295TIP3    H131300   3.080   1.881  14.035  1.5627 -0.1806  0.5447
 3295TIP3    H231301   3.180   1.973  14.101  0.1563  0.8818  1.2529
 3296TIP3   OH231302   6.377   0.000   0.686 -0.2414 -0.1049 -0.7158
 3296TIP3    H131303   6.358  -0.037   0.600  2.7469 -0.5285 -1.3303
 3296TIP3    H231304   6.459   0.048   0.672 -0.7425  1.5028  1.4808
 3297TIP3   OH231305   0.443   3.129  14.814 -0.1701 -0.3804 -0.2078
 3297TIP3    H131306   0.470   3.141  14.905  0.4142  2.0438 -0.6265
 3297TIP3    H231307   0.490   3.051  14.785  2.2625  0.6572  0.6439
 3298TIP3   OH231308   3.905   6.545   6.236  0.2287 -1.0817 -0.0702
 3298TIP3    H131309   3.898   6.484   6.308 -2.6470 -1.0568 -0.2132
 3298TIP3    H231310   3.823   6.534   6.187  1.1124  0.4666 -2.0473
 3299TIP3   OH231311   4.077   6.615  14.824 -0.0083  0.5943  0.0548
 3299TIP3    H131312   3.994   6.611  14.871  0.3761  1.2682  0.8285
 3299TIP3    H231313   4.087   6.708  14.802  1.6336  0.9951  2.0950
 3300TIP3   OH231314   3.798   4.639  13.072  0.0208 -0.1936 -0.0700
 3300TIP3    H131315   3.738   4.672  13.139 -0.7788 -1.7768  0.0579
 3300TIP3    H231316   3.780   4.545  13.069  1.0689 -0.3792 -1.4976
 3301TIP3   OH231317   2.883   1.567   0.290  0.3245 -0.4034 -0.2076
 3301TIP3    H131318   2.805   1.584   0.343  0.3164  0.2379 -0.4203
 3301TIP3    H231319   2.859   1.596   0.202  0.8868  0.0307 -0.2211
 3302TIP3   OH231320   3.887   2.365   5.419  0.6825 -0.0841 -0.4118
 3302TIP3    H131321   3.829   2.291   5.397  0.3695  0.0468 -0.0475
 3302TIP3    H231322   3.832   2.442   5.408  0.6796  0.0202  0.2641
 3303TIP3   OH231323   4.833   1.108  12.377 -0.3133 -0.1480  0.1667
 3303TIP3    H131324   4.816   1.038  12.439  1.7012 -2.5380 -1.7821
 3303TIP3    H231325   4.903   1.160  12.416 -1.5506  0.6256  1.4449
 3304TIP3   OH231326   4.967   3.986   3.754  0.2938 -0.1047  0.1695
 3304TIP3    H131327   4.882   3.969   3.795  0.7572  1.0279  1.6957
 3304TIP3    H231328   5.031   3.956   3.818  1.0751 -0.6644 -0.8388
 3305TIP3   OH231329   3.348   1.006   4.612  0.1830 -0.6221 -0.2865
 3305TIP3    H131330   3.259   1.004   4.647 -0.0471 -0.2313 -0.8333
 3305TIP3    H231331   3.404   1.004   4.689 -0.3039  2.7421  0.3110
 3306TIP3   OH231332   4.591   3.083   4.599  0.0180  0.2080 -0.1807
 3306TIP3    H131333   4.522   3.056   4.660  0.0732 -0.1456 -0.2688
 3306TIP3    H231334   4.651   3.136   4.651  1.1903 -1.7829  0.6278
 3307TIP3   OH231335   1.176   2.463   4.948  0.3617 -0.7231  0.4457
 3307TIP3    H131336   1.162   2.425   4.861  0.1519 -1.2155  0.6902
 3307TIP3    H231337   1.270   2.454   4.963  0.2432 -1.5953  0.7021
 3308TIP3   OH231338   4.643   2.077   3.187  0.2077 -0.1465  0.4050
 3308TIP3    H131339   4.684   2.062   3.273 -0.0346  0.5448  0.6533
 3308TIP3    H231340   4.552   2.097   3.207  0.4946  1.6155  0.1378
 3309TIP3   OH231341   3.803   6.645  12.800 -0.1733 -0.5093 -0.9307
 3309TIP3    H131342   3.894   6.616  12.800  0.1293  0.3656  0.3972
 3309TIP3    H231343   3.794   6.698  12.879 -1.3216  1.0243 -2.0128
 3310TIP3   OH231344   4.172   5.457  17.090 -0.2203  0.4250 -0.5741
 3310TIP3    H131345   4.187   5.453  17.184 -0.3182  0.4986 -0.5543
 3310TIP3    H231346   4.168   5.551  17.070  1.4981  0.4504 -0.9239
 3311TIP3   OH231347   3.677   2.313  14.399  0.1519 -0.2867  0.0764
 3311TIP3    H131348   3.755   2.294  14.451  0.1964 -1.9655 -0.5448
 3311TIP3    H231349   3.709   2.321  14.309  0.0768  2.6053  0.2158
 3312TIP3   OH231350   1.895   4.578  12.883 -0.3724 -0.4972 -0.4015
 3312TIP3    H131351   1.815   4.616  12.846 -0.7548  0.2546  1.1340
 3312TIP3    H231352   1.957   4.576  12.809 -1.8473 -1.3367 -1.6889
 3313TIP3   OH231353   5.409   2.958   1.286  0.4990 -0.5947 -0.3896
 3313TIP3    H131354   5.394   2.998   1.200  0.7591 -1.3012 -0.7702
 3313TIP3    H231355   5.500   2.980   1.306  0.1426  0.4195  0.1676
 3314TIP3   OH231356   1.522   6.188  12.268  0.2487 -0.6234 -0.0262
 3314TIP3    H131357   1.609   6.180  12.228 -0.2552  1.4322 -1.6987
 3314TIP3    H231358   1.504   6.101  12.303  3.7907 -0.6496  2.1716
 3315TIP3   OH231359   6.492   4.303   4.044  0.8818  0.1954 -0.0804
 3315TIP3    H131360   6.407   4.347   4.054  1.1139  0.5411  0.4306
 3315TIP3    H231361   6.546   4.366   3.997  0.4470 -0.5794 -1.6869
 3316TIP3   OH231362   1.119   1.386  16.425  0.1998 -0.0230 -0.0720
 3316TIP3    H131363   1.201   1.423  16.392  0.5758  1.2685  2.1438
 3316TIP3    H231364   1.052   1.427  16.370  0.9329 -0.1180 -1.0827
 3317TIP3   OH231365   5.300   2.486  12.210 -0.0003 -0.3228 -0.4730
 3317TIP3    H131366   5.239   2.519  12.143  0.2075 -0.1101 -0.5615
 3317TIP3    H231367   5.288   2.545  12.284 -0.3548 -0.6622 -0.2530
 3318TIP3   OH231368   4.263   2.770  15.891  0.0814 -0.1095  0.1351
 3318TIP3    H131369   4.309   2.837  15.840  0.1687  1.3914  2.0529
 3318TIP3    H231370   4.330   2.705  15.912  0.2263 -0.3196 -0.9530
 3319TIP3   OH231371   4.943   1.303   2.222  0.4083 -0.1949  0.0699
 3319TIP3    H131372   4.899   1.287   2.139  1.4419 -0.6033 -0.4216
 3319TIP3    H231373   4.997   1.381   2.206  1.6064 -1.0147 -0.0807
 3320TIP3   OH231374   0.477   3.650   1.557 -0.0538  0.0170 -0.0193
 3320TIP3    H131375   0.411   3.710   1.590  1.2541  0.7780  1.3707
 3320TIP3    H231376   0.485   3.671   1.464  0.2395  1.9353  0.3893
 3321TIP3   OH231377   2.810   2.798   5.874  0.2172 -0.3307  0.5331
 3321TIP3    H131378   2.868   2.775   5.947  1.7772 -0.3436 -0.6625
 3321TIP3    H231379   2.828   2.732   5.807 -1.8200 -0.8312  0.4320
 3322TIP3   OH231380   1.739   0.769  12.341  0.3462 -0.0387 -0.0386
 3322TIP3    H131381   1.817   0.714  12.334  0.5697  0.1551  0.7673
 3322TIP3    H231382   1.696   0.740  12.421 -0.1040  0.2473 -0.1701
 3323TIP3   OH231383   4.121   2.954   0.074  0.0202 -0.2260  0.2377
 3323TIP3    H131384   4.156   2.890   0.012  0.3645 -0.2323  0.4359
 3323TIP3    H231385   4.169   3.035   0.055 -0.2507 -0.0887  0.1409
 3324TIP3   OH231386   4.530   6.133   2.128  0.0592 -0.1607  0.1172
 3324TIP3    H131387   4.538   6.213   2.076 -1.2676 -0.3741 -0.4518
 3324TIP3    H231388   4.615   6.124   2.171  0.1161  1.7437  0.4875
 3325TIP3   OH231389   1.532   2.281   0.911  0.4514 -0.1959 -0.1051
 3325TIP3    H131390   1.501   2.191   0.905  1.9983 -0.7291 -0.7813
 3325TIP3    H231391   1.626   2.273   0.926  0.7374  1.2994 -0.8392
 3326TIP3   OH231392   1.482   0.298   4.523  0.2165 -0.1093 -0.1304
 3326TIP3    H131393   1.574   0.307   4.499 -0.6406  2.9402 -2.9594
 3326TIP3    H231394   1.446   0.241   4.455 -0.2630 -0.1075  0.1212
 3327TIP3   OH231395   2.133   3.936  12.371  0.1164  0.5511  0.0922
 3327TIP3    H131396   2.145   4.005  12.306 -2.1248  0.0033 -0.9971
 3327TIP3    H231397   2.088   3.979  12.444 -0.9043  0.3826 -0.4127
 3328TIP3   OH231398   5.052   0.065   0.037  0.3430 -0.4742 -0.4649
 3328TIP3    H131399   5.020  -0.009  -0.015  0.0105  0.1647 -1.1848
 3328TIP3    H231400   4.980   0.128   0.037  1.0927  0.4144 -0.9932
 3329TIP3   OH231401   4.656   1.590  12.495  0.3642  0.3235  0.0557
 3329TIP3    H131402   4.586   1.606  12.558 -0.2613 -1.9272 -0.0096
 3329TIP3    H231403   4.671   1.676  12.455 -2.0701  0.9676  0.3579
 3330TIP3   OH231404   6.539   6.649   2.606 -0.2438 -0.3425 -0.1554
 3330TIP3    H131405   6.444   6.652   2.615 -0.3068  0.6418 -1.0418
 3330TIP3    H231406   6.554   6.638   2.512  0.5183 -0.6249 -0.0072
 3331TIP3   OH231407   2.674   1.126  11.415  0.1025  0.0773  0.4033
 3331TIP3    H131408   2.596   1.100  11.464 -0.0117 -1.1370 -0.3748
 3331TIP3    H231409   2.747   1.104  11.474 -0.0719 -0.5692  0.3904
 3332TIP3   OH231410   3.384   6.239   0.252 -0.4131 -0.2128 -0.7979
 3332TIP3    H131411   3.424   6.241   0.339 -2.1183  0.3219  0.0284
 3332TIP3    H231412   3.404   6.324   0.214 -2.5521  0.9778  0.5296
 3333TIP3   OH231413   5.819   0.169  14.666  0.3292  0.4279  0.0774
 3333TIP3    H131414   5.896   0.123  14.633  0.7391  0.7644  0.5574
 3333TIP3    H231415   5.850   0.256  14.688 -0.0653  0.3883  0.8211
 3334TIP3   OH231416   6.189   0.496   1.466  0.5768  0.4976  0.5146
 3334TIP3    H131417   6.274   0.540   1.464  0.0575  1.4852 -1.1302
 3334TIP3    H231418   6.208   0.408   1.434  0.6816  1.3703 -2.0324
 3335TIP3   OH231419   5.009   1.085  14.663 -0.1146 -0.3839 -0.0052
 3335TIP3    H131420   4.986   1.168  14.706 -0.9546 -1.7295  2.3665
 3335TIP3    H231421   5.027   1.026  14.736  2.6373 -1.7543 -1.6533
 3336TIP3   OH231422   1.034   4.223   3.777  0.1694  0.6673  0.2747
 3336TIP3    H131423   0.991   4.150   3.820  1.7574  1.0888  2.7621
 3336TIP3    H231424   0.962   4.274   3.739 -1.2061 -0.5426  1.1635
 3337TIP3   OH231425   1.504   4.414  14.393  0.4783  0.3808 -0.4211
 3337TIP3    H131426   1.594   4.393  14.371 -0.4425 -0.8127 -3.6143
 3337TIP3    H231427   1.480   4.352  14.462  2.0070  0.6156  0.3556
 3338TIP3   OH231428   1.704   6.700  16.762  0.0088 -0.3584  0.4520
 3338TIP3    H131429   1.623   6.650  16.763  0.8855 -1.8286  1.0674
 3338TIP3    H231430   1.700   6.754  16.841  0.4741 -1.8912  1.5585
 3339TIP3   OH231431   5.655   4.273  14.031  0.5380 -0.1152  0.3291
 3339TIP3    H131432   5.586   4.213  14.006  1.1010 -0.4309 -0.5297
 3339TIP3    H231433   5.619   4.360  14.013 -0.7942 -0.0492  2.8571
 3340TIP3   OH231434   0.949   6.016  12.298  0.0607  0.4136  0.2823
 3340TIP3    H131435   1.005   5.939  12.288 -1.1273 -0.4815  0.3165
 3340TIP3    H231436   0.934   6.046  12.208 -0.6951 -0.3115  0.1564
 3341TIP3   OH231437   5.857   4.018   3.547  0.0175 -0.7436 -0.0821
 3341TIP3    H131438   5.828   4.046   3.460  0.2488  2.2845  0.6919
 3341TIP3    H231439   5.951   4.002   3.538  0.3019  0.8229 -0.1793
 3342TIP3   OH231440   6.125   4.098   0.566 -0.7217  0.0770  0.1099
 3342TIP3    H131441   6.204   4.136   0.526 -0.2535  1.2215  1.9885
 3342TIP3    H231442   6.123   4.008   0.533 -0.1456  0.7991 -2.0686
 3343TIP3   OH231443   4.529   6.452   3.339 -0.2497  0.5254 -0.3946
 3343TIP3    H131444   4.621   6.450   3.364 -0.1877 -1.5053 -0.5778
 3343TIP3    H231445   4.482   6.472   3.420  0.2699 -0.3175  0.1386
 3344TIP3   OH231446   2.777   5.533  10.865  0.0734  0.7542 -0.5328
 3344TIP3    H131447   2.839   5.476  10.821 -0.9530 -0.7572 -0.1021
 3344TIP3    H231448   2.735   5.583  10.794 -1.4037 -1.4869 -1.3480
 3345TIP3   OH231449   5.300   2.391   2.124 -0.2508  0.0039 -0.3265
 3345TIP3    H131450   5.307   2.475   2.171  0.1034 -0.4719  0.4847
 3345TIP3    H231451   5.313   2.415   2.032 -0.8027  0.9332 -0.1801
 3346TIP3   OH231452   1.665   4.599   1.892  0.4824  0.2499  0.1503
 3346TIP3    H131453   1.711   4.524   1.855 -1.1919  0.0200 -1.6139
 3346TIP3    H231454   1.573   4.584   1.872  0.0493  2.5854  0.0595
 3347TIP3   OH231455   5.540   6.081   5.912 -0.0754  0.1167 -0.0441
 3347TIP3    H131456   5.548   5.990   5.940  1.5622  0.6956  1.5309
 3347TIP3    H231457   5.486   6.076   5.833  3.1098 -2.6898 -2.3432
 3348TIP3   OH231458   0.345   6.214   2.755 -0.4431 -0.9188 -0.5233
 3348TIP3    H131459   0.298   6.262   2.686  0.7215 -0.1443 -0.8047
 3348TIP3    H231460   0.303   6.243   2.836 -0.4400 -0.1995 -0.7646
 3349TIP3   OH231461   2.856   4.152  14.679 -0.2793 -0.0353  0.1567
 3349TIP3    H131462   2.872   4.108  14.763 -3.0419 -0.8707  0.3379
 3349TIP3    H231463   2.837   4.242  14.703 -2.2665 -0.5300  0.6408
 3350TIP3   OH231464   5.735   5.963   4.453 -0.6169  0.7580 -0.6843
 3350TIP3    H131465   5.686   5.973   4.534  0.6829  0.1769  0.2165
 3350TIP3    H231466   5.677   5.913   4.396 -1.5913  1.2618 -0.1557
 3351TIP3   OH231467   6.173   2.206  16.512 -0.0485 -0.0317 -0.1291
 3351TIP3    H131468   6.085   2.181  16.541  0.3946 -1.8214 -0.2379
 3351TIP3    H231469   6.198   2.139  16.449  1.1372  0.8484 -0.6375
 3352TIP3   OH231470   1.974   4.252  12.266  0.4009 -0.5491  0.0128
 3352TIP3    H131471   2.049   4.193  12.253  0.7218  0.2445 -2.1601
 3352TIP3    H231472   1.920   4.239  12.188  0.7038  2.3163 -0.7560
 3353TIP3   OH231473   4.521   4.952   0.494 -0.3048 -0.0807 -0.2776
 3353TIP3    H131474   4.483   4.877   0.449 -1.7481  1.6891 -2.2104
 3353TIP3    H231475   4.615   4.947   0.475 -0.5008 -0.9203 -1.0655
 3354TIP3   OH231476   4.656   0.187  15.970  0.3574 -0.5003 -0.6149
 3354TIP3    H131477   4.732   0.236  15.936 -0.2305  1.1338  0.3172
 3354TIP3    H231478   4.580   0.236  15.938 -0.2454 -0.2744  1.0643
 3355TIP3   OH231479   5.564   4.197   5.280  0.3569 -0.2133 -0.6347
 3355TIP3    H131480   5.501   4.137   5.241 -0.1258 -0.4556  0.4839
 3355TIP3    H231481   5.610   4.235   5.206 -1.9382  0.9177 -1.5777
 3356TIP3   OH231482   4.460   0.835   5.218  0.0013 -0.4565 -0.1610
 3356TIP3    H131483   4.389   0.802   5.274 -0.9846 -0.0908 -1.1837
 3356TIP3    H231484   4.472   0.767   5.152  0.5079 -0.4383 -0.0968
 3357TIP3   OH231485   0.694   0.597   2.455 -0.4604 -0.2176 -0.0441
 3357TIP3    H131486   0.671   0.523   2.511 -1.4890  0.0502 -0.0910
 3357TIP3    H231487   0.636   0.667   2.482 -2.2819 -0.5831 -2.5777
 3358TIP3   OH231488   0.109   3.247   4.944 -0.5171 -0.4957 -0.4462
 3358TIP3    H131489   0.104   3.152   4.932  0.3117 -0.9151  2.0520
 3358TIP3    H231490   0.018   3.275   4.956 -0.7967 -0.8948 -1.5350
 3359TIP3   OH231491   2.993   5.206  15.998  0.5214  0.1301  0.0547
 3359TIP3    H131492   3.056   5.264  16.041  1.2446 -0.4686 -0.1804
 3359TIP3    H231493   2.909   5.250  16.010  0.8591  0.5418  1.0873
 3360TIP3   OH231494   3.468   6.190  12.601 -0.4775 -0.4459  0.2210
 3360TIP3    H131495   3.469   6.099  12.630 -1.4234 -0.4544  0.2779
 3360TIP3    H231496   3.545   6.199  12.546 -0.6791 -1.4416 -0.2497
 3361TIP3   OH231497   0.323   4.184   4.865  0.1225  0.3923  0.1384
 3361TIP3    H131498   0.250   4.199   4.925  0.8559  0.1607  1.1139
 3361TIP3    H231499   0.295   4.224   4.783 -1.5425 -0.5934  0.1686
 3362TIP3   OH231500   1.134   2.114   4.995  0.2779  0.2220  0.0462
 3362TIP3    H131501   1.148   2.161   5.077  2.1977 -1.2252  0.5950
 3362TIP3    H231502   1.215   2.126   4.946 -0.5985  0.5197 -1.4103
 3363TIP3   OH231503   3.703   4.947  17.081 -0.1548 -0.3540  0.0558
 3363TIP3    H131504   3.652   4.974  17.158 -1.3271 -1.7027 -0.2081
 3363TIP3    H231505   3.777   5.007  17.079 -0.4410  0.1106  1.8739
 3364TIP3   OH231506   4.719   4.065  17.178  0.3530  0.7184  0.2621
 3364TIP3    H131507   4.625   4.065  17.156  0.5008 -0.2405 -0.4586
 3364TIP3    H231508   4.763   4.052  17.094  1.1370  1.0995  0.6019
 3365TIP3   OH231509   5.401   2.764   4.880  0.0508  0.1560 -0.8277
 3365TIP3    H131510   5.340   2.707   4.833 -2.2000 -0.0558  2.0035
 3365TIP3    H231511   5.351   2.792   4.957  2.8420  1.8555  0.4906
 3366TIP3   OH231512   1.479   5.229  13.557 -0.8286  0.8333 -0.1099
 3366TIP3    H131513   1.403   5.171  13.565  0.4714 -1.1173 -1.3195
 3366TIP3    H231514   1.551   5.181  13.597  0.4880  1.1665 -1.9639
 3367TIP3   OH231515   5.581   0.276  17.349  0.1991  0.5460 -0.0301
 3367TIP3    H131516   5.494   0.282  17.389 -0.3947  0.2345 -1.2244
 3367TIP3    H231517   5.588   0.186  17.319  1.3209  0.3174  0.8680
 3368TIP3   OH231518   1.733   0.560  12.773  0.4183  0.4852 -0.5074
 3368TIP3    H131519   1.680   0.618  12.827  0.8978  1.0427 -0.6262
 3368TIP3    H231520   1.804   0.532  12.831  0.2013  0.0354 -0.4579
 3369TIP3   OH231521   5.410   6.233  11.547 -0.4109 -0.0692 -0.3340
 3369TIP3    H131522   5.458   6.160  11.508 -0.8326  0.0909 -1.1808
 3369TIP3    H231523   5.351   6.192  11.611 -0.4447 -0.4410 -0.6010
 3370TIP3   OH231524   1.197   1.087  11.160 -0.2970  0.6684 -0.2597
 3370TIP3    H131525   1.124   1.125  11.208 -1.5166 -0.9375 -0.7511
 3370TIP3    H231526   1.239   1.029  11.223  0.9432  1.9887  0.1869
 3371TIP3   OH231527   6.726   1.417   3.110  0.4278 -0.0079  0.3404
 3371TIP3    H131528   6.694   1.447   3.025 -2.3697 -0.8023  0.9981
 3371TIP3    H231529   6.774   1.337   3.091  1.3204  0.7274 -0.6245
 3372TIP3   OH231530   6.306   6.268   1.608  0.3974 -0.0946  0.1659
 3372TIP3    H131531   6.326   6.289   1.517  3.0434 -0.3865  0.6033
 3372TIP3    H231532   6.227   6.319   1.627  0.3282  0.7175 -1.9988
 3373TIP3   OH231533   1.567   1.705  12.132 -0.1527 -0.1008 -0.0548
 3373TIP3    H131534   1.544   1.717  12.224 -0.5617 -0.7361 -0.0718
 3373TIP3    H231535   1.574   1.611  12.121 -2.7001 -0.2239 -1.2966
 3374TIP3   OH231536   5.964   2.273   1.424 -0.3352 -0.0858  0.0851
 3374TIP3    H131537   5.940   2.288   1.333  0.0863 -0.0133 -0.0172
 3374TIP3    H231538   5.886   2.233   1.464 -1.6108  2.4792  0.3966
 3375TIP3   OH231539   2.228   4.093   4.744  0.4807  0.1364  0.9367
 3375TIP3    H131540   2.166   4.157   4.779  0.9628  0.7190  0.7315
 3375TIP3    H231541   2.180   4.010   4.745 -0.0102  0.4199  1.5947
 3376TIP3   OH231542   0.318   3.323  13.500 -0.1633  0.0874 -0.1531
 3376TIP3    H131543   0.395   3.374  13.474 -0.0261 -1.0979 -2.2398
 3376TIP3    H231544   0.339   3.292  13.588  2.3814 -1.2944 -1.1255
 3377TIP3   OH231545   4.119   1.219  11.370 -0.0627  0.2080 -0.6532
 3377TIP3    H131546   4.206   1.250  11.347  0.4798 -0.0321  0.8873
 3377TIP3    H231547   4.066   1.298  11.377  1.1216  0.9076  2.5294
 3378TIP3   OH231548   3.371   1.782   1.009 -0.5898  0.1684 -0.0856
 3378TIP3    H131549   3.464   1.802   1.025  0.0925  1.7085 -4.5361
 3378TIP3    H231550   3.327   1.866   1.023 -1.6901 -0.7876  3.0692
 3379TIP3   OH231551   5.653   2.357   3.964 -0.5824  0.3666  0.1666
 3379TIP3    H131552   5.731   2.344   4.017  0.7203 -0.5570 -1.8376
 3379TIP3    H231553   5.618   2.442   3.993 -0.0385 -0.1320  2.4988
 3380TIP3   OH231554   1.889   6.382  15.432  0.4303 -0.0257 -0.1769
 3380TIP3    H131555   1.845   6.342  15.506  1.3951  1.0654  1.0259
 3380TIP3    H231556   1.839   6.352  15.356 -2.0812  0.7016  1.0551
 3381TIP3   OH231557   6.559   1.198   1.856  0.1741  0.3970  0.0377
 3381TIP3    H131558   6.597   1.110   1.849  0.6296  0.6443 -0.7390
 3381TIP3    H231559   6.535   1.206   1.948 -2.2084 -1.4854 -0.3174
 3382TIP3   OH231560   0.862   5.415   3.505 -0.2355  0.8173  0.4217
 3382TIP3    H131561   0.898   5.504   3.510  2.9314 -0.2910 -0.1455
 3382TIP3    H231562   0.881   5.377   3.591 -0.6188  0.3697  0.3103
 3383TIP3   OH231563   3.829   4.658  12.431  0.2195 -0.8202 -0.0691
 3383TIP3    H131564   3.770   4.685  12.360 -0.2419 -0.0780  0.5845
 3383TIP3    H231565   3.915   4.652  12.389 -0.2270 -1.4374 -0.9206
 3384TIP3   OH231566   5.313   0.705   0.545  0.3294  0.0090  0.7581
 3384TIP3    H131567   5.256   0.741   0.476  0.4327 -1.3091 -0.0471
 3384TIP3    H231568   5.375   0.776   0.564  0.2235  0.4410 -0.4305
 3385TIP3   OH231569   5.396   3.440   1.799  0.0042 -0.0049  0.4329
 3385TIP3    H131570   5.304   3.440   1.828 -0.7168  1.4000 -1.6142
 3385TIP3    H231571   5.392   3.413   1.707  1.4811  1.3916 -0.0781
 3386TIP3   OH231572   3.234   1.664   3.741  0.5773  0.3450 -0.1503
 3386TIP3    H131573   3.146   1.686   3.710  0.8311  0.1743 -1.0339
 3386TIP3    H231574   3.238   1.569   3.734  1.0658  0.4053 -0.7910
 3387TIP3   OH231575   2.042   1.001  14.737  0.5369 -0.1799 -0.0902
 3387TIP3    H131576   2.009   1.030  14.653  0.5593 -0.6790 -0.2743
 3387TIP3    H231577   2.029   0.906  14.737  0.8958 -0.2343  0.3043
 3388TIP3   OH231578   4.443   3.736   2.984 -0.6013 -0.0492 -0.6436
 3388TIP3    H131579   4.453   3.709   3.075  0.2255  1.9024 -0.0893
 3388TIP3    H231580   4.485   3.667   2.933  1.8908  0.3646  0.6816
 3389TIP3   OH231581   6.008   3.200   2.415  0.2873 -0.2577 -0.2125
 3389TIP3    H131582   5.944   3.206   2.344 -0.5578 -1.7306  0.3764
 3389TIP3    H231583   5.966   3.144   2.480  1.5032  0.1366  0.9576
 3390TIP3   OH231584   5.532   3.912   4.028  0.2411 -0.5036  0.7647
 3390TIP3    H131585   5.556   4.004   4.040  1.6509 -0.6224 -0.7520
 3390TIP3    H231586   5.451   3.914   3.978 -0.1446 -0.0949  1.3959
 3391TIP3   OH231587   0.324   0.070  13.383 -0.2977  0.1083 -0.1015
 3391TIP3    H131588   0.413   0.092  13.355 -0.8154  0.5282 -1.5296
 3391TIP3    H231589   0.269   0.091  13.307 -1.4190 -1.7170  0.1485
 3392TIP3   OH231590   5.814   3.951   1.409 -0.3992  0.1849  0.1229
 3392TIP3    H131591   5.762   3.977   1.485  0.1449 -0.7773  0.8433
 3392TIP3    H231592   5.825   4.032   1.359  0.4084  1.1633  1.7834
 3393TIP3   OH231593   6.213   0.938   3.098  0.4207 -0.1941 -0.4008
 3393TIP3    H131594   6.231   1.031   3.086 -2.2825  0.2651 -1.5145
 3393TIP3    H231595   6.286   0.893   3.055  1.7487  1.3646  0.1356
 3394TIP3   OH231596   5.020   2.921   2.740  0.5085 -0.6084 -0.6055
 3394TIP3    H131597   4.926   2.930   2.760  0.2709 -1.3128 -1.3084
 3394TIP3    H231598   5.062   2.993   2.786 -0.2067 -1.1341  0.9296
 3395TIP3   OH231599   6.529   2.599   5.111  0.7137 -0.0973 -0.1396
 3395TIP3    H131600   6.612   2.631   5.076  0.7647 -0.2264 -0.1407
 3395TIP3    H231601   6.481   2.677   5.138  0.9029 -0.0329  0.0102
 3396TIP3   OH231602   5.348   0.541   1.265  0.2085  0.1355  0.0833
 3396TIP3    H131603   5.254   0.548   1.278  0.1930  0.7290 -0.3450
 3396TIP3    H231604   5.369   0.450   1.289 -0.4478  0.0378  0.2923
 3397TIP3   OH231605   1.982   2.736   2.962 -0.1359 -0.4172 -0.0811
 3397TIP3    H131606   2.047   2.732   2.893 -2.7551 -1.0798 -2.6957
 3397TIP3    H231607   2.002   2.817   3.010  2.8256 -0.8700 -0.3972
 3398TIP3   OH231608   4.988   0.142   2.082 -0.3490  0.2216 -0.4105
 3398TIP3    H131609   5.051   0.128   2.153 -1.6802  0.1140  0.7916
 3398TIP3    H231610   5.042   0.161   2.005  1.1290  0.3249  0.6194
 3399TIP3   OH231611   5.533   1.294  14.754  0.2892 -0.2565  0.6059
 3399TIP3    H131612   5.532   1.360  14.823 -1.2222 -0.7575  1.1096
 3399TIP3    H231613   5.456   1.314  14.701  1.0021 -0.3530 -0.4878
 3400TIP3   OH231614   1.569   1.946   4.888  0.0435  0.7845 -0.3173
 3400TIP3    H131615   1.543   1.887   4.959 -1.9978 -0.2300 -1.8426
 3400TIP3    H231616   1.489   1.990   4.862  1.2898  3.4021 -0.0807
 3401TIP3   OH231617   3.342   0.392   0.882  0.3306 -0.0580  0.1666
 3401TIP3    H131618   3.377   0.473   0.920 -1.9719  0.1888  2.0241
 3401TIP3    H231619   3.331   0.412   0.789 -0.2769  1.8606  0.5939
 3402TIP3   OH231620   5.384   3.950   5.214 -0.7914 -0.4040  0.0814
 3402TIP3    H131621   5.460   3.894   5.226 -0.9748 -1.0841 -1.6129
 3402TIP3    H231622   5.382   3.969   5.120 -2.9305 -0.7592 -0.0039
 3403TIP3   OH231623   1.358   0.890  12.689  0.0792 -0.2095  0.1359
 3403TIP3    H131624   1.430   0.953  12.685  0.1671 -0.2288  1.1752
 3403TIP3    H231625   1.296   0.920  12.623 -0.5939  1.8820  1.5962
 3404TIP3   OH231626   6.400   2.878  11.331 -0.6258 -0.1726 -0.1160
 3404TIP3    H131627   6.385   2.923  11.249  0.6855  0.7292  0.1138
 3404TIP3    H231628   6.318   2.889  11.380 -0.6860  1.0631 -0.4771
 3405TIP3   OH231629   4.392   3.322   3.640  0.5814 -0.2145  0.4898
 3405TIP3    H131630   4.477   3.364   3.626  1.0097 -0.8409  1.1220
 3405TIP3    H231631   4.411   3.250   3.700 -0.0920 -1.4285 -0.6815
 3406TIP3   OH231632   5.343   2.927  14.023 -0.0882  0.6248  0.6819
 3406TIP3    H131633   5.437   2.942  14.026 -0.1525  0.8442  2.2827
 3406TIP3    H231634   5.305   3.015  14.022 -0.2991  0.5360  0.1780
 3407TIP3   OH231635   5.132   4.886   0.360 -0.4002  0.1908 -0.4590
 3407TIP3    H131636   5.112   4.909   0.451  1.5946  1.0611 -0.1912
 3407TIP3    H231637   5.057   4.918   0.310 -0.2837  2.2532  0.5827
 3408TIP3   OH231638   4.230   0.636   2.133 -0.1649  0.3760  0.5194
 3408TIP3    H131639   4.182   0.714   2.105  0.3676  0.2502 -0.7847
 3408TIP3    H231640   4.250   0.589   2.052  0.0614 -0.8061  1.2398
 3409TIP3   OH231641   0.578   6.185   0.014  0.6043 -0.4802 -0.6078
 3409TIP3    H131642   0.558   6.102  -0.029 -1.5320 -1.8297  2.6250
 3409TIP3    H231643   0.508   6.244  -0.015  0.0050 -0.9463 -0.1416
 3410TIP3   OH231644   5.316   3.498   6.273 -0.1965  0.4123  0.3577
 3410TIP3    H131645   5.305   3.489   6.178 -2.0428  0.2204  0.5629
 3410TIP3    H231646   5.343   3.411   6.302 -0.9462  0.1051  0.1633
 3411TIP3   OH231647   4.063   5.548  11.255 -0.1818  0.5661 -0.2957
 3411TIP3    H131648   4.081   5.600  11.177 -0.6467  1.0066 -0.1180
 3411TIP3    H231649   4.139   5.491  11.264 -0.7335 -0.4725 -1.8492
 3412TIP3   OH231650   2.311   0.952  13.966  0.2953  0.7766  0.2830
 3412TIP3    H131651   2.296   0.877  14.023 -1.0603  1.4738  0.9023
 3412TIP3    H231652   2.406   0.956  13.956  0.4358 -0.5301  0.8960
 3413TIP3   OH231653   6.402   5.544  14.588  0.3124 -0.2699  0.0409
 3413TIP3    H131654   6.490   5.528  14.554  0.0785 -1.7972  0.1059
 3413TIP3    H231655   6.398   5.639  14.601  1.2104  0.0951 -1.9949
 3414TIP3   OH231656   0.725   4.321   4.750  0.3275 -0.3362  0.1337
 3414TIP3    H131657   0.803   4.280   4.789  0.0020  0.0685  1.2497
 3414TIP3    H231658   0.704   4.393   4.809 -1.9838 -1.5278  0.9041
 3415TIP3   OH231659   5.825   2.969   5.669  0.3338 -0.0406 -0.7023
 3415TIP3    H131660   5.879   3.035   5.712 -1.8424  0.5927  1.2945
 3415TIP3    H231661   5.759   2.946   5.735  1.9575 -5.5807 -0.5703
 3416TIP3   OH231662   4.653   5.834  17.213 -0.0141  0.7683  0.0426
 3416TIP3    H131663   4.647   5.928  17.194 -0.7567  0.5518 -0.8291
 3416TIP3    H231664   4.744   5.812  17.192  0.1461  1.2715  0.1857
 3417TIP3   OH231665   1.828   6.092  14.252 -0.2912 -0.6808  0.0116
 3417TIP3    H131666   1.745   6.139  14.246 -0.4131 -1.0860 -2.5280
 3417TIP3    H231667   1.863   6.117  14.337 -1.4749  2.0621 -0.1910
 3418TIP3   OH231668   6.639   0.178   4.477 -0.0972  0.0351  0.1988
 3418TIP3    H131669   6.666   0.123   4.404  0.0237  0.9079 -0.4244
 3418TIP3    H231670   6.559   0.137   4.509  0.2434 -0.7643  0.0419
 3419TIP3   OH231671   0.941   5.655   3.616  0.0269 -0.0182 -0.1399
 3419TIP3    H131672   0.868   5.713   3.632  1.9146  2.6680 -0.6535
 3419TIP3    H231673   0.970   5.627   3.703 -0.4326  0.4559  0.1646
 3420TIP3   OH231674   6.500   6.395  13.010  0.2590  0.4650  0.0478
 3420TIP3    H131675   6.573   6.422  12.955  0.5735 -0.4771 -0.0217
 3420TIP3    H231676   6.532   6.405  13.100  0.6850 -0.4560  0.0125
 3421TIP3   OH231677   0.518   2.709   3.265 -0.0795 -0.2911  0.3193
 3421TIP3    H131678   0.566   2.764   3.327  0.0942 -0.4820  0.3581
 3421TIP3    H231679   0.587   2.666   3.213 -0.1837 -1.0060  0.7571
 3422TIP3   OH231680   2.966   3.270   5.339  0.6096 -0.5792  0.4042
 3422TIP3    H131681   3.019   3.349   5.341  0.4932 -0.5073  0.8159
 3422TIP3    H231682   3.027   3.200   5.319  0.9421 -0.5556  1.2798
 3423TIP3   OH231683   4.053   6.373   5.745  0.1056 -0.1185 -0.0501
 3423TIP3    H131684   4.017   6.374   5.834  0.1700  1.4611 -0.0112
 3423TIP3    H231685   4.144   6.347   5.757  0.2895  0.7147  0.4424
 3424TIP3   OH231686   2.705   5.282   1.976 -0.0167 -0.6351  0.3139
 3424TIP3    H131687   2.633   5.223   1.950 -1.0423  0.4084  0.6917
 3424TIP3    H231688   2.688   5.301   2.068  0.8607 -0.5227  0.4523
 3425TIP3   OH231689   2.087   0.317   0.741 -0.1319 -1.0846 -0.8450
 3425TIP3    H131690   2.133   0.334   0.824  0.0666 -0.7935 -1.0121
 3425TIP3    H231691   2.126   0.235   0.709 -0.9242 -1.7550 -0.1553
 3426TIP3   OH231692   5.808   4.655   0.158  0.5372  0.0381  0.0456
 3426TIP3    H131693   5.808   4.573   0.108  0.7615 -0.1785  0.4015
 3426TIP3    H231694   5.717   4.665   0.188  0.2715  0.4521 -0.8625
 3427TIP3   OH231695   4.963   3.527   3.922 -0.6131  0.1685 -0.3406
 3427TIP3    H131696   4.969   3.494   4.011 -0.4174 -0.0217 -0.4248
 3427TIP3    H231697   5.005   3.461   3.868 -0.0081  0.6631 -0.4874
 3428TIP3   OH231698   5.972   5.028   6.376  0.9444  0.2517 -0.5775
 3428TIP3    H131699   5.982   5.008   6.470  2.3916 -0.0886 -0.7720
 3428TIP3    H231700   5.916   4.958   6.343  0.0646  0.6136  0.0991
 3429TIP3   OH231701   2.748   6.573   3.114 -0.3553  0.7485  0.2658
 3429TIP3    H131702   2.717   6.650   3.066 -0.6717 -0.3344 -1.3376
 3429TIP3    H231703   2.800   6.524   3.051 -3.6987 -2.5937 -0.2949
 3430TIP3   OH231704   2.733   2.188   0.525 -0.2045  0.3208  0.1185
 3430TIP3    H131705   2.820   2.181   0.485 -0.3878  2.8252 -0.9161
 3430TIP3    H231706   2.684   2.115   0.488  1.7250 -1.9195  1.6915
 3431TIP3   OH231707   5.979   0.903   1.627 -0.9176 -0.7155  0.9935
 3431TIP3    H131708   6.074   0.904   1.637 -1.0042  1.7799  2.3646
 3431TIP3    H231709   5.962   0.828   1.570  2.1485  0.8547 -2.3313
 3432TIP3   OH231710   2.412   2.572   4.739  0.0470  0.5767  0.3671
 3432TIP3    H131711   2.388   2.654   4.695  0.9639  1.0084  0.6408
 3432TIP3    H231712   2.499   2.551   4.705 -0.2476 -0.3837  0.1783
 3433TIP3   OH231713   3.912   4.540   2.135 -0.3652  0.2254  0.6488
 3433TIP3    H131714   3.867   4.536   2.050  2.8120 -0.4084 -1.1817
 3433TIP3    H231715   3.900   4.630   2.164 -0.9257  0.6612 -0.8401
 3434TIP3   OH231716   1.447   2.149  14.795  0.1265  0.0724  0.2024
 3434TIP3    H131717   1.454   2.066  14.843 -2.0552 -0.6889 -0.6449
 3434TIP3    H231718   1.410   2.124  14.710  0.0299  1.8443 -0.3159
 3435TIP3   OH231719   3.958   3.484  15.990 -0.2527 -0.0329  0.2742
 3435TIP3    H131720   4.012   3.453  15.917  0.2771  1.5673 -0.0541
 3435TIP3    H231721   3.874   3.507  15.950  0.0741  0.9485  0.1193
 3436TIP3   OH231722   4.391   0.996   1.309 -0.2505 -0.6562  0.3469
 3436TIP3    H131723   4.301   1.003   1.342  0.3667 -1.7792  2.4095
 3436TIP3    H231724   4.442   1.054   1.367  0.7205 -1.9161  0.7864
 3437TIP3   OH231725   6.317   2.761  11.883 -0.4604  0.2443 -0.0494
 3437TIP3    H131726   6.389   2.765  11.821 -0.2114  0.4809  0.2505
 3437TIP3    H231727   6.348   2.811  11.959 -0.2109 -1.1801  0.8325
 3438TIP3   OH231728   2.948   0.206  14.982 -0.0679 -0.0367 -0.0931
 3438TIP3    H131729   2.958   0.300  14.966 -0.0809 -0.0565 -0.2173
 3438TIP3    H231730   3.028   0.181  15.029 -0.5171  0.2369  0.8469
 3439TIP3   OH231731   4.443   3.074   3.783  0.0476  0.1957  0.1223
 3439TIP3    H131732   4.487   3.059   3.699 -0.8914  2.6203 -0.9146
 3439TIP3    H231733   4.510   3.056   3.849  0.7843 -1.8458 -1.1147
 3440TIP3   OH231734   2.387   6.024  16.285 -0.7085  0.1857  0.1460
 3440TIP3    H131735   2.322   6.040  16.353  0.0537  3.6955  0.2733
 3440TIP3    H231736   2.368   6.089  16.218 -0.6245 -2.2995 -2.4760
 3441TIP3   OH231737   5.909   1.177  16.086  0.0506 -0.3667  0.0169
 3441TIP3    H131738   5.986   1.156  16.034  0.0896 -0.5272  0.1366
 3441TIP3    H231739   5.888   1.096  16.132  1.7674  0.4825  2.5348
 3442TIP3   OH231740   1.266   1.657   3.023  0.7789 -0.2839 -0.5642
 3442TIP3    H131741   1.282   1.643   3.116 -0.3511  0.1784 -0.2875
 3442TIP3    H231742   1.202   1.728   3.020  1.4426  0.2875 -1.7251
 3443TIP3   OH231743   6.225   3.622  13.102  0.2665  0.5014 -0.6364
 3443TIP3    H131744   6.164   3.632  13.029 -0.3373 -0.0021 -0.2080
 3443TIP3    H231745   6.287   3.554  13.073 -0.9409 -0.9036 -0.0777
 3444TIP3   OH231746   0.200   3.061   4.434 -0.1339 -0.3141 -0.5885
 3444TIP3    H131747   0.154   3.134   4.394 -0.3966 -1.1450 -1.8555
 3444TIP3    H231748   0.188   3.074   4.528  0.4411  1.6554 -0.7353
 3445TIP3   OH231749   4.696   0.381   6.189  0.2865  0.1146  0.4991
 3445TIP3    H131750   4.617   0.433   6.203 -0.2543 -0.3667 -0.7168
 3445TIP3    H231751   4.712   0.339   6.273 -0.2549  0.8846  1.0004
 3446TIP3   OH231752   0.444   6.473  14.963  0.3701 -0.3642  0.4122
 3446TIP3    H131753   0.351   6.468  14.989  0.2864 -0.4099  0.1085
 3446TIP3    H231754   0.446   6.539  14.894  0.5676 -0.3512  0.4303
 3447TIP3   OH231755   4.865   6.452  10.682 -0.4245  1.4256  0.1854
 3447TIP3    H131756   4.771   6.431  10.685 -0.0472 -1.2749 -2.2829
 3447TIP3    H231757   4.881   6.473  10.590  1.9944 -2.2839 -0.4645
 3448TIP3   OH231758   4.350   6.157  15.887  0.5563  0.2185 -0.2137
 3448TIP3    H131759   4.333   6.192  15.975  2.7684  0.8752  0.0277
 3448TIP3    H231760   4.334   6.230  15.828 -0.4608 -0.0847 -0.3311
 3449TIP3   OH231761   4.461   0.511   6.172 -0.0298 -0.0124 -0.1303
 3449TIP3    H131762   4.488   0.576   6.238 -0.7965 -0.5095  0.6865
 3449TIP3    H231763   4.366   0.514   6.173 -0.0797 -1.2957  0.0624
 3450TIP3   OH231764   6.548   2.621  16.540 -0.2585  0.9003  0.1005
 3450TIP3    H131765   6.570   2.567  16.616 -1.0820  0.2934 -0.0719
 3450TIP3    H231766   6.550   2.711  16.573 -2.3156  0.5797  1.3346
 3451TIP3   OH231767   6.750   0.669  12.836  0.4541  0.1216  0.0299
 3451TIP3    H131768   6.805   0.744  12.859 -2.4435  1.6785  2.5355
 3451TIP3    H231769   6.750   0.614  12.914 -0.7187 -0.3888 -0.3058
 3452TIP3   OH231770   0.211   6.342  14.087 -0.0460  0.1224  0.9990
 3452TIP3    H131771   0.119   6.366  14.099 -0.5278 -0.4036 -1.2313
 3452TIP3    H231772   0.210   6.277  14.017  2.1223  1.0604  0.0125
 3453TIP3   OH231773   5.444   3.103  13.624  0.1117  0.4041 -0.1769
 3453TIP3    H131774   5.377   3.171  13.629  0.3025  0.5413  0.5367
 3453TIP3    H231775   5.397   3.021  13.644  0.0039  0.4003 -0.4411
 3454TIP3   OH231776   6.190   4.806  14.599 -0.3295 -0.0858 -0.1531
 3454TIP3    H131777   6.241   4.870  14.649  0.4109 -2.0623  1.7763
 3454TIP3    H231778   6.126   4.858  14.551  1.7031  2.2742 -0.5113
 3455TIP3   OH231779   1.425   5.636  11.230 -0.0261 -0.6734  0.4137
 3455TIP3    H131780   1.482   5.662  11.303 -0.9907 -0.0415  0.9597
 3455TIP3    H231781   1.481   5.642  11.153  0.6024  0.1294  0.9114
 3456TIP3   OH231782   3.968   2.850   3.669  0.1596 -0.5380 -0.1088
 3456TIP3    H131783   4.062   2.831   3.669  0.4107  0.6035  1.0629
 3456TIP3    H231784   3.960   2.933   3.715 -1.3859 -0.3434 -0.6815
 3457TIP3   OH231785   0.797   5.027   4.051 -0.5989 -0.1620  0.3069
 3457TIP3    H131786   0.705   5.017   4.073 -0.6651 -0.1353  0.0448
 3457TIP3    H231787   0.835   5.075   4.126 -0.9321  0.3941  0.1267
 3458TIP3   OH231788   1.095   3.954   2.751  0.4356 -0.2740  0.1288
 3458TIP3    H131789   1.085   3.887   2.818  1.0095  0.7220  1.2512
 3458TIP3    H231790   1.142   4.025   2.795  1.5472  0.0913 -1.5552
 3459TIP3   OH231791   4.368   3.297  15.839 -0.0198 -0.1825 -0.4775
 3459TIP3    H131792   4.320   3.215  15.828  0.0487 -0.6294  2.0013
 3459TIP3    H231793   4.460   3.271  15.837  0.1309  0.2944 -2.4554
 3460TIP3   OH231794   5.049   2.494  13.842 -0.1522  0.2255  0.0238
 3460TIP3    H131795   4.991   2.427  13.804 -1.2580  0.7400  0.7761
 3460TIP3    H231796   5.045   2.479  13.936  0.0270  1.0046  0.1615
 3461TIP3   OH231797   6.038   3.241  11.564 -0.6724 -0.0822 -0.6485
 3461TIP3    H131798   6.069   3.169  11.510 -1.1070 -0.0986 -0.8813
 3461TIP3    H231799   5.989   3.297  11.504 -1.1445 -0.0891 -0.2786
 3462TIP3   OH231800   5.032   1.792   3.851 -0.0034 -0.6262 -0.2096
 3462TIP3    H131801   5.071   1.764   3.934  3.0218  2.8789 -0.1631
 3462TIP3    H231802   4.980   1.868   3.873  0.0682 -0.2109 -1.3961
 3463TIP3   OH231803   5.154   2.152  14.409  0.7053 -0.0540 -0.3375
 3463TIP3    H131804   5.220   2.083  14.404  3.1170  2.1570 -1.2430
 3463TIP3    H231805   5.112   2.152  14.323  0.8808 -0.2050 -0.4230
 3464TIP3   OH231806   3.204   6.039   3.161  0.1929 -0.4425  0.5511
 3464TIP3    H131807   3.175   6.080   3.242  0.5987  0.5621  0.2027
 3464TIP3    H231808   3.269   5.974   3.188 -0.2549 -0.6721  1.0869
 3465TIP3   OH231809   2.221   4.457  13.490  0.2495  0.3218  0.5295
 3465TIP3    H131810   2.217   4.535  13.434 -0.3201 -0.0823  0.0086
 3465TIP3    H231811   2.315   4.440  13.499  0.3405 -0.0625 -0.9299
 3466TIP3   OH231812   2.993   6.612  16.753  0.0585 -0.0460  0.1296
 3466TIP3    H131813   3.087   6.610  16.769  0.0727 -0.3382  0.0088
 3466TIP3    H231814   2.959   6.672  16.820  0.2765 -0.2747  0.4517
 3467TIP3   OH231815   0.023   3.211   1.126 -0.1724  0.2417 -0.6054
 3467TIP3    H131816  -0.062   3.184   1.161 -0.2942  1.5754  0.2164
 3467TIP3    H231817   0.003   3.263   1.048 -0.5097  3.9968  1.7156
 3468TIP3   OH231818   1.603   4.130  13.001 -0.1846  0.0758  0.3907
 3468TIP3    H131819   1.525   4.171  13.039  0.5232  2.6294 -0.6522
 3468TIP3    H231820   1.669   4.200  12.999  1.1958 -1.1492 -1.4128
 3469TIP3   OH231821   0.573   5.311   3.754 -0.0489  0.2263 -0.0427
 3469TIP3    H131822   0.516   5.385   3.734  1.4294  0.9661 -1.8698
 3469TIP3    H231823   0.590   5.271   3.669 -0.2894 -1.8540  0.8328
 3470TIP3   OH231824   0.859   1.808  12.858 -0.4776  0.1117  0.0338
 3470TIP3    H131825   0.780   1.854  12.887 -0.7231  0.0939 -0.6021
 3470TIP3    H231826   0.827   1.731  12.811 -0.0906  0.5248 -0.9178
 3471TIP3   OH231827   0.120   5.034  12.241 -0.3565 -0.1895  0.0752
 3471TIP3    H131828   0.050   4.969  12.247 -0.0961 -0.6012 -1.0985
 3471TIP3    H231829   0.122   5.059  12.148  1.6356 -0.8767 -0.1131
 3472TIP3   OH231830   4.856   3.748   5.799  0.2445  0.3690  0.1132
 3472TIP3    H131831   4.872   3.823   5.855  1.4577 -0.1324  0.4799
 3472TIP3    H231832   4.944   3.716   5.776 -0.2349  0.1135 -1.4608
 3473TIP3   OH231833   6.660   5.344  17.023 -0.3922 -0.5778  0.1295
 3473TIP3    H131834   6.753   5.352  17.001 -0.3547 -0.2046  0.4116
 3473TIP3    H231835   6.619   5.421  16.984 -0.6921 -1.0610 -0.5335
 3474TIP3   OH231836   2.593   0.355  13.739  0.0059 -0.1540  0.2490
 3474TIP3    H131837   2.505   0.364  13.776 -0.2015 -0.3526 -0.1836
 3474TIP3    H231838   2.578   0.323  13.650  0.5906 -2.6872  0.9634
 3475TIP3   OH231839   2.485   5.112   5.091 -0.4050 -0.1728 -0.4049
 3475TIP3    H131840   2.476   5.030   5.139  1.8626 -0.5689 -0.5781
 3475TIP3    H231841   2.579   5.124   5.080 -0.7123  1.9846 -1.2137
 3476TIP3   OH231842   1.876   5.896   3.174 -0.0093 -0.0288 -0.2702
 3476TIP3    H131843   1.943   5.842   3.216  0.4889  0.8539  0.0809
 3476TIP3    H231844   1.805   5.835   3.156  0.7489 -0.9176 -0.3563
 3477TIP3   OH231845   3.203   6.294  15.647  0.0243 -0.0188  0.3515
 3477TIP3    H131846   3.281   6.350  15.641  0.4608 -0.5248  1.2011
 3477TIP3    H231847   3.229   6.221  15.703 -0.7840 -0.6751 -0.0978
 3478TIP3   OH231848   2.821   0.188  12.027 -0.1878  0.0572 -0.6278
 3478TIP3    H131849   2.901   0.239  12.011 -0.7691  0.6534 -1.7821
 3478TIP3    H231850   2.852   0.108  12.069  1.2915 -0.6259 -2.8221
 3479TIP3   OH231851   5.307   5.216   0.193  0.2455  0.5086  0.1372
 3479TIP3    H131852   5.315   5.229   0.288  0.7769  0.9208  0.0410
 3479TIP3    H231853   5.279   5.125   0.183  3.3593 -0.5993  0.5793
 3480TIP3   OH231854   5.716   1.761  17.091 -0.1241 -0.2599 -1.0011
 3480TIP3    H131855   5.721   1.665  17.096  1.3723 -0.2250 -1.1698
 3480TIP3    H231856   5.730   1.791  17.181 -0.2850 -0.2024 -0.9960
 3481TIP3   OH231857   1.436   6.442  15.153 -0.2001  0.2185 -0.5787
 3481TIP3    H131858   1.418   6.527  15.193 -0.0482  0.3040 -0.6905
 3481TIP3    H231859   1.384   6.380  15.204  0.9718  0.1429  0.5918
 3482TIP3   OH231860   1.564   4.165  12.343 -0.3856 -0.2510  0.2701
 3482TIP3    H131861   1.516   4.243  12.369 -1.7188 -0.5698 -1.0913
 3482TIP3    H231862   1.534   4.097  12.402 -2.7698 -0.7794 -1.4179
 3483TIP3   OH231863   1.317   3.453  16.881  0.2098 -0.4972  0.6965
 3483TIP3    H131864   1.314   3.514  16.955  1.6705 -0.4648  0.7574
 3483TIP3    H231865   1.293   3.507  16.805 -0.2761 -0.2854  0.9967
 3484TIP3   OH231866   1.417   3.932  14.594  0.0399 -0.0172 -0.0925
 3484TIP3    H131867   1.468   3.880  14.532 -1.3645 -0.0720 -1.2668
 3484TIP3    H231868   1.330   3.937  14.555 -1.0752 -0.5113  2.1445
 3485TIP3   OH231869   5.625   2.687  11.183 -0.0837 -0.0421  0.1015
 3485TIP3    H131870   5.677   2.666  11.261  0.3143  0.8417  0.0823
 3485TIP3    H231871   5.605   2.601  11.145 -3.3133 -0.8250  3.0533
 3486TIP3   OH231872   4.791   6.076   4.448 -0.2733  0.1403 -0.2594
 3486TIP3    H131873   4.864   6.016   4.460 -0.9993 -0.6348  0.4763
 3486TIP3    H231874   4.714   6.019   4.438 -1.1720  0.8987  1.6977
 3487TIP3   OH231875   5.710   1.322  12.848  0.2255 -0.6250 -0.7560
 3487TIP3    H131876   5.796   1.318  12.891  0.4327  0.5867 -1.0314
 3487TIP3    H231877   5.726   1.285  12.761  0.7894  0.7202 -1.2585
 3488TIP3   OH231878   3.946   3.673   4.756  0.3577  0.1459  0.4635
 3488TIP3    H131879   3.944   3.748   4.816  0.9037  0.8504 -0.3764
 3488TIP3    H231880   4.032   3.634   4.770  1.3302  1.5213 -1.2596
 3489TIP3   OH231881   2.750   5.574  14.402 -0.1235 -0.3842  0.2025
 3489TIP3    H131882   2.716   5.547  14.487  0.1029 -0.5554  0.2402
 3489TIP3    H231883   2.730   5.668  14.397 -0.8418 -0.5349  0.1010
 3490TIP3   OH231884   3.418   2.471   0.026  0.2911  0.2451 -0.0272
 3490TIP3    H131885   3.501   2.429   0.046 -0.5595 -1.4893  0.0689
 3490TIP3    H231886   3.430   2.563   0.051  1.4674 -0.4133  1.9852
 3491TIP3   OH231887   0.482   5.552  14.815  0.2130 -0.0353  0.5067
 3491TIP3    H131888   0.529   5.557  14.898 -1.0136 -1.6043  1.3506
 3491TIP3    H231889   0.391   5.571  14.838 -0.0985 -0.2042 -0.5231
 3492TIP3   OH231890   2.467   4.892  11.555 -0.0522 -0.3181 -0.0814
 3492TIP3    H131891   2.406   4.859  11.621 -1.1192  1.7131  0.0329
 3492TIP3    H231892   2.472   4.986  11.572  2.3953 -0.2523 -0.7037
 3493TIP3   OH231893   6.189   3.866   4.648 -0.7000  0.0829  0.0017
 3493TIP3    H131894   6.162   3.811   4.721  0.0662  2.1819  2.0083
 3493TIP3    H231895   6.109   3.883   4.599 -1.4609 -0.4455  1.0319
 3494TIP3   OH231896   2.286   0.943  15.707  0.3306  0.2662  0.0421
 3494TIP3    H131897   2.213   0.997  15.737 -0.2248  0.5529 -1.7483
 3494TIP3    H231898   2.295   0.963  15.614  0.5428 -2.1980 -0.5493
 3495TIP3   OH231899   4.342   4.887   5.437  0.2619  0.4123 -0.7476
 3495TIP3    H131900   4.358   4.936   5.517 -0.0050 -1.0323  0.2204
 3495TIP3    H231901   4.424   4.839   5.421 -0.5720 -1.4592  0.2562
 3496TIP3   OH231902   3.819   1.438   1.553  0.3048 -0.1400 -0.1732
 3496TIP3    H131903   3.837   1.422   1.460 -1.1873  0.0180 -0.5121
 3496TIP3    H231904   3.757   1.510   1.554 -0.1865 -0.5486  0.9244
 3497TIP3   OH231905   3.700   1.589  13.050 -0.6952 -0.5060  0.1978
 3497TIP3    H131906   3.661   1.568  12.965 -0.7594  0.8806 -0.1362
 3497TIP3    H231907   3.651   1.665  13.081 -0.0817 -0.4519  1.0700
 3498TIP3   OH231908   5.194   2.783  14.855  0.2637  0.3282 -0.2713
 3498TIP3    H131909   5.243   2.829  14.922  1.0050  1.9896 -1.8534
 3498TIP3    H231910   5.121   2.841  14.834 -1.5043 -1.3654  0.8889
 3499TIP3   OH231911   3.168   6.211  14.102  0.4187 -0.5576  0.1376
 3499TIP3    H131912   3.144   6.289  14.152 -0.7575 -1.5402  1.1695
 3499TIP3    H231913   3.179   6.243  14.012 -0.9571  0.6597  0.3496
 3500TIP3   OH231914   5.163   3.052  11.989 -0.1585  1.0048  0.4670
 3500TIP3    H131915   5.149   2.971  11.940 -4.6600  2.0348 -0.3633
 3500TIP3    H231916   5.194   3.023  12.075  0.3177 -1.4065 -0.4283
 3501TIP3   OH231917   1.920   3.624   4.735 -0.1932  0.0890  0.3528
 3501TIP3    H131918   1.827   3.645   4.741 -0.4302 -0.7537 -0.1848
 3501TIP3    H231919   1.923   3.529   4.723  0.8107 -0.1194  2.0002
 3502TIP3   OH231920   2.109   2.158  11.452  0.0887  0.5250 -0.1288
 3502TIP3    H131921   2.175   2.218  11.416  0.8295  0.5446  1.1924
 3502TIP3    H231922   2.082   2.199  11.534 -1.0295  0.1262 -0.2738
 3503TIP3   OH231923   3.645   0.978  16.712  0.7149 -0.1306 -0.1090
 3503TIP3    H131924   3.660   1.024  16.629 -1.0700 -1.7229 -1.4198
 3503TIP3    H231925   3.665   0.887  16.692 -0.0178 -0.5783  1.1407
 3504TIP3   OH231926   1.416   1.051  14.329  0.1346  0.5715 -0.9641
 3504TIP3    H131927   1.472   0.979  14.300 -0.4040 -0.3923  0.2958
 3504TIP3    H231928   1.387   1.025  14.416 -0.4774  2.0970 -0.6811
 3505TIP3   OH231929   0.390   0.902   5.067  0.3185  0.4637 -0.2799
 3505TIP3    H131930   0.358   0.879   4.980 -0.9063 -0.5658  0.4106
 3505TIP3    H231931   0.384   0.821   5.117 -0.2782  1.3376  1.1249
 3506TIP3   OH231932   3.583   0.313  15.702 -0.2465 -0.4587 -0.3043
 3506TIP3    H131933   3.490   0.289  15.703  0.1772 -2.4987  2.0386
 3506TIP3    H231934   3.594   0.368  15.780  0.4826 -0.0438 -0.6919
 3507TIP3   OH231935   3.243   2.380  12.186  0.2081  0.1666  0.1885
 3507TIP3    H131936   3.166   2.385  12.243 -0.0276  2.6926 -0.2549
 3507TIP3    H231937   3.310   2.432  12.231  1.3083 -1.0025 -0.0203
 3508TIP3   OH231938   0.588   0.226  17.210  0.4135  0.7549  0.0319
 3508TIP3    H131939   0.656   0.213  17.276 -0.9364  0.3241  1.3844
 3508TIP3    H231940   0.571   0.321  17.211  0.1431  0.7027  0.5735
 3509TIP3   OH231941   2.824   2.673  16.085 -0.9966  0.4021 -0.0789
 3509TIP3    H131942   2.911   2.711  16.088 -1.3114  1.0529  1.2502
 3509TIP3    H231943   2.834   2.586  16.123 -0.6320 -0.1864 -1.4513
 3510TIP3   OH231944   3.438   6.674   2.977  0.3643  0.0802 -0.1831
 3510TIP3    H131945   3.513   6.614   2.983  0.9161  0.7257 -0.5680
 3510TIP3    H231946   3.443   6.727   3.057 -0.8358 -1.1726  0.7817
 3511TIP3   OH231947   3.173   0.374  11.582 -0.3842  0.1062 -0.4758
 3511TIP3    H131948   3.091   0.418  11.603  0.4608  1.1475  0.7597
 3511TIP3    H231949   3.194   0.404  11.493 -0.2499  1.5748  0.0243
 3512TIP3   OH231950   0.264   2.338   1.849 -0.1275  0.5906 -0.3873
 3512TIP3    H131951   0.228   2.250   1.854  1.7091 -0.2252 -0.9974
 3512TIP3    H231952   0.197   2.388   1.802 -1.1284 -0.4957 -0.1636
 3513TIP3   OH231953   3.715   0.108  15.599 -0.6388 -0.3515 -0.3125
 3513TIP3    H131954   3.644   0.047  15.620  0.0653 -0.7665  0.9483
 3513TIP3    H231955   3.681   0.194  15.626 -0.8492 -0.4791 -0.1662
 3514TIP3   OH231956   1.583   2.845   0.852  0.0049  0.3051 -0.3724
 3514TIP3    H131957   1.579   2.749   0.855 -0.4931  0.3498  0.6816
 3514TIP3    H231958   1.537   2.869   0.772 -1.9588 -0.2471  0.5328
 3515TIP3   OH231959   2.500   6.007  13.172 -0.4826 -0.2597  0.2769
 3515TIP3    H131960   2.495   5.934  13.109 -0.2659  0.5542 -0.7105
 3515TIP3    H231961   2.411   6.018  13.203 -1.3266  1.4375 -2.4070
 3516TIP3   OH231962   1.666   3.087   1.762  0.7388  0.6686  0.1097
 3516TIP3    H131963   1.622   3.110   1.680  2.1542  0.5040 -0.7481
 3516TIP3    H231964   1.620   3.009   1.793 -1.4158  2.1642  0.8348
 3517TIP3   OH231965   4.839   3.780   1.627 -0.3356  0.0334 -0.1052
 3517TIP3    H131966   4.881   3.758   1.710 -0.3307  0.5725  0.0362
 3517TIP3    H231967   4.762   3.723   1.624 -0.3401  0.0182  0.2690
 3518TIP3   OH231968   6.184   0.194   2.118 -0.2676 -0.4234  0.5070
 3518TIP3    H131969   6.128   0.244   2.058  1.0994  1.5788  0.7948
 3518TIP3    H231970   6.253   0.157   2.063  0.4586  0.6350  0.6737
 3519TIP3   OH231971   3.607   4.554  14.997  0.4569  0.2898  0.1318
 3519TIP3    H131972   3.661   4.477  14.978  1.1728  0.4662  1.3395
 3519TIP3    H231973   3.631   4.617  14.930  0.4126 -0.2672 -0.4230
 3520TIP3   OH231974   1.871   5.827  15.942 -0.3858  0.0834 -0.0196
 3520TIP3    H131975   1.958   5.851  15.975 -0.0573  1.4448 -1.7426
 3520TIP3    H231976   1.814   5.832  16.019  0.7659  0.7662  0.8230
 3521TIP3   OH231977   0.958   3.394  11.176 -0.4558 -0.4525 -0.4737
 3521TIP3    H131978   1.011   3.425  11.250 -1.5827  0.7803 -0.1567
 3521TIP3    H231979   1.020   3.346  11.122  0.7431 -0.0300  0.4687
 3522TIP3   OH231980   0.411   5.762   4.898  0.1357 -0.9513 -0.0645
 3522TIP3    H131981   0.355   5.768   4.820 -0.5350 -0.4590  0.4429
 3522TIP3    H231982   0.351   5.740   4.969 -0.0751  2.7805  1.1430
 3523TIP3   OH231983   2.354   0.051   3.461  0.5078 -0.3472 -0.9632
 3523TIP3    H131984   2.369   0.142   3.487 -1.3407 -0.5887  1.2626
 3523TIP3    H231985   2.276   0.055   3.406  1.1771 -0.4854 -1.9523
 3524TIP3   OH231986   4.493   3.953  12.007 -0.5316  0.2344  0.3888
 3524TIP3    H131987   4.539   4.025  12.051 -0.3723  0.5081 -0.2170
 3524TIP3    H231988   4.533   3.874  12.045  0.9419  0.4587 -0.5969
 3525TIP3   OH231989   2.884   4.801  13.846 -0.6068 -0.4435  0.3180
 3525TIP3    H131990   2.928   4.722  13.815  1.9245  1.7229 -2.1355
 3525TIP3    H231991   2.939   4.832  13.918 -0.2058  0.3314 -0.3144
 3526TIP3   OH231992   4.406   2.928  11.435 -0.1379 -0.1816  0.4117
 3526TIP3    H131993   4.342   2.927  11.364 -0.0540 -0.7561  0.3382
 3526TIP3    H231994   4.475   2.987  11.405 -0.1684 -0.3151  0.0751
 3527TIP3   OH231995   2.145   1.346   2.057 -0.1240  0.0067 -0.4852
 3527TIP3    H131996   2.205   1.289   2.104 -1.1138 -0.7748 -0.1413
 3527TIP3    H231997   2.201   1.414   2.020  0.9458 -0.6110 -0.0460
 3528TIP3   OH231998   5.110   0.177  12.125  0.2472  0.4056  0.2387
 3528TIP3    H131999   5.179   0.163  12.190  0.3543 -2.2180 -0.3416
 3528TIP3    H232000   5.152   0.157  12.041 -0.5753  1.2421 -0.3889
 3529TIP3   OH232001   3.040   2.249   1.495  0.7005 -0.0123  0.0103
 3529TIP3    H132002   3.022   2.236   1.588 -0.8440  3.0206  0.2357
 3529TIP3    H232003   3.106   2.183   1.474  0.6590 -1.1717  3.0841
 3530TIP3   OH232004   2.939   1.395  16.440  0.1532  0.1915 -0.5495
 3530TIP3    H132005   2.918   1.480  16.402  2.1157  1.2709  0.6072
 3530TIP3    H232006   2.899   1.396  16.527  1.3531  0.5603  0.0239
 3531TIP3   OH232007   3.788   5.377   5.637  0.2387 -0.2216 -0.1720
 3531TIP3    H132008   3.820   5.287   5.638 -0.5332 -0.5063  0.9505
 3531TIP3    H232009   3.771   5.396   5.545  0.8881 -1.0470 -0.4714
 3532TIP3   OH232010   3.160   1.818   5.504 -0.1060 -0.1902  0.0918
 3532TIP3    H132011   3.086   1.779   5.551 -0.5810 -1.5932 -1.7035
 3532TIP3    H232012   3.226   1.833   5.572 -0.8520 -1.8839  1.2715
 3533TIP3   OH232013   6.389   3.871   1.200 -0.0133 -0.0317 -0.7299
 3533TIP3    H132014   6.420   3.803   1.139 -0.0133 -0.3125 -0.4220
 3533TIP3    H232015   6.403   3.953   1.153 -0.0724 -0.2473 -1.1372
 3534TIP3   OH232016   2.441   3.149   3.809  0.4279 -0.3434  0.0939
 3534TIP3    H132017   2.346   3.153   3.797  0.3208 -0.2993  0.9015
 3534TIP3    H232018   2.457   3.063   3.849  0.7781 -0.5361 -0.4498
 3535TIP3   OH232019   0.977   4.662  17.365  0.4122  0.2641  0.2293
 3535TIP3    H132020   0.898   4.617  17.335  1.1192 -0.6199 -0.3645
 3535TIP3    H232021   0.950   4.709  17.443 -0.1044 -2.1889  1.6292
 3536TIP3   OH232022   3.354   0.508  14.073 -0.2446 -0.1172  0.0822
 3536TIP3    H132023   3.265   0.474  14.075 -0.7329  0.8897 -1.8221
 3536TIP3    H232024   3.405   0.438  14.032  0.0737 -1.0747  2.0206
 3537TIP3   OH232025   6.177   2.619   4.868 -0.3341  0.2750 -0.0616
 3537TIP3    H132026   6.086   2.604   4.892 -0.1102  0.3936  0.9391
 3537TIP3    H232027   6.196   2.707   4.902  0.5686 -0.3400  1.1044
 3538TIP3   OH232028   0.016   1.975  15.789  0.0091 -0.0578  0.2007
 3538TIP3    H132029   0.096   1.987  15.841 -1.1028 -0.3878  2.0603
 3538TIP3    H232030   0.040   2.007  15.702  2.1607 -0.1419  0.7016
 3539TIP3   OH232031   3.171   1.234   4.593  0.3413  0.1139 -0.1383
 3539TIP3    H132032   3.252   1.284   4.599  0.9945 -1.0268  1.7795
 3539TIP3    H232033   3.200   1.145   4.571 -0.4382 -0.1644 -0.0653
 3540TIP3   OH232034   1.457   1.780   2.091 -0.3531 -0.3624  0.4426
 3540TIP3    H132035   1.446   1.872   2.067 -3.0760 -0.6277  0.3446
 3540TIP3    H232036   1.515   1.745   2.023 -0.0027  1.0527 -0.0320
 3541TIP3   OH232037   5.575   3.854   0.121  0.3696  0.0839 -0.0478
 3541TIP3    H132038   5.507   3.921   0.123  0.2626 -0.0249  0.0513
 3541TIP3    H232039   5.624   3.868   0.202  0.4488  0.1473 -0.1077
 3542TIP3   OH232040   6.603   2.664   0.760  0.1102  0.0693 -0.1226
 3542TIP3    H132041   6.554   2.599   0.709  2.5326 -0.6130 -1.7653
 3542TIP3    H232042   6.623   2.619   0.842  0.9511 -0.9772 -0.8623
 3543TIP3   OH232043   1.019   5.980  16.118 -0.1272  0.6554  0.0589
 3543TIP3    H132044   0.938   5.995  16.069  0.5277 -0.7676 -1.5689
 3543TIP3    H232045   1.046   5.891  16.094  1.9914  1.1253  0.4258
 3544TIP3   OH232046   1.826   2.193   1.588 -0.1806  0.0942 -0.5717
 3544TIP3    H132047   1.903   2.224   1.541  0.3034  0.9303  0.7514
 3544TIP3    H232048   1.792   2.122   1.533  1.2726 -0.0101 -1.3794
 3545TIP3   OH232049   3.656   0.650   1.076 -0.3030 -0.0482  0.3048
 3545TIP3    H132050   3.570   0.692   1.067 -1.2344 -1.8320  0.3917
 3545TIP3    H232051   3.647   0.596   1.154  0.9538 -0.1850  0.3605
 3546TIP3   OH232052   2.563   0.292  14.479 -0.0207  0.0499  0.0249
 3546TIP3    H132053   2.630   0.223  14.474  0.4364  0.2769  1.9899
 3546TIP3    H232054   2.613   0.373  14.488 -0.5415  0.3398  0.3817
 3547TIP3   OH232055   2.295   3.913  15.312 -0.0025 -0.1162 -0.3758
 3547TIP3    H132056   2.272   3.946  15.399  0.4697 -0.0276 -0.2839
 3547TIP3    H232057   2.382   3.949  15.294 -0.6634  1.0424 -1.4910
 3548TIP3   OH232058   6.179   3.155   0.773  0.3650  0.1874  0.1259
 3548TIP3    H132059   6.271   3.178   0.788  0.2330  0.4102  0.5957
 3548TIP3    H232060   6.177   3.059   0.781  0.7642  0.0713 -1.0284
 3549TIP3   OH232061   2.018   1.055  16.348 -0.9671 -0.2535 -0.4906
 3549TIP3    H132062   1.982   0.970  16.372 -3.0681  0.3060 -1.4410
 3549TIP3    H232063   1.952   1.118  16.377  0.7664  1.1365  0.6349
 3550TIP3   OH232064   1.433   2.461   5.304  0.4090  0.5778  0.5797
 3550TIP3    H132065   1.419   2.537   5.361 -2.1370 -0.1241  1.0113
 3550TIP3    H232066   1.388   2.390   5.349  1.3936 -0.8335 -0.6021
 3551TIP3   OH232067   3.670   2.179   1.328 -0.4153 -0.5030 -0.2582
 3551TIP3    H132068   3.576   2.198   1.322 -0.9338 -1.4789  2.8276
 3551TIP3    H232069   3.712   2.257   1.293 -2.3917  0.4267 -0.7124
 3552TIP3   OH232070   5.406   5.674  13.343  0.4086 -0.1475 -0.0747
 3552TIP3    H132071   5.447   5.729  13.410 -0.6840  1.0165 -0.3382
 3552TIP3    H232072   5.469   5.604  13.328  0.7316 -0.4030  2.1152
 3553TIP3   OH232073   2.550   5.615  12.071 -0.0120  0.1961  0.5720
 3553TIP3    H132074   2.578   5.546  12.132 -0.3677 -1.0074 -0.5943
 3553TIP3    H232075   2.632   5.653  12.039  0.4580 -2.6952 -2.1318
 3554TIP3   OH232076   3.524   2.676  16.689 -0.2456 -0.2758 -0.1322
 3554TIP3    H132077   3.590   2.610  16.707 -1.3785 -1.4574 -0.1762
 3554TIP3    H232078   3.530   2.691  16.594 -0.4613 -0.8549 -0.2420
 3555TIP3   OH232079   1.452   0.446  13.016 -0.2180  0.1099  0.0274
 3555TIP3    H132080   1.400   0.371  13.046 -0.8298  0.5975  0.1944
 3555TIP3    H232081   1.411   0.473  12.934  0.1585  0.1061 -0.1651
 3556TIP3   OH232082   0.863   5.578  11.998 -0.9029 -0.1408  0.0345
 3556TIP3    H132083   0.900   5.555  11.913  2.7224  1.3240  1.0480
 3556TIP3    H232084   0.875   5.500  12.051 -2.7410 -0.8957 -0.5836
 3557TIP3   OH232085   4.966   0.921   5.341  0.0498 -0.2469 -0.6076
 3557TIP3    H132086   4.907   0.915   5.416  2.3770 -2.8456  1.2513
 3557TIP3    H232087   4.986   1.014   5.332 -0.8948  0.2055  1.5483
 3558TIP3   OH232088   6.494   6.465  15.778  0.0680 -0.1876 -0.1511
 3558TIP3    H132089   6.512   6.377  15.810  2.8314 -0.0656 -1.1250
 3558TIP3    H232090   6.572   6.489  15.728 -0.8536  2.5899 -0.4287
 3559TIP3   OH232091   4.920   0.768   5.734  0.0784  0.4164  0.3845
 3559TIP3    H132092   4.947   0.676   5.735 -1.2577 -0.1212 -2.7016
 3559TIP3    H232093   4.992   0.814   5.777  2.0565 -1.7594 -0.3514
 3560TIP3   OH232094   6.467   0.187  14.796  0.9406 -0.0488  0.1557
 3560TIP3    H132095   6.444   0.094  14.808 -2.5676  0.6580 -0.1469
 3560TIP3    H232096   6.449   0.204  14.704 -1.7994  1.6690  0.9285
 3561TIP3   OH232097   3.648   1.040  15.453  0.0684  0.2006  0.3152
 3561TIP3    H132098   3.604   1.125  15.457 -0.7559 -0.2473  0.9171
 3561TIP3    H232099   3.578   0.976  15.442  0.7005 -0.3974 -0.3832
 3562TIP3   OH232100   0.933   2.370  16.488  0.8233 -0.1261 -0.1510
 3562TIP3    H132101   1.007   2.428  16.470  1.7065 -1.4211 -0.8921
 3562TIP3    H232102   0.881   2.371  16.408 -1.3280  2.5453  1.0945
 3563TIP3   OH232103   5.624   0.578   4.360  0.0152 -0.1384  0.3941
 3563TIP3    H132104   5.703   0.552   4.312  1.8451  1.2082  2.5448
 3563TIP3    H232105   5.643   0.557   4.451 -2.5487 -0.6843  0.8805
 3564TIP3   OH232106   5.782   2.341  12.866 -0.1761 -0.0732 -0.5041
 3564TIP3    H132107   5.735   2.365  12.946 -1.7044 -2.2325 -0.6469
 3564TIP3    H232108   5.824   2.258  12.887  2.3305  1.0093 -0.9226
 3565TIP3   OH232109   2.771   3.798   2.167 -0.3775 -0.3901  0.3113
 3565TIP3    H132110   2.688   3.833   2.137 -0.3574 -0.9092 -0.3862
 3565TIP3    H232111   2.779   3.827   2.258 -1.1080  0.0279  0.2436
 3566TIP3   OH232112   5.924   1.579   3.431 -0.2483 -0.3113 -0.3845
 3566TIP3    H132113   5.894   1.658   3.476  0.4019  0.1779 -0.7771
 3566TIP3    H232114   5.986   1.539   3.492 -2.2672 -1.8086  0.8119
 3567TIP3   OH232115   3.961   2.189  12.812  0.0548  0.3871 -0.9834
 3567TIP3    H132116   4.009   2.198  12.894  0.9184 -0.2956 -1.4107
 3567TIP3    H232117   4.028   2.182  12.745 -0.6443  0.8457 -1.7559
 3568TIP3   OH232118   2.662   2.132   6.660  0.2160 -0.0890  0.2953
 3568TIP3    H132119   2.659   2.104   6.569 -1.0503  0.0670  0.2695
 3568TIP3    H232120   2.684   2.225   6.656  1.0250 -0.2763  0.2069
 3569TIP3   OH232121   1.540   3.756  17.050 -0.1951 -0.2604  0.1231
 3569TIP3    H132122   1.519   3.682  17.107 -0.2248 -0.2380  0.1410
 3569TIP3    H232123   1.558   3.829  17.110 -2.1610  0.3016  0.0858
 3570TIP3   OH232124   5.621   6.499  17.012  0.2326  0.1137 -0.0122
 3570TIP3    H132125   5.550   6.492  16.948  1.6212 -2.6645 -1.4249
 3570TIP3    H232126   5.612   6.421  17.067  1.9975 -0.1875 -0.0874
 3571TIP3   OH232127   2.811   5.383   1.169 -0.4126  0.2088  0.0600
 3571TIP3    H132128   2.796   5.346   1.256  0.4938  1.9590  1.0224
 3571TIP3    H232129   2.861   5.462   1.186 -0.4835  0.7504 -2.0579
 3572TIP3   OH232130   5.867   3.219  15.811 -0.1790 -0.7507  0.0368
 3572TIP3    H132131   5.826   3.161  15.874 -0.2407  1.3489  2.0734
 3572TIP3    H232132   5.936   3.263  15.860  0.1946  0.5265 -1.5319
 3573TIP3   OH232133   1.496   4.539  12.953 -0.2599 -0.0014 -0.0528
 3573TIP3    H132134   1.482   4.532  12.859  0.6061 -0.6369 -0.1426
 3573TIP3    H232135   1.579   4.586  12.962 -1.6458  2.5745  0.4504
 3574TIP3   OH232136   2.306   2.518  16.930  0.2645  0.6331  0.3231
 3574TIP3    H132137   2.258   2.592  16.893 -1.6720  1.6495  4.3443
 3574TIP3    H232138   2.383   2.557  16.971  2.2717 -0.4400 -2.1423
 3575TIP3   OH232139   1.051   3.471  11.420  0.5003  0.4626 -0.1496
 3575TIP3    H132140   1.116   3.415  11.462  0.6018  0.6736 -0.0271
 3575TIP3    H232141   0.967   3.433  11.446  0.5540  0.7655  0.4856
 3576TIP3   OH232142   2.331   0.714  14.127  0.4089  0.0453 -0.1426
 3576TIP3    H132143   2.288   0.709  14.213  0.5634  2.8125  0.1607
 3576TIP3    H232144   2.424   0.710  14.147  0.4404  0.5414 -0.1780
 3577TIP3   OH232145   0.058   3.199   1.597 -0.4344  0.6074  0.1326
 3577TIP3    H132146   0.027   3.277   1.551  1.7771  0.1894 -2.2803
 3577TIP3    H232147   0.135   3.228   1.645 -0.7665  0.3057  0.8613
 3578TIP3   OH232148   1.376   1.578  13.832 -0.3126 -0.5633 -0.1634
 3578TIP3    H132149   1.329   1.527  13.897 -0.6382  0.6667  0.5856
 3578TIP3    H232150   1.330   1.560  13.750  0.2688 -2.3392 -0.1447
 3579TIP3   OH232151   4.805   0.884   2.009 -0.2741 -0.1456 -0.7715
 3579TIP3    H132152   4.786   0.826   2.083  1.0563 -0.4135 -0.6171
 3579TIP3    H232153   4.871   0.837   1.958  1.8631  1.7714  0.0739
 3580TIP3   OH232154   6.143   1.882   6.169  0.5650 -0.2530  0.1947
 3580TIP3    H132155   6.098   1.825   6.231  0.2340 -1.6275 -1.2541
 3580TIP3    H232156   6.235   1.878   6.196  0.1170  1.4763  2.3145
 3581TIP3   OH232157   2.149   2.900   6.607 -0.1857 -0.3970 -0.0457
 3581TIP3    H132158   2.098   2.927   6.531  0.2793 -0.0256 -0.2297
 3581TIP3    H232159   2.106   2.943   6.681 -0.0489  0.0422 -0.2188
 3582TIP3   OH232160   5.376   1.813  17.342 -0.6611  0.6646 -0.3172
 3582TIP3    H132161   5.352   1.767  17.262  0.3377 -1.0708  0.3330
 3582TIP3    H232162   5.448   1.871  17.316 -0.8536  0.6848 -0.8183
 3583TIP3   OH232163   5.697   5.902   2.938 -0.5333 -0.0380  0.1043
 3583TIP3    H132164   5.721   5.809   2.931  1.4056  0.5039 -1.3013
 3583TIP3    H232165   5.611   5.908   2.896 -0.7965 -1.2285  0.4343
 3584TIP3   OH232166   5.026   0.239   3.218  0.4294  0.2114  0.0568
 3584TIP3    H132167   5.001   0.154   3.181 -0.1800 -0.5855  2.1107
 3584TIP3    H232168   5.100   0.218   3.276  1.0238  1.3080 -0.2745
 3585TIP3   OH232169   2.684   2.080  10.651 -0.4095 -0.0726 -0.0609
 3585TIP3    H132170   2.625   2.029  10.707  0.0365 -0.9430 -0.3746
 3585TIP3    H232171   2.661   2.171  10.670 -2.0302 -0.3830 -0.3498
 3586TIP3   OH232172   3.335   3.985  16.732  0.4754  0.4204  0.1980
 3586TIP3    H132173   3.239   3.988  16.735  0.3120 -1.3100 -1.5348
 3586TIP3    H232174   3.360   3.940  16.812 -0.1986  0.4418  0.4276
 3587TIP3   OH232175   5.137   5.918  11.340 -0.0597 -0.5171  0.3495
 3587TIP3    H132176   5.177   5.834  11.317 -1.4759 -1.2648  0.5324
 3587TIP3    H232177   5.046   5.897  11.359 -0.5198  1.1167  0.0934
 3588TIP3   OH232178   4.112   2.714  15.440 -0.1353 -0.2062  0.3377
 3588TIP3    H132179   4.144   2.745  15.355  1.1126 -2.5695 -0.1406
 3588TIP3    H232180   4.024   2.680  15.421 -1.5854  2.8284  0.8960
 3589TIP3   OH232181   3.372   4.447   5.107  0.2032  0.1111 -0.3640
 3589TIP3    H132182   3.347   4.402   5.027 -1.1561 -0.1892  0.1962
 3589TIP3    H232183   3.322   4.529   5.105 -0.1513 -0.0770  0.3560
 3590TIP3   OH232184   3.936   1.872   5.425 -0.4517 -0.0652  0.0144
 3590TIP3    H132185   3.919   1.793   5.476 -1.6099  0.3185  0.2451
 3590TIP3    H232186   3.950   1.841   5.336 -0.4182 -0.5688  0.1928
 3591TIP3   OH232187   1.449   4.837  13.451 -0.1118  0.1715 -0.1805
 3591TIP3    H132188   1.450   4.750  13.491 -1.4981  0.1330 -0.1717
 3591TIP3    H232189   1.535   4.846  13.409  0.9161 -0.3001  1.6774
 3592TIP3   OH232190   5.409   2.907   0.274 -0.2647 -0.2680  0.1134
 3592TIP3    H132191   5.396   2.865   0.359  0.6667 -2.6499 -0.8384
 3592TIP3    H232192   5.321   2.929   0.245 -0.8972 -2.1680  0.4235
 3593TIP3   OH232193   4.489   5.987  14.461  0.2538  0.3300 -0.7888
 3593TIP3    H132194   4.407   5.977  14.412 -1.0152 -2.2600  1.5882
 3593TIP3    H232195   4.539   5.908  14.440  0.7948  0.4195  0.1283
 3594TIP3   OH232196   6.039   0.103  15.565  0.0294 -0.3473 -0.3701
 3594TIP3    H132197   6.108   0.169  15.572 -0.6882  0.4626 -0.7283
 3594TIP3    H232198   5.997   0.103  15.651 -1.1280  1.0050 -0.8820
 3595TIP3   OH232199   5.219   2.062  17.066  0.4599  0.4242 -1.0677
 3595TIP3    H132200   5.166   2.137  17.092 -1.0980 -0.4784 -1.4832
 3595TIP3    H232201   5.308   2.084  17.093 -0.4683  1.0357  1.7610
 3596TIP3   OH232202   3.810   1.062   2.591 -0.0868  0.1101  0.0222
 3596TIP3    H132203   3.844   0.981   2.628  0.6261  0.5525  0.3637
 3596TIP3    H232204   3.805   1.045   2.497  0.2007 -0.2745  0.0746
 3597TIP3   OH232205   6.126   3.130   1.716  0.0073 -0.0875  0.0754
 3597TIP3    H132206   6.207   3.107   1.762  0.9087  0.1357 -1.3278
 3597TIP3    H232207   6.135   3.224   1.699 -0.0880 -0.2554 -0.9479
 3598TIP3   OH232208   4.068   6.725   1.189 -0.4443  0.6111  0.3278
 3598TIP3    H132209   4.081   6.727   1.284  0.5976  0.8258  0.1876
 3598TIP3    H232210   3.973   6.719   1.178 -0.6177  1.3061  1.3762
 3599TIP3   OH232211   2.137   0.065  16.316  0.0918  0.2842 -0.3280
 3599TIP3    H132212   2.128   0.038  16.225 -1.7314  1.0918 -0.4397
 3599TIP3    H232213   2.068   0.130  16.328  0.2151  0.0978  1.6752
 3600TIP3   OH232214   3.793   2.055  12.421  0.2863  0.0965 -0.1547
 3600TIP3    H132215   3.887   2.065  12.403  0.4694  1.8317  1.5178
 3600TIP3    H232216   3.789   2.005  12.502 -0.3022 -1.2192 -0.9742
 3601TIP3   OH232217   3.765   1.467   2.858  0.0359 -0.3830  0.6245
 3601TIP3    H132218   3.839   1.407   2.852  0.5670  0.0190  2.4041
 3601TIP3    H232219   3.693   1.422   2.814  1.1623 -1.0505 -0.5953
 3602TIP3   OH232220   5.972   4.434   4.618  0.1477  0.4670 -0.2049
 3602TIP3    H132221   5.899   4.426   4.680 -0.2278 -0.9782 -0.7808
 3602TIP3    H232222   5.933   4.415   4.532  0.7716  1.8863 -0.8343
 3603TIP3   OH232223   5.756   6.609   5.370  0.3634 -0.1284 -0.0584
 3603TIP3    H132224   5.734   6.685   5.423 -0.8485  0.6221 -1.5785
 3603TIP3    H232225   5.673   6.579   5.334  0.9645 -1.5106 -0.3585
 3604TIP3   OH232226   6.177   3.659   2.898  0.2517  0.0956 -0.4807
 3604TIP3    H132227   6.147   3.568   2.897 -0.1178  0.2214 -1.5435
 3604TIP3    H232228   6.192   3.678   2.991 -1.8745 -0.3352  0.0219
 3605TIP3   OH232229   0.258   0.020   5.632  0.4528 -0.1439 -0.1496
 3605TIP3    H132230   0.346  -0.008   5.606  1.8235  2.0630  1.7280
 3605TIP3    H232231   0.251  -0.004   5.725 -0.4422  0.8084  0.0497
 3606TIP3   OH232232   1.914   1.333  13.348  0.6218  0.8263 -0.2006
 3606TIP3    H132233   1.925   1.399  13.280 -1.9402 -1.3698 -3.0823
 3606TIP3    H232234   1.954   1.254  13.311  1.6335  0.1753  2.1392
 3607TIP3   OH232235   6.470   4.361  14.809  0.3514 -0.2413 -0.4936
 3607TIP3    H132236   6.453   4.267  14.814 -1.3102  0.0748  1.5802
 3607TIP3    H232237   6.412   4.393  14.741 -1.3324 -0.3699  0.8105
 3608TIP3   OH232238   0.234   6.713   5.900 -0.3391 -0.2096  0.8349
 3608TIP3    H132239   0.284   6.635   5.926  1.2925  1.0438  1.6408
 3608TIP3    H232240   0.254   6.778   5.968  0.5603  1.7938 -1.2159
 3609TIP3   OH232241   2.138   4.919   0.900  0.3187  0.3942 -0.3090
 3609TIP3    H132242   2.181   4.934   0.815 -0.4007 -1.2696 -1.0107
 3609TIP3    H232243   2.209   4.928   0.964  0.9428  1.3713 -1.1018
 3610TIP3   OH232244   5.615   5.378   3.204 -0.3477 -0.2874  0.1521
 3610TIP3    H132245   5.638   5.468   3.229 -0.4334 -0.9915  3.1617
 3610TIP3    H232246   5.525   5.385   3.172 -0.1310  0.7904 -0.2768
 3611TIP3   OH232247   6.038   3.098  12.466 -0.4300  0.8460  0.0434
 3611TIP3    H132248   6.095   3.138  12.532 -2.0835  0.1480  2.0188
 3611TIP3    H232249   6.026   3.008  12.498  0.4459 -0.2422 -2.4335
 3612TIP3   OH232250   2.415   6.350  13.121 -0.5863  0.6130 -0.3244
 3612TIP3    H132251   2.387   6.306  13.201 -0.1884 -0.2253 -0.6366
 3612TIP3    H232252   2.410   6.283  13.053  1.2936  0.6442 -0.5556
 3613TIP3   OH232253   2.663   0.133   0.153 -0.1737  0.4568 -0.1853
 3613TIP3    H132254   2.618   0.050   0.170  0.6244  0.1466  0.4652
 3613TIP3    H232255   2.734   0.109   0.095 -1.3253  1.0907 -1.9313
 3614TIP3   OH232256   0.112   2.039  15.511 -0.3510 -0.2592  0.2985
 3614TIP3    H132257   0.202   2.011  15.525  0.0031  0.2337 -0.8868
 3614TIP3    H232258   0.108   2.064  15.419 -0.8906  2.6159  0.9937
 3615TIP3   OH232259   5.868   3.454   4.973 -0.6046  0.2914  0.1206
 3615TIP3    H132260   5.918   3.525   4.931  0.4699 -0.4095  0.1781
 3615TIP3    H232261   5.934   3.390   4.999 -1.3470  0.1984  1.9224
 3616TIP3   OH232262   2.547   0.066   6.662 -0.1429 -0.2317 -0.4108
 3616TIP3    H132263   2.555  -0.026   6.639 -1.0479 -0.5426  0.4313
 3616TIP3    H232264   2.454   0.086   6.649 -0.3025  0.0895  1.0324
 3617TIP3   OH232265   5.980   0.111  17.328  0.4151  0.1843 -0.1277
 3617TIP3    H132266   6.072   0.125  17.351  0.7399  0.5979 -1.6011
 3617TIP3    H232267   5.967   0.017  17.341  0.8295  0.2373  0.7845
 3618TIP3   OH232268   6.615   1.280   0.087  0.2361  0.0188 -0.2300
 3618TIP3    H132269   6.572   1.364   0.068  0.9534  0.5254  0.3359
 3618TIP3    H232270   6.544   1.216   0.084 -0.5226  0.7946  0.4056
 3619TIP3   OH232271   5.606   1.793   5.124  0.1388 -1.0259  0.1165
 3619TIP3    H132272   5.601   1.800   5.220  0.7283 -1.8032  0.2161
 3619TIP3    H232273   5.663   1.865   5.098 -0.9274 -0.1157  0.2277
 3620TIP3   OH232274   6.570   0.906   5.757 -0.1729  0.3120 -0.3377
 3620TIP3    H132275   6.606   0.913   5.669  0.1036  2.9149 -0.1099
 3620TIP3    H232276   6.634   0.855   5.805  0.7652  0.6780 -1.1502
 3621TIP3   OH232277   0.265   4.937  14.460  0.5194 -0.3678 -0.3571
 3621TIP3    H132278   0.171   4.930  14.474  0.5244 -0.6900 -0.4686
 3621TIP3    H232279   0.300   4.963  14.545  0.1949  1.0561 -0.6452
 3622TIP3   OH232280   4.185   6.491  15.062  0.8799  0.1451 -0.3014
 3622TIP3    H132281   4.122   6.542  15.011  3.5551  2.2857 -1.7158
 3622TIP3    H232282   4.163   6.400  15.043 -2.0429  0.7681 -0.2973
 3623TIP3   OH232283   0.252   3.298   4.067  1.0928  0.1251  0.4132
 3623TIP3    H132284   0.205   3.284   4.149 -3.2694  0.2987 -1.7850
 3623TIP3    H232285   0.198   3.360   4.018  2.1070 -1.7763 -3.5605
 3624TIP3   OH232286   3.280   1.593  12.735 -0.4860  0.6687 -0.5817
 3624TIP3    H132287   3.211   1.528  12.719  1.1482 -0.9083 -1.6208
 3624TIP3    H232288   3.245   1.675  12.698 -2.0904  0.1055 -0.3794
 3625TIP3   OH232289   0.089   4.452   4.459 -0.6591  0.1507  0.3993
 3625TIP3    H132290   0.096   4.529   4.402  0.1702  0.8136  1.3393
 3625TIP3    H232291   0.048   4.385   4.405  0.9570  0.4426 -1.2969
 3626TIP3   OH232292   4.042   3.135   1.846  0.3697 -0.1623 -0.4300
 3626TIP3    H132293   4.130   3.173   1.847  1.4117 -2.4294 -0.5378
 3626TIP3    H232294   4.007   3.159   1.761  1.2829 -0.0672 -0.7914
 3627TIP3   OH232295   6.692   0.883  17.325 -0.8243  0.0672 -0.1033
 3627TIP3    H132296   6.697   0.908  17.417 -2.7448  0.2453 -0.0187
 3627TIP3    H232297   6.743   0.949  17.279  3.2172 -1.8993  1.0479
 3628TIP3   OH232298   6.295   3.850   1.577 -0.4983  0.0005 -0.4467
 3628TIP3    H132299   6.381   3.820   1.547 -1.0661 -0.4718 -1.6748
 3628TIP3    H232300   6.294   3.832   1.671  1.0468  0.7653 -0.2698
 3629TIP3   OH232301   3.114   3.504   1.632 -0.0895 -0.2125  0.4614
 3629TIP3    H132302   3.085   3.592   1.656  0.7171  0.2690 -0.2727
 3629TIP3    H232303   3.205   3.515   1.606  0.3918 -1.4785  1.5146
 3630TIP3   OH232304   1.450   2.550   4.270  0.4058 -0.1119  0.6140
 3630TIP3    H132305   1.388   2.523   4.202 -0.7025  1.5033  0.9519
 3630TIP3    H232306   1.530   2.572   4.222  0.1067 -0.3814 -0.0187
 3631TIP3   OH232307   4.916   1.874  13.888  0.3762  0.6297  0.3606
 3631TIP3    H132308   4.948   1.834  13.969 -0.7118 -1.3997 -0.1436
 3631TIP3    H232309   4.967   1.833  13.819  1.9006  2.9827  0.0001
 3632TIP3   OH232310   2.477   4.007  16.262  0.4871 -0.5175  0.3213
 3632TIP3    H132311   2.413   3.978  16.328 -0.2271  0.0204 -0.1232
 3632TIP3    H232312   2.442   3.975  16.179  1.4776 -1.3476  0.2000
 3633TIP3   OH232313   4.783   4.436   5.171  0.1596 -0.3134  0.6574
 3633TIP3    H132314   4.722   4.377   5.215  0.2310 -1.9430 -1.2776
 3633TIP3    H232315   4.745   4.523   5.182 -2.4324 -1.2415 -0.3065
 3634TIP3   OH232316   5.677   3.685   5.809  0.1345  0.1209 -0.2388
 3634TIP3    H132317   5.621   3.712   5.882 -0.5356 -0.4892 -0.5103
 3634TIP3    H232318   5.765   3.687   5.845 -0.0852  0.8036  0.2926
 3635TIP3   OH232319   5.535   4.838  15.001 -0.0149  0.0264 -0.5272
 3635TIP3    H132320   5.454   4.882  15.030 -0.6888 -0.8135 -1.0853
 3635TIP3    H232321   5.569   4.894  14.932 -0.2719  0.2442 -0.4812
 3636TIP3   OH232322   6.137   4.504   3.130 -0.1029 -0.5110 -0.4889
 3636TIP3    H132323   6.124   4.487   3.224 -0.0967  0.7614 -0.2473
 3636TIP3    H232324   6.178   4.424   3.097  0.6127 -0.6862  0.7492
 3637TIP3   OH232325   6.065   2.124   6.076 -0.1017  0.2060  0.7675
 3637TIP3    H132326   6.093   2.041   6.115 -0.5987  0.3333  1.4192
 3637TIP3    H232327   6.055   2.105   5.983 -0.3151 -0.4950  0.9254
 3638TIP3   OH232328   2.714   5.516  13.542  0.8649  0.6574 -0.5528
 3638TIP3    H132329   2.644   5.545  13.484 -1.4680 -0.8953  1.2827
 3638TIP3    H232330   2.746   5.596  13.583 -0.9391  1.2980 -0.3093
 3639TIP3   OH232331   2.901   2.827  17.010  0.2787  0.0681  0.0057
 3639TIP3    H132332   2.842   2.758  16.979  1.2134 -1.0635  0.6660
 3639TIP3    H232333   2.968   2.832  16.942  0.8860 -0.5561  0.5492
 3640TIP3   OH232334   1.918   5.751  12.633 -0.0021  0.0455 -0.5119
 3640TIP3    H132335   1.876   5.708  12.707 -0.2327  1.7012  0.3547
 3640TIP3    H232336   1.965   5.681  12.588 -1.1255 -1.2726  0.2930
 3641TIP3   OH232337   1.003   4.074   0.509 -0.1135  0.0400  0.0974
 3641TIP3    H132338   1.089   4.085   0.468 -0.2405  0.6024 -0.0178
 3641TIP3    H232339   0.943   4.061   0.436 -0.4936  2.0114  0.0303
 3642TIP3   OH232340   0.382   5.125  12.080 -0.1257 -0.4118 -0.2111
 3642TIP3    H132341   0.299   5.161  12.112 -0.1216 -0.5740 -0.0138
 3642TIP3    H232342   0.431   5.201  12.050  1.3675  0.2843  3.4640
 3643TIP3   OH232343   3.819   2.574  13.317 -0.1487 -0.3493  0.1957
 3643TIP3    H132344   3.891   2.552  13.376  0.3200 -1.8413 -0.8815
 3643TIP3    H232345   3.853   2.648  13.266 -0.3865  0.6522  1.4262
 3644TIP3   OH232346   1.832   3.265  11.231 -0.6707  0.0936 -0.4583
 3644TIP3    H132347   1.758   3.216  11.194 -1.1573  0.5104 -0.0514
 3644TIP3    H232348   1.848   3.335  11.168 -0.6462  0.0268 -0.5268
 3645TIP3   OH232349   6.639   4.212  16.472  0.0592 -0.2552  0.9746
 3645TIP3    H132350   6.707   4.254  16.525  2.2439  0.9085 -2.4000
 3645TIP3    H232351   6.667   4.121  16.464  0.5570 -0.0807  0.6582
 3646TIP3   OH232352   4.039   1.018  12.519 -0.0497  0.2024  1.1173
 3646TIP3    H132353   4.003   0.952  12.460  0.6407  0.7350  0.0643
 3646TIP3    H232354   4.018   0.986  12.607  1.2793 -2.0332  0.6982
 3647TIP3   OH232355   5.212   0.372  15.651  0.2945 -0.3550 -0.2499
 3647TIP3    H132356   5.164   0.295  15.679  1.0812 -0.9471 -0.4846
 3647TIP3    H232357   5.254   0.347  15.569 -0.0547  0.5790 -0.7322
 3648TIP3   OH232358   2.607   6.165   2.544  0.7391 -0.2899  0.3621
 3648TIP3    H132359   2.642   6.190   2.459  1.4001  1.1916  1.0410
 3648TIP3    H232360   2.655   6.085   2.567 -0.2536 -1.3779 -1.1252
 3649TIP3   OH232361   6.021   4.294  16.579  0.1954  0.0359 -0.2765
 3649TIP3    H132362   5.956   4.231  16.609 -0.3542  0.8707  0.3216
 3649TIP3    H232363   6.099   4.275  16.632  0.7777 -1.5439 -1.5986
 3650TIP3   OH232364   0.481   5.632   0.605  0.0717  0.0719  0.2152
 3650TIP3    H132365   0.456   5.719   0.634 -1.1652 -0.0555 -0.3981
 3650TIP3    H232366   0.532   5.595   0.677  1.6348  1.7179  0.0116
 3651TIP3   OH232367   2.745   4.491  13.008 -0.2635 -0.0897  0.1812
 3651TIP3    H132368   2.720   4.545  13.082 -1.0681 -1.3747  0.8734
 3651TIP3    H232369   2.807   4.545  12.959 -1.1350  1.4929  0.7611
 3652TIP3   OH232370   3.182   2.600  16.371  0.1946 -0.0148  0.4761
 3652TIP3    H132371   3.204   2.588  16.279  1.4569  0.0959  0.7519
 3652TIP3    H232372   3.145   2.516  16.398  0.2899 -0.2124  0.0047
 3653TIP3   OH232373   5.262   5.783   0.129 -0.3240  0.2146 -0.5861
 3653TIP3    H132374   5.351   5.801   0.159  0.2803 -1.5346 -1.2382
 3653TIP3    H232375   5.207   5.804   0.204  0.7540  0.1807  0.2319
 3654TIP3   OH232376   5.365   6.664   4.482  0.0120  0.5885 -0.1509
 3654TIP3    H132377   5.275   6.638   4.463  0.2614 -0.8846  0.4928
 3654TIP3    H232378   5.368   6.758   4.464 -0.6146  0.0327 -4.0926
 3655TIP3   OH232379   4.969   4.364   0.767  0.4867  0.6701  0.6478
 3655TIP3    H132380   5.027   4.414   0.710 -0.1565  1.3364  0.5480
 3655TIP3    H232381   4.893   4.343   0.712  1.5033 -2.0614  0.1250
 3656TIP3   OH232382   2.961   5.145  14.887 -0.1856 -0.2430  0.1727
 3656TIP3    H132383   3.055   5.143  14.868 -0.0921 -0.3458  0.6299
 3656TIP3    H232384   2.955   5.186  14.974 -0.4325 -1.8130  0.9213
 3657TIP3   OH232385   1.049   3.324  13.236  0.0189  0.7516  0.2055
 3657TIP3    H132386   1.085   3.272  13.308 -1.6623  1.4012  1.5986
 3657TIP3    H232387   1.092   3.409  13.244  1.7250  0.0911 -1.2081
 3658TIP3   OH232388   1.742   5.674  15.182 -0.1890  0.9465 -0.2724
 3658TIP3    H132389   1.741   5.705  15.092  3.9574  0.4692 -0.6621
 3658TIP3    H232390   1.772   5.583  15.176  1.1431  1.2052  1.5933
 3659TIP3   OH232391   3.528   0.730   0.095 -0.7789  0.1525  0.4415
 3659TIP3    H132392   3.528   0.766   0.184 -1.6653  0.6863  0.2394
 3659TIP3    H232393   3.447   0.763   0.056  0.1573  0.9105 -0.9598
 3660TIP3   OH232394   5.614   1.707   6.220 -0.6284  0.3262  0.1487
 3660TIP3    H132395   5.648   1.648   6.288 -0.4285 -1.6757 -1.5671
 3660TIP3    H232396   5.692   1.735   6.172 -0.7913  1.5311  0.5536
 3661TIP3   OH232397   2.008   6.377   5.830  0.8623  0.3690  0.1014
 3661TIP3    H132398   2.074   6.446   5.836  0.3956  0.8906 -0.5876
 3661TIP3    H232399   1.925   6.424   5.822  0.3962 -0.2767  0.9732
 3662TIP3   OH232400   0.842   2.035   2.998  0.4621  0.2678 -0.4522
 3662TIP3    H132401   0.833   1.939   3.003  0.7364  0.1301 -1.9853
 3662TIP3    H232402   0.870   2.061   3.086  2.3892 -1.2988 -0.5205
 3663TIP3   OH232403   3.133   2.356  16.541 -0.0780 -0.0961 -0.0591
 3663TIP3    H132404   3.166   2.380  16.627 -0.0234  1.7580 -0.5608
 3663TIP3    H232405   3.053   2.306  16.559  1.8736 -3.0960  1.1140
 3664TIP3   OH232406   5.573   0.827  12.778 -0.5024 -0.1451  0.2915
 3664TIP3    H132407   5.586   0.893  12.845  0.4767  1.3517 -1.2960
 3664TIP3    H232408   5.484   0.843  12.745 -0.6547 -0.3167  0.6099
 3665TIP3   OH232409   1.126   5.863   4.192  0.4945  0.1020  0.4931
 3665TIP3    H132410   1.033   5.876   4.210  0.3211  2.4102 -1.4854
 3665TIP3    H232411   1.129   5.797   4.123  0.1150  1.4754 -0.8834
 3666TIP3   OH232412   4.166   4.964  14.316  0.6696 -0.1210  0.4249
 3666TIP3    H132413   4.149   4.871  14.328  1.7423 -0.2694  0.8871
 3666TIP3    H232414   4.121   4.986  14.234 -0.4247 -0.8056  0.8166
 3667TIP3   OH232415   3.598   3.091  13.580 -0.0652 -0.0358  0.2816
 3667TIP3    H132416   3.631   3.054  13.498  0.4907 -1.7664  1.2442
 3667TIP3    H232417   3.611   3.022  13.644 -0.5755  1.2562  1.8264
 3668TIP3   OH232418   5.686   4.917   6.531 -0.4120 -0.3433 -0.7510
 3668TIP3    H132419   5.715   4.963   6.610 -1.4640 -1.2922  0.2167
 3668TIP3    H232420   5.611   4.864   6.560  0.5382 -2.4173 -1.8743
 3669TIP3   OH232421   1.229   2.843  12.824  0.7942 -0.1821  0.2111
 3669TIP3    H132422   1.197   2.807  12.906  1.9637  0.3379  0.9336
 3669TIP3    H232423   1.268   2.769  12.778 -0.5825 -0.6354 -0.2708
 3670TIP3   OH232424   6.642   3.074   2.174  0.0308  0.1630  0.1839
 3670TIP3    H132425   6.569   3.089   2.234 -1.5535 -2.3774 -0.9063
 3670TIP3    H232426   6.632   3.141   2.106 -2.2807 -0.9883 -0.7218
 3671TIP3   OH232427   6.477   1.268   5.640 -0.0143 -0.0558  0.6295
 3671TIP3    H132428   6.529   1.314   5.705 -0.1419 -0.5581  1.0959
 3671TIP3    H232429   6.404   1.230   5.689 -1.9822  2.2942 -0.2985
 3672TIP3   OH232430   6.303   2.595  15.190 -0.5660 -0.1457  0.3711
 3672TIP3    H132431   6.316   2.505  15.161 -0.5567  0.5705 -2.1571
 3672TIP3    H232432   6.208   2.608  15.188 -0.5186  0.1982 -0.4793
 3673TIP3   OH232433   5.399   0.371  14.597  0.1323 -0.3654  0.1274
 3673TIP3    H132434   5.381   0.278  14.593 -0.0635 -0.2930 -0.9553
 3673TIP3    H232435   5.442   0.391  14.514  0.4303  0.4549  0.4679
 3674TIP3   OH232436   6.179   2.696   0.374  0.2349 -0.6648 -0.3407
 3674TIP3    H132437   6.196   2.605   0.350  1.6335 -0.5020 -0.0533
 3674TIP3    H232438   6.257   2.744   0.344  0.0833  0.2352  0.6435
 3675TIP3   OH232439   0.780   4.463  17.293  0.0518  0.1610  0.1737
 3675TIP3    H132440   0.692   4.489  17.320  0.3384 -1.2405  2.7457
 3675TIP3    H232441   0.771   4.371  17.269  0.6574  0.2871 -0.5837
 3676TIP3   OH232442   6.467   3.665   3.090  0.6567  0.5058  0.4076
 3676TIP3    H132443   6.423   3.655   3.175  1.3959  0.6775  0.8171
 3676TIP3    H232444   6.489   3.576   3.064 -1.2310  0.2609 -0.5210
 3677TIP3   OH232445   6.604   6.243  16.254  0.2924 -0.1128 -0.1417
 3677TIP3    H132446   6.530   6.301  16.267  0.3540 -0.1013  0.1675
 3677TIP3    H232447   6.638   6.265  16.167  0.8523  0.9274  0.3270
 3678TIP3   OH232448   6.648   2.939  12.571 -0.4370 -0.5510 -0.1982
 3678TIP3    H132449   6.630   2.916  12.663 -0.3815 -0.4648 -0.1661
 3678TIP3    H232450   6.569   2.986  12.543 -0.8023 -1.2995 -0.4465
 3679TIP3   OH232451   6.695   6.529  16.475  0.0418  0.3059 -0.5685
 3679TIP3    H132452   6.618   6.506  16.423 -0.4549  0.9689 -0.1428
 3679TIP3    H232453   6.742   6.446  16.486 -1.6620 -0.5360  0.8763
 3680TIP3   OH232454   3.207   0.301  16.591 -0.2368  0.1635 -0.2891
 3680TIP3    H132455   3.124   0.262  16.563  0.4777 -1.1645 -0.6495
 3680TIP3    H232456   3.273   0.262  16.533  0.8323  0.0965  0.9152
 3681TIP3   OH232457   4.097   5.818  16.044  0.1952 -0.2491 -0.5127
 3681TIP3    H132458   4.026   5.755  16.051  0.7300 -0.7517  0.5826
 3681TIP3    H232459   4.054   5.903  16.042 -0.4108 -0.4650  1.5164
 3682TIP3   OH232460   3.588   6.400   4.975 -0.6232 -0.1107  0.1536
 3682TIP3    H132461   3.519   6.452   4.934 -1.3322  0.7704  2.3105
 3682TIP3    H232462   3.659   6.462   4.992 -0.1568 -0.5592 -0.1221
 3683TIP3   OH232463   6.645   3.104   2.996  0.2898  0.1211 -0.0598
 3683TIP3    H132464   6.609   3.151   3.071  1.0188  1.1516 -0.3308
 3683TIP3    H232465   6.660   3.015   3.028 -0.7616  0.1591  0.5802
 3684TIP3   OH232466   0.265   4.098   2.521  0.5098 -0.2313 -0.2377
 3684TIP3    H132467   0.171   4.115   2.523  0.2888 -1.4059  0.9830
 3684TIP3    H232468   0.301   4.167   2.466 -1.0173  0.4595 -0.4172
 3685TIP3   OH232469   6.345   3.159  16.128 -0.0316 -0.2361 -0.6237
 3685TIP3    H132470   6.306   3.095  16.068  1.0213 -1.1137 -0.3868
 3685TIP3    H232471   6.346   3.116  16.213  2.9683 -0.9682 -0.9091
 3686TIP3   OH232472   1.318   2.998   2.680  0.3608  0.4511 -0.5812
 3686TIP3    H132473   1.278   3.085   2.677  2.2577  1.3774 -4.2539
 3686TIP3    H232474   1.395   3.009   2.735  0.5795  1.0922 -1.0052
 3687TIP3   OH232475   5.723   0.239   6.227 -0.1452  0.5531  0.6301
 3687TIP3    H132476   5.743   0.284   6.310  1.1683 -1.3354  1.4089
 3687TIP3    H232477   5.797   0.179   6.214 -0.8456  0.0427 -1.3890
 3688TIP3   OH232478   1.181   0.695  14.714 -0.2170  0.2626 -0.0442
 3688TIP3    H132479   1.153   0.739  14.794  0.1672  1.2223 -0.4254
 3688TIP3    H232480   1.225   0.763  14.663  2.9235 -1.1185  0.5763
 3689TIP3   OH232481   5.034   5.248  17.193  0.2915 -0.0658  0.4291
 3689TIP3    H132482   5.083   5.166  17.201 -2.5202 -1.8434  1.0620
 3689TIP3    H232483   5.027   5.280  17.283  1.4935  0.9946  0.1669
 3690TIP3   OH232484   0.544   1.141  16.452 -0.0601 -0.0021  0.5658
 3690TIP3    H132485   0.505   1.203  16.390  1.0218 -0.9790 -1.1559
 3690TIP3    H232486   0.631   1.178  16.471  0.3756 -0.6892 -0.0484
 3691TIP3   OH232487   4.502   3.591  11.888 -0.1543  0.0783 -0.5321
 3691TIP3    H132488   4.579   3.648  11.882  1.4533 -1.4271  2.9156
 3691TIP3    H232489   4.521   3.519  11.828  2.3713 -1.4109  1.8460
 3692TIP3   OH232490   2.470   4.050  14.232 -0.0346 -0.1715 -0.3156
 3692TIP3    H132491   2.546   4.101  14.260 -0.5995  2.4409 -3.0222
 3692TIP3    H232492   2.504   3.996  14.161 -0.6638  1.2325 -1.7445
 3693TIP3   OH232493   6.721   3.962   0.033  0.3401 -0.5372  0.2524
 3693TIP3    H132494   6.775   4.018   0.088 -0.4470 -1.6104  2.2112
 3693TIP3    H232495   6.764   3.877   0.034 -0.2985 -0.8702  0.1601
 3694TIP3   OH232496   2.238   4.472  15.016  0.0829 -0.2170  0.0407
 3694TIP3    H132497   2.268   4.410  15.083  1.2884  0.0244 -0.2378
 3694TIP3    H232498   2.276   4.556  15.043 -1.8309  0.5055  0.6114
 3695TIP3   OH232499   3.934   2.037   5.712  0.4414 -0.3513 -0.0637
 3695TIP3    H132500   3.997   2.081   5.654  0.1609  0.8084  0.4817
 3695TIP3    H232501   3.950   2.076   5.798 -1.3548  0.3406 -0.0135
 3696TIP3   OH232502   0.851   2.794   5.902  0.8973  0.3203 -0.4564
 3696TIP3    H132503   0.771   2.810   5.953  0.5175  0.2690 -1.0301
 3696TIP3    H232504   0.902   2.734   5.956 -0.7141 -1.9643 -1.3149
 3697TIP3   OH232505   6.094   3.081  15.920 -0.1793 -0.0009 -0.3990
 3697TIP3    H132506   6.103   2.989  15.897  1.1960 -0.4546  1.6368
 3697TIP3    H232507   6.089   3.082  16.015 -0.8067  2.0046 -0.3910
 3698TIP3   OH232508   1.794   2.390   4.615 -0.0919  0.1484  0.4800
 3698TIP3    H132509   1.758   2.455   4.675 -1.9321  0.6354 -1.0716
 3698TIP3    H232510   1.854   2.338   4.669  0.9281  2.6652  1.9325
 3699TIP3   OH232511   5.796   3.742  17.351  0.2406 -0.0972  0.4051
 3699TIP3    H132512   5.703   3.765  17.353  0.3863  0.5907 -0.3837
 3699TIP3    H232513   5.826   3.756  17.441 -0.4907 -0.6653  0.7532
 3700TIP3   OH232514   0.890   3.674  14.134  0.1902 -0.2636 -0.1317
 3700TIP3    H132515   0.917   3.713  14.051  1.3778 -0.6524  0.0612
 3700TIP3    H232516   0.834   3.600  14.108  0.7266 -0.5146 -0.6064
 3701TIP3   OH232517   4.601   0.340   4.871  0.0857  0.1488  0.2816
 3701TIP3    H132518   4.663   0.410   4.890 -0.9006  0.9238  0.7432
 3701TIP3    H232519   4.642   0.290   4.800  1.9379 -0.3239  1.6218
 3702TIP3   OH232520   1.842   0.463  14.733 -0.3279  0.5541  0.2160
 3702TIP3    H132521   1.771   0.421  14.684 -0.1108  0.4165  0.0162
 3702TIP3    H232522   1.922   0.434  14.689 -0.1164  0.2644  0.7770
 3703TIP3   OH232523   4.445   3.856  13.631  0.0136  1.1358  0.4468
 3703TIP3    H132524   4.350   3.862  13.643  0.0738 -0.3747  2.0884
 3703TIP3    H232525   4.455   3.838  13.537 -1.3989  0.5059  0.3792
 3704TIP3   OH232526   4.655   0.702   2.193 -0.5436 -0.0215  0.0559
 3704TIP3    H132527   4.613   0.618   2.172 -1.1251  0.0448  0.9085
 3704TIP3    H232528   4.595   0.768   2.156 -0.0943  0.0328 -0.6008
 3705TIP3   OH232529   2.514   3.492   2.252  0.2411  0.3882 -0.3030
 3705TIP3    H132530   2.447   3.460   2.191 -0.1778 -0.4648  0.5812
 3705TIP3    H232531   2.546   3.412   2.295  1.9406  0.7557 -0.8135
 3706TIP3   OH232532   5.394   0.114   1.102  0.0148 -0.1065  0.4079
 3706TIP3    H132533   5.367   0.122   1.011  0.7264 -1.1739  0.0906
 3706TIP3    H232534   5.460   0.045   1.102 -0.5549 -0.6847  1.8610
 3707TIP3   OH232535   4.624   0.527  12.847  0.2759  0.4749 -0.0016
 3707TIP3    H132536   4.531   0.516  12.825 -0.4800  2.5882  1.6613
 3707TIP3    H232537   4.623   0.546  12.941  2.5665 -0.9870  0.3731
 3708TIP3   OH232538   5.915   6.585   0.755  0.0125 -0.0293  0.5115
 3708TIP3    H132539   5.860   6.601   0.678 -0.1867  1.0500  0.8629
 3708TIP3    H232540   5.859   6.608   0.829  0.7128  0.4436  0.9025
 3709TIP3   OH232541   4.218   0.892  12.948 -0.1004 -0.1123  0.2566
 3709TIP3    H132542   4.199   0.875  13.040 -0.2693 -1.5921 -0.0178
 3709TIP3    H232543   4.151   0.843  12.900 -0.5262  1.3101 -0.6637
 3710TIP3   OH232544   1.917   1.466   1.936  1.0990  0.4402  0.1263
 3710TIP3    H132545   1.835   1.446   1.980  0.7146  2.0987  0.2479
 3710TIP3    H232546   1.981   1.406   1.975  0.3108  0.3416  1.3256
 3711TIP3   OH232547   6.689   1.514  13.572 -0.4817 -0.1725 -0.0039
 3711TIP3    H132548   6.606   1.519  13.619 -0.6964 -0.1644 -0.3769
 3711TIP3    H232549   6.719   1.605  13.568 -0.7319 -0.1037 -0.3540
 3712TIP3   OH232550   5.457   5.642  11.056 -0.3781 -0.1414  1.0758
 3712TIP3    H132551   5.497   5.681  10.978 -0.4034 -2.0831  0.0295
 3712TIP3    H232552   5.384   5.701  11.077 -1.4669 -0.4483 -1.4603
 3713TIP3   OH232553   0.689   2.500   3.879  0.2305  0.2319  0.5954
 3713TIP3    H132554   0.761   2.510   3.817  0.4617 -0.1056  0.8092
 3713TIP3    H232555   0.700   2.412   3.915 -0.9800 -0.2819 -0.2340
 3714TIP3   OH232556   1.895   4.954   1.057  0.2643 -0.4366  0.5294
 3714TIP3    H132557   1.892   4.941   1.152  1.6053 -0.1730  0.6303
 3714TIP3    H232558   1.987   4.940   1.034  0.4009  1.6361 -0.4139
 3715TIP3   OH232559   0.571   2.311  12.047 -1.3787  0.8159 -0.1266
 3715TIP3    H132560   0.643   2.250  12.026 -1.6418  0.3976  0.1674
 3715TIP3    H232561   0.493   2.266  12.016 -1.5382  1.1805 -0.2547
 3716TIP3   OH232562   5.978   2.162   3.603  0.2422  1.0668  0.0720
 3716TIP3    H132563   6.051   2.155   3.542  1.9507  1.7849  1.9431
 3716TIP3    H232564   5.947   2.252   3.594 -1.4661  0.3791 -1.7629
 3717TIP3   OH232565   1.052   5.132  10.845  0.0246  0.3968 -0.2536
 3717TIP3    H132566   1.145   5.136  10.869 -0.2004 -0.1736  0.7748
 3717TIP3    H232567   1.014   5.208  10.889 -0.8966 -2.0837  3.7898
 3718TIP3   OH232568   3.525   4.109  12.258  0.5435 -0.1186 -0.2376
 3718TIP3    H132569   3.531   4.204  12.248  0.3777  0.2518  2.4162
 3718TIP3    H232570   3.490   4.096  12.346 -0.6084 -2.6485 -0.9517
 3719TIP3   OH232571   1.279   3.311  14.960 -0.3123 -0.4279 -0.0314
 3719TIP3    H132572   1.353   3.252  14.947 -0.2032 -0.2030 -0.4509
 3719TIP3    H232573   1.306   3.369  15.031 -1.4195 -2.4984  2.2082
 3720TIP3   OH232574   3.136   1.394   0.933 -0.4524 -0.0406 -0.2935
 3720TIP3    H132575   3.066   1.346   0.978  0.1664 -1.6397 -0.9521
 3720TIP3    H232576   3.182   1.440   1.003 -0.6814 -0.9347  0.4689
 3721TIP3   OH232577   2.852   1.629   1.098 -0.0732 -0.4868  0.1359
 3721TIP3    H132578   2.758   1.640   1.090  0.0147  0.9659  0.8755
 3721TIP3    H232579   2.885   1.716   1.120  1.3041 -1.2022  1.0629
 3722TIP3   OH232580   1.774   0.507   5.175  0.1974 -0.2258 -0.5282
 3722TIP3    H132581   1.728   0.587   5.201 -0.1665 -0.5289 -0.2399
 3722TIP3    H232582   1.707   0.439   5.176  0.7558 -0.7662  0.3809
 3723TIP3   OH232583   4.580   1.837  14.511 -0.3905 -0.3361  0.1204
 3723TIP3    H132584   4.567   1.754  14.465 -0.9005 -1.5282  2.2564
 3723TIP3    H232585   4.647   1.817  14.577  0.1840  1.2335  0.0403
 3724TIP3   OH232586   2.378   1.737  16.041 -0.0999  0.1792 -0.0145
 3724TIP3    H132587   2.335   1.737  15.956 -2.0335  0.2807  0.9085
 3724TIP3    H232588   2.308   1.716  16.103  1.2864 -0.0429  1.5380
 3725TIP3   OH232589   6.046   6.654  16.959  0.2715 -0.0344 -0.2340
 3725TIP3    H132590   6.010   6.707  16.888 -1.5805 -0.4765  0.3248
 3725TIP3    H232591   6.058   6.567  16.921 -1.3402 -0.4427  0.1187
 3726TIP3   OH232592   2.050   1.612   5.845 -0.3321  0.3699  0.0875
 3726TIP3    H132593   2.124   1.650   5.893  0.7398 -1.1755 -0.2729
 3726TIP3    H232594   2.054   1.653   5.759  0.0333  0.3769  0.1072
 3727TIP3   OH232595   5.463   1.853   3.423  0.0974 -0.1338  0.0444
 3727TIP3    H132596   5.559   1.852   3.421  0.1172 -0.8445  0.7189
 3727TIP3    H232597   5.441   1.891   3.509 -0.2108 -0.4510  0.1083
 3728TIP3   OH232598   1.185   4.940  16.014  0.5650 -0.2688  0.2888
 3728TIP3    H132599   1.204   4.937  15.920 -0.5340 -0.6929  0.0703
 3728TIP3    H232600   1.229   5.019  16.045 -1.6907  1.6859 -1.1893
 3729TIP3   OH232601   0.989   6.646   3.943 -0.2439  0.4854 -0.4472
 3729TIP3    H132602   0.976   6.622   4.035 -2.5006 -0.0480 -0.8460
 3729TIP3    H232603   0.951   6.734   3.937 -0.3748  0.3959 -0.9222
 3730TIP3   OH232604   0.321   0.022  14.067  0.1327 -0.0333 -0.2490
 3730TIP3    H132605   0.377   0.012  13.990 -0.7604 -0.2470 -0.8719
 3730TIP3    H232606   0.336   0.112  14.097  0.8132 -0.0929 -0.3997
 3731TIP3   OH232607   3.988   4.113  15.219  0.5792  0.2936  0.2625
 3731TIP3    H132608   3.968   4.163  15.298 -0.5957 -0.8971  0.7540
 3731TIP3    H232609   3.922   4.141  15.156 -0.5549 -1.1419  0.7795
 3732TIP3   OH232610   2.893   3.058  12.429  0.3291  0.1238  0.0721
 3732TIP3    H132611   2.880   3.118  12.502  0.5731  0.7416 -0.3809
 3732TIP3    H232612   2.805   3.045  12.393 -0.0874 -1.6595  1.5835
 3733TIP3   OH232613   4.878   4.958   2.148 -0.1345  0.3371 -0.2069
 3733TIP3    H132614   4.900   4.923   2.062 -1.3037  0.3455 -0.5296
 3733TIP3    H232615   4.930   4.905   2.209 -0.5086 -0.7551 -0.8103
 3734TIP3   OH232616   6.128   2.295   5.702 -0.0052  0.3657 -0.2883
 3734TIP3    H132617   6.147   2.373   5.650  1.5176 -0.0697 -0.4352
 3734TIP3    H232618   6.107   2.329   5.790 -1.8754  1.0571 -0.9472
 3735TIP3   OH232619   4.994   6.544   1.788  0.3184  0.1542  0.4884
 3735TIP3    H132620   5.009   6.493   1.868 -0.4265 -0.1674  0.4258
 3735TIP3    H232621   4.957   6.482   1.726 -2.0134  1.0387  0.8760
 3736TIP3   OH232622   4.314   2.905  12.836  0.1285 -0.0795  0.4561
 3736TIP3    H132623   4.306   2.860  12.752 -0.4831  1.6232 -0.4398
 3736TIP3    H232624   4.407   2.896  12.859  0.5959  0.4731 -1.0475
 3737TIP3   OH232625   1.339   5.606  12.999  0.2918 -0.3805  0.4311
 3737TIP3    H132626   1.259   5.604  12.947 -0.0222 -0.0351  0.8889
 3737TIP3    H232627   1.409   5.594  12.935  0.0316  1.8204 -0.3565
 3738TIP3   OH232628   6.483   4.575   0.455 -0.5435  0.3124  0.2455
 3738TIP3    H132629   6.473   4.570   0.360 -1.5107 -0.2450  0.3731
 3738TIP3    H232630   6.395   4.592   0.488 -0.0226  1.8372  0.9726
 3739TIP3   OH232631   5.744   3.414  14.150 -0.4777 -0.0132 -0.1694
 3739TIP3    H132632   5.746   3.342  14.088 -1.9772  0.7486 -1.1740
 3739TIP3    H232633   5.833   3.448  14.152 -0.1551 -0.7880 -1.0017
 3740TIP3   OH232634   5.885   1.217   4.833 -0.6065 -0.3270  0.4802
 3740TIP3    H132635   5.802   1.206   4.788 -0.1444 -0.0851 -0.4530
 3740TIP3    H232636   5.911   1.129   4.859 -0.0708 -0.7052 -1.2244
 3741TIP3   OH232637   2.663   3.332   1.432 -0.5194 -0.2515 -0.6811
 3741TIP3    H132638   2.685   3.276   1.358 -1.0321 -0.5937 -0.5816
 3741TIP3    H232639   2.573   3.307   1.454 -0.9298  0.9207 -0.9265
 3742TIP3   OH232640   4.209   4.101   5.134 -0.4560  0.0320  0.0527
 3742TIP3    H132641   4.178   4.185   5.099 -0.3260  0.4011  0.8104
 3742TIP3    H232642   4.304   4.110   5.138 -0.5524  0.5283  1.8130
 3743TIP3   OH232643   4.166   5.065  11.688 -0.2425  0.1737  0.0325
 3743TIP3    H132644   4.103   4.993  11.698 -0.9207  0.7991  0.2943
 3743TIP3    H232645   4.128   5.121  11.620  1.5609 -1.0558 -2.1419
 3744TIP3   OH232646   1.103   2.099   2.189 -0.6476  0.5722  0.8900
 3744TIP3    H132647   1.080   2.132   2.276  0.2325  0.9658  0.9868
 3744TIP3    H232648   1.045   2.024   2.175 -1.2770  0.9357  1.5200
 3745TIP3   OH232649   1.701   6.539   2.715  0.3153 -0.6524  0.1360
 3745TIP3    H132650   1.757   6.544   2.792 -0.1261  0.6646  0.3930
 3745TIP3    H232651   1.756   6.498   2.648  1.3654 -0.0021  0.5784
 3746TIP3   OH232652   1.318   0.513  15.601  0.5587 -0.3455  0.1386
 3746TIP3    H132653   1.328   0.431  15.553 -1.0339  0.0215 -0.9054
 3746TIP3    H232654   1.363   0.578  15.547  0.1594 -0.2074 -0.0304
 3747TIP3   OH232655   5.313   4.789   4.567 -0.3251  1.0572 -0.2529
 3747TIP3    H132656   5.239   4.810   4.510  1.1869 -0.0112 -2.7489
 3747TIP3    H232657   5.351   4.874   4.589 -0.2522  1.4436 -1.8096
 3748TIP3   OH232658   3.136   6.190   0.567 -0.1048  0.5893  0.0315
 3748TIP3    H132659   3.062   6.251   0.576 -0.9589 -0.6048  1.8335
 3748TIP3    H232660   3.188   6.204   0.647  0.5362  0.0525 -0.2844
 3749TIP3   OH232661   0.033   4.240   1.975 -0.2436 -0.1115 -0.0652
 3749TIP3    H132662  -0.019   4.288   2.039 -0.0641  1.0794 -0.7906
 3749TIP3    H232663   0.081   4.175   2.027  0.9066  1.6727  1.1995
 3750TIP3   OH232664   3.114   1.216  12.391 -0.0236 -0.2557  0.3428
 3750TIP3    H132665   3.079   1.175  12.312 -1.0354  0.5485  0.3505
 3750TIP3    H232666   3.068   1.299  12.397  0.5988  0.0364  1.3730
 3751TIP3   OH232667   2.457   1.603  12.441  0.3839  0.2877  0.3826
 3751TIP3    H132668   2.530   1.664  12.449 -0.3800  1.6127 -1.8356
 3751TIP3    H232669   2.490   1.534  12.383  0.0461  0.6600 -0.2674
 3752TIP3   OH232670   4.004   0.413   0.786  0.4731  0.0581  0.9896
 3752TIP3    H132671   3.973   0.457   0.865 -1.5914  0.2967  0.1017
 3752TIP3    H232672   4.087   0.457   0.765 -0.3715  1.9621  1.4172
 3753TIP3   OH232673   4.304   5.335   4.253  0.2935  0.1036 -0.1029
 3753TIP3    H132674   4.240   5.382   4.200  1.4020  0.9478 -0.7544
 3753TIP3    H232675   4.386   5.383   4.238  1.5041 -2.0961 -0.8858
 3754TIP3   OH232676   2.105   3.272   3.237 -0.4808 -0.1471  0.1152
 3754TIP3    H132677   2.059   3.351   3.265 -1.2528 -0.5292 -0.0557
 3754TIP3    H232678   2.067   3.202   3.291 -0.1041 -0.4701 -0.0353
 3755TIP3   OH232679   3.398   4.130   4.665 -0.2196 -0.8459  0.1080
 3755TIP3    H132680   3.387   4.035   4.662 -0.2065 -0.8364 -0.8611
 3755TIP3    H232681   3.482   4.145   4.620 -0.3197 -0.3702  0.0811
 3756TIP3   OH232682   1.010   1.315   4.465  0.2007 -0.1907 -0.0572
 3756TIP3    H132683   0.957   1.336   4.542  1.2600  3.3017 -0.1124
 3756TIP3    H232684   0.964   1.356   4.392  1.3896  0.2904 -0.5666
 3757TIP3   OH232685   1.887   5.499  12.815  0.4363 -0.2291 -0.0819
 3757TIP3    H132686   1.930   5.420  12.782  0.1342 -0.6650  0.5501
 3757TIP3    H232687   1.794   5.477  12.816  0.5010 -0.6644  2.1353
 3758TIP3   OH232688   1.865   2.030   3.284 -0.0421  0.0793 -0.7502
 3758TIP3    H132689   1.785   2.005   3.239  1.0433 -0.3526 -2.5468
 3758TIP3    H232690   1.931   2.035   3.215  1.5210  0.2922  0.6861
 3759TIP3   OH232691   4.721   2.659  12.737  0.2439 -0.1861  0.0509
 3759TIP3    H132692   4.684   2.598  12.673 -1.3676  0.9163 -0.1519
 3759TIP3    H232693   4.759   2.604  12.805  0.9711 -1.3841 -1.2769
 3760TIP3   OH232694   4.923   3.617  17.146  0.3987 -0.3901 -0.6210
 3760TIP3    H132695   5.004   3.640  17.191  0.3711 -1.0299 -0.2310
 3760TIP3    H232696   4.866   3.581  17.214 -0.1522 -0.1186 -0.9239
 3761TIP3   OH232697   6.372   3.398   1.284  0.5915  0.5985  0.2605
 3761TIP3    H132698   6.429   3.330   1.319 -1.0807 -0.9610  0.0802
 3761TIP3    H232699   6.316   3.423   1.358 -0.2110  0.2335 -0.2091
 3762TIP3   OH232700   0.435   5.790   3.133 -0.0149  0.0829 -0.1531
 3762TIP3    H132701   0.390   5.722   3.183 -0.2369 -2.4702 -3.4870
 3762TIP3    H232702   0.508   5.817   3.188 -1.6924 -0.5731  2.5726
 3763TIP3   OH232703   4.455   0.337   5.575  0.1638 -0.1093  0.4809
 3763TIP3    H132704   4.471   0.401   5.644  0.5446  0.0041  0.2914
 3763TIP3    H232705   4.440   0.254   5.621 -2.3216  0.4560  0.8565
 3764TIP3   OH232706   4.129   2.440   1.028 -0.6940 -0.2886 -0.3845
 3764TIP3    H132707   4.043   2.462   0.992 -0.7562 -1.1699 -0.8131
 3764TIP3    H232708   4.135   2.491   1.109 -1.2357  0.4810 -0.8177
 3765TIP3   OH232709   0.029   2.957   3.384 -0.0207 -0.2468  0.2930
 3765TIP3    H132710   0.097   2.931   3.446  1.4450  1.1716 -0.6290
 3765TIP3    H232711   0.038   2.897   3.311  1.2886  0.8222 -0.4744
 3766TIP3   OH232712   2.140   4.478  13.080 -0.1971  0.2805  0.1031
 3766TIP3    H132713   2.128   4.487  12.985  1.0557 -1.2101 -0.2548
 3766TIP3    H232714   2.076   4.412  13.106 -0.8494  1.0206  0.3856
 3767TIP3   OH232715   3.335   5.384  11.601 -0.5480  0.2954  0.2258
 3767TIP3    H132716   3.422   5.383  11.561 -0.0801  0.4572  1.2187
 3767TIP3    H232717   3.286   5.448  11.549 -0.8619 -1.5503 -1.9087
 3768TIP3   OH232718   1.757   3.138   2.189 -0.5191 -0.0095 -0.0730
 3768TIP3    H132719   1.662   3.141   2.199 -0.3643  2.3756  1.5425
 3768TIP3    H232720   1.789   3.211   2.242  2.1388  0.2220 -1.8053
 3769TIP3   OH232721   3.555   5.368  11.411 -0.3812 -0.0722 -0.2584
 3769TIP3    H132722   3.629   5.428  11.413  0.5399 -1.1704  1.8530
 3769TIP3    H232723   3.581   5.298  11.351 -0.8241  0.8161 -1.5247
 3770TIP3   OH232724   5.630   3.382   1.920 -0.3244  0.0120  0.5985
 3770TIP3    H132725   5.544   3.394   1.880 -0.6978 -0.5885  1.1984
 3770TIP3    H232726   5.680   3.331   1.856 -0.7947 -0.6186  0.7210
 3771TIP3   OH232727   4.322   3.532  13.860 -0.1264 -0.0180 -0.0773
 3771TIP3    H132728   4.328   3.447  13.816 -0.5283  0.2164 -0.5870
 3771TIP3    H232729   4.402   3.578  13.835 -0.0772 -0.1098 -0.0890
 3772TIP3   OH232730   2.484   5.724  13.777 -0.0564  0.2419  0.1925
 3772TIP3    H132731   2.520   5.663  13.840 -0.2983  1.1019  1.1898
 3772TIP3    H232732   2.543   5.719  13.702  0.1009 -0.9624  0.3809
 3773TIP3   OH232733   2.466   4.215  13.879  0.5034 -0.8111  0.0949
 3773TIP3    H132734   2.376   4.191  13.855  0.8807 -1.4377 -0.7441
 3773TIP3    H232735   2.461   4.234  13.973 -0.6193 -0.2649 -0.0518
 3774TIP3   OH232736   6.035   2.538   2.883  0.0141  0.0983 -0.0867
 3774TIP3    H132737   6.047   2.595   2.960 -0.6696 -1.5757  1.3218
 3774TIP3    H232738   6.110   2.558   2.827  0.6061  1.2875  1.0625
 3775TIP3   OH232739   5.645   0.012   4.390  0.3098  0.7731 -0.5343
 3775TIP3    H132740   5.608   0.054   4.312  0.5044 -1.3560 -1.8670
 3775TIP3    H232741   5.708  -0.051   4.355 -0.2954 -0.9455  1.2698
 3776TIP3   OH232742   1.387   4.799  12.774 -0.2047  0.2217  0.4983
 3776TIP3    H132743   1.401   4.788  12.679  0.3204 -0.1946  0.6190
 3776TIP3    H232744   1.386   4.710  12.808  1.2864  0.4123  1.1159
 3777TIP3   OH232745   1.416   2.361  14.497  0.4213 -0.4473 -0.3342
 3777TIP3    H132746   1.354   2.296  14.529 -0.3497 -0.6028 -2.0571
 3777TIP3    H232747   1.374   2.400  14.421  1.5133  1.0197 -0.2335
 3778TIP3   OH232748   0.177   3.082  15.667  0.0101  0.2530  0.1742
 3778TIP3    H132749   0.125   3.159  15.689 -1.0871 -0.4140  0.0065
 3778TIP3    H232750   0.113   3.019  15.633  0.8279 -0.8502  0.6191
 3779TIP3   OH232751   4.111   4.931  12.516  0.5016 -0.2153  0.9739
 3779TIP3    H132752   4.045   4.863  12.503  1.3187 -1.4818  2.9287
 3779TIP3    H232753   4.183   4.905  12.459 -0.4361  0.9341 -0.8358
 3780TIP3   OH232754   2.842   3.089   3.613  0.2652 -0.0210  0.3721
 3780TIP3    H132755   2.758   3.045   3.598 -0.3132  0.8957  0.8102
 3780TIP3    H232756   2.907   3.030   3.576 -0.7606  0.4064 -2.3822
 3781TIP3   OH232757   3.283   2.214  14.508  0.2870  0.4472  0.4320
 3781TIP3    H132758   3.369   2.232  14.548  0.5960  0.4923 -0.2406
 3781TIP3    H232759   3.299   2.221  14.414 -0.4264  0.3025  0.2983
 3782TIP3   OH232760   6.627   0.252   3.351  0.5922  0.1471  0.1447
 3782TIP3    H132761   6.681   0.306   3.408 -0.3122  0.9739  0.2355
 3782TIP3    H232762   6.688   0.187   3.315  1.5402  0.7549  0.6170
 3783TIP3   OH232763   3.654   4.957   3.170 -0.0140  0.0779 -0.1244
 3783TIP3    H132764   3.583   4.897   3.194 -1.9146  1.4826 -1.8072
 3783TIP3    H232765   3.693   4.919   3.091 -0.6367  0.5465 -0.6775
 3784TIP3   OH232766   0.514   0.366   2.037 -0.1476 -0.2855  0.6055
 3784TIP3    H132767   0.556   0.339   2.119 -1.5100 -2.0617  0.7720
 3784TIP3    H232768   0.534   0.296   1.975  0.1513  0.6304 -0.3664
 3785TIP3   OH232769   2.710   0.517   3.452 -0.0698 -0.4097  0.4471
 3785TIP3    H132770   2.641   0.582   3.463  0.5033 -0.0702  2.3990
 3785TIP3    H232771   2.713   0.471   3.536  0.7216 -1.7854 -0.2961
 3786TIP3   OH232772   4.248   3.754  10.794  0.2079 -0.4353  0.0022
 3786TIP3    H132773   4.286   3.687  10.737  0.4425 -0.3323  0.0349
 3786TIP3    H232774   4.321   3.813  10.812 -0.0051 -0.1599 -0.0437
 3787TIP3   OH232775   1.523   2.381  12.182  0.1435 -0.6000 -0.3643
 3787TIP3    H132776   1.443   2.363  12.131  0.1046 -0.5840 -0.3088
 3787TIP3    H232777   1.578   2.433  12.124  0.2697 -0.9233 -0.5389
 3788TIP3   OH232778   5.121   1.676  12.827  0.0444 -0.8361 -0.2331
 3788TIP3    H132779   5.157   1.605  12.881  2.7382 -0.6558 -1.5733
 3788TIP3    H232780   5.105   1.635  12.742  0.4205 -0.1340 -0.6546
 3789TIP3   OH232781   4.378   3.773  14.752 -0.4192 -0.1508  0.9106
 3789TIP3    H132782   4.380   3.858  14.795  1.4848 -0.0321  0.6677
 3789TIP3    H232783   4.303   3.727  14.792  0.2162  0.5915  3.0711
 3790TIP3   OH232784   2.756   4.713  15.089 -0.0863 -0.2046 -0.0124
 3790TIP3    H132785   2.772   4.708  15.183 -0.3744 -1.6221 -0.0067
 3790TIP3    H232786   2.689   4.646  15.073 -0.5072  0.4571 -1.1320
 3791TIP3   OH232787   3.964   0.739  16.839 -0.5057  0.2310  0.3720
 3791TIP3    H132788   3.874   0.731  16.870 -0.7522 -1.4854 -0.6299
 3791TIP3    H232789   3.960   0.806  16.771 -0.7899  0.9783  1.1148
 3792TIP3   OH232790   4.096   1.483  14.903  0.2297 -0.2641  0.5817
 3792TIP3    H132791   4.165   1.418  14.918 -0.1071 -0.3517  1.8168
 3792TIP3    H232792   4.141   1.567  14.912  0.3183 -0.3235  0.7005
 3793TIP3   OH232793   5.926   4.936   1.937 -0.3314  0.9713  0.3595
 3793TIP3    H132794   5.956   4.845   1.928 -1.2300  0.6629  0.3300
 3793TIP3    H232795   5.950   4.977   1.854  0.9090  1.0157  0.7310
 3794TIP3   OH232796   1.351   2.227  16.494  0.1536 -0.9084  0.2520
 3794TIP3    H132797   1.435   2.256  16.459 -0.0646 -1.2713 -0.5985
 3794TIP3    H232798   1.374   2.168  16.566  0.6156 -0.7590  0.2310
 3795TIP3   OH232799   5.107   6.001  16.904 -0.3754 -0.4643 -0.2372
 3795TIP3    H132800   5.121   6.054  16.825  2.3174 -1.1077 -0.2818
 3795TIP3    H232801   5.172   5.932  16.898  0.2626 -0.2555  2.8012
 3796TIP3   OH232802   1.023   6.725  11.884 -0.6717  1.0730  0.1042
 3796TIP3    H132803   1.089   6.659  11.861 -0.8322  1.6147 -2.1479
 3796TIP3    H232804   1.039   6.743  11.976  0.9939 -0.3080  0.1452
 3797TIP3   OH232805   5.484   6.108  16.175 -0.0278 -0.5669 -0.4248
 3797TIP3    H132806   5.466   6.014  16.172 -0.6544 -0.4566 -0.3033
 3797TIP3    H232807   5.536   6.120  16.255  0.0783 -0.8144 -0.4570
 3798TIP3   OH232808   5.383   1.063   0.232  0.8156  0.3339 -0.2308
 3798TIP3    H132809   5.424   1.108   0.158 -1.2451  3.5349  0.3468
 3798TIP3    H232810   5.394   1.124   0.305  0.1492 -1.3628  1.3467
 3799TIP3   OH232811   6.409   5.822  13.153 -0.4956  0.0158  0.0970
 3799TIP3    H132812   6.417   5.770  13.073  0.3995  1.5968 -0.8966
 3799TIP3    H232813   6.500   5.845  13.175 -0.8145  0.4955  0.9479
 3800TIP3   OH232814   0.462   0.825   4.315 -0.0586  0.3583 -0.3532
 3800TIP3    H132815   0.402   0.766   4.269  0.8293  0.0954 -1.2107
 3800TIP3    H232816   0.489   0.776   4.393  0.5451 -0.3245 -0.9745
 3801TIP3   OH232817   1.300   6.693   4.523  0.5484  0.2217 -0.4117
 3801TIP3    H132818   1.345   6.714   4.605  0.6373  0.1179 -0.4330
 3801TIP3    H232819   1.341   6.749   4.458  1.1981 -0.4371 -0.5832
 3802TIP3   OH232820   5.935   3.168  15.139 -0.1111 -0.5258  1.3201
 3802TIP3    H132821   5.852   3.215  15.149 -0.1187  0.0173 -0.8467
 3802TIP3    H232822   5.924   3.117  15.059  2.4550  1.4483 -0.4609
 3803TIP3   OH232823   0.111   5.244   0.280  0.4404 -0.4938  0.1604
 3803TIP3    H132824   0.135   5.232   0.372  1.6857  2.3129  0.3135
 3803TIP3    H232825   0.015   5.248   0.281  0.4481 -0.0158  1.4433
 3804TIP3   OH232826   6.194   0.683   0.054 -0.1636  0.3160 -0.2873
 3804TIP3    H132827   6.149   0.622   0.113  0.0367  0.8359  0.4085
 3804TIP3    H232828   6.277   0.702   0.097  1.2833 -1.5124 -2.0839
 3805TIP3   OH232829   0.938   4.990  17.303 -0.1851  0.0860  0.4738
 3805TIP3    H132830   1.021   5.022  17.338  0.0516  1.0561 -0.8949
 3805TIP3    H232831   0.890   4.959  17.380  0.2051  2.3295  1.7203
 3806TIP3   OH232832   1.011   2.674   2.187  0.6211  0.0133 -0.1441
 3806TIP3    H132833   0.932   2.725   2.169  1.0711  2.3442  3.3837
 3806TIP3    H232834   0.979   2.599   2.238  0.5044  0.1302 -0.0426
 3807TIP3   OH232835   6.011   1.002  15.184 -0.6587 -0.7304  0.0170
 3807TIP3    H132836   5.955   0.953  15.123  0.4164 -2.5887  0.4215
 3807TIP3    H232837   5.994   0.961  15.269 -0.2735  0.1280  0.5120
 3808TIP3   OH232838   1.292   4.803   5.611 -0.0133  0.3451  0.2401
 3808TIP3    H132839   1.321   4.718   5.643 -1.7397 -0.1562  0.5737
 3808TIP3    H232840   1.288   4.793   5.515 -0.9604 -0.2163  0.3296
 3809TIP3   OH232841   3.755   3.689  13.897  0.1787 -0.1687 -0.8849
 3809TIP3    H132842   3.684   3.735  13.851  0.2431 -0.2324 -1.0501
 3809TIP3    H232843   3.780   3.748  13.968 -0.2742 -0.2971 -0.6148
 3810TIP3   OH232844   1.893   1.912   2.917 -0.2395 -0.6435 -0.5409
 3810TIP3    H132845   1.831   1.923   2.845 -0.3894  1.1354 -0.1737
 3810TIP3    H232846   1.846   1.860   2.982 -1.4615  0.9039 -0.1540
 3811TIP3   OH232847   6.062   4.030   4.436 -0.8875 -0.3745  0.3930
 3811TIP3    H132848   6.119   4.000   4.365  0.2852 -1.2511  1.6387
 3811TIP3    H232849   5.994   4.081   4.393 -0.6168 -1.4704 -1.4232
 3812TIP3   OH232850   1.691   3.280  14.459 -0.3588  0.0461  0.2138
 3812TIP3    H132851   1.678   3.330  14.379  1.0707 -0.1327 -0.1684
 3812TIP3    H232852   1.743   3.337  14.515  0.3145 -0.5522  0.2194
 3813TIP3   OH232853   4.021   3.100  12.083 -0.7019  0.9781  0.1725
 3813TIP3    H132854   3.939   3.054  12.063 -0.7485  1.9197 -2.0298
 3813TIP3    H232855   4.089   3.040  12.052 -0.6167  0.9034  0.5022
 3814TIP3   OH232856   5.968   6.602  13.781 -0.0418 -0.0853 -0.6899
 3814TIP3    H132857   6.007   6.598  13.868  1.7538 -1.4799 -1.5124
 3814TIP3    H232858   5.933   6.514  13.766 -0.8263  0.2983 -1.1940
 3815TIP3   OH232859   1.734   3.329  11.893 -0.2005 -0.0546 -0.8350
 3815TIP3    H132860   1.794   3.255  11.902 -0.0573 -0.0262 -1.5176
 3815TIP3    H232861   1.648   3.290  11.878  0.1109 -0.0969 -2.6961
 3816TIP3   OH232862   6.371   2.281  14.878  0.1289  0.2244 -0.5524
 3816TIP3    H132863   6.450   2.284  14.931 -0.2471  2.3119 -0.0260
 3816TIP3    H232864   6.308   2.232  14.930 -1.6908  5.6880  3.3329
 3817TIP3   OH232865   1.775   3.799  13.866  0.7299 -0.1789 -0.3776
 3817TIP3    H132866   1.823   3.809  13.948 -0.2439 -0.1872  0.2177
 3817TIP3    H232867   1.838   3.761  13.805  1.7817  0.8516  0.0498
 3818TIP3   OH232868   5.861   2.524  14.382 -0.0348 -0.1078 -0.6930
 3818TIP3    H132869   5.862   2.429  14.374  0.9917 -0.5015  2.5277
 3818TIP3    H232870   5.775   2.545  14.418  0.2181 -0.0005 -0.1332
 3819TIP3   OH232871   5.819   2.539  15.594  0.3462 -0.2700 -0.5359
 3819TIP3    H132872   5.770   2.539  15.512 -1.5605  1.7422  0.4896
 3819TIP3    H232873   5.752   2.541  15.662  1.7653  2.0264  0.9540
 3820TIP3   OH232874   6.599   3.101  11.840 -0.3113  0.1939  0.2525
 3820TIP3    H132875   6.524   3.113  11.898 -1.1151  3.0561 -1.1940
 3820TIP3    H232876   6.561   3.082  11.755  0.5936  1.0503 -0.3713
 3821TIP3   OH232877   0.396   3.953   0.641 -0.9436 -0.3687  0.4563
 3821TIP3    H132878   0.337   4.010   0.692 -0.3780 -0.6717  1.4845
 3821TIP3    H232879   0.349   3.871   0.633 -0.8185 -0.4914  0.9578
 3822TIP3   OH232880   3.789   0.561  16.070 -0.1145 -0.1096  0.2108
 3822TIP3    H132881   3.880   0.536  16.085 -0.3652 -0.8404  0.5652
 3822TIP3    H232882   3.793   0.625  16.000  0.7046  0.1143  0.4545
 3823TIP3   OH232883   2.731   4.659   4.976 -0.2021  0.4952 -0.5678
 3823TIP3    H132884   2.713   4.565   4.969 -2.3182  0.6754  1.3739
 3823TIP3    H232885   2.806   4.664   5.036 -1.0791  0.0587  0.6061
 3824TIP3   OH232886   3.020   4.017  13.761  0.1902  0.0076  0.1869
 3824TIP3    H132887   3.094   3.964  13.730  0.7450  1.0222 -0.2876
 3824TIP3    H232888   3.060   4.101  13.784 -0.9532  0.9032 -1.0004
 3825TIP3   OH232889   2.341   2.550   5.863  0.6186  0.2725 -0.4062
 3825TIP3    H132890   2.331   2.473   5.807 -0.9360  0.2255 -0.1152
 3825TIP3    H232891   2.405   2.524   5.929 -0.0877 -0.8895 -0.1407
 3826TIP3   OH232892   2.403   2.710   3.478 -0.3751 -0.0400  0.1467
 3826TIP3    H132893   2.441   2.673   3.558 -0.9098  1.1016  0.9556
 3826TIP3    H232894   2.321   2.662   3.466  0.4613 -1.3288 -0.6486
 3827TIP3   OH232895   2.327   5.225  17.360  0.0694 -0.2309 -0.3297
 3827TIP3    H132896   2.411   5.270  17.363 -1.3627  2.6059 -0.1546
 3827TIP3    H232897   2.281   5.254  17.438 -0.9057 -2.2117 -0.1011
 3828TIP3   OH232898   0.212   0.935  16.034 -0.1091 -0.4253 -0.4095
 3828TIP3    H132899   0.195   1.022  16.070 -0.6049 -0.4983 -0.4653
 3828TIP3    H232900   0.280   0.950  15.968  0.9916 -0.3224  0.6993
 3829TIP3   OH232901   5.689   6.568  14.699  0.1757  0.2790 -0.1056
 3829TIP3    H132902   5.596   6.588  14.691  0.1971  0.3405 -0.2024
 3829TIP3    H232903   5.711   6.521  14.618 -0.4324 -2.3475  1.1258
 3830TIP3   OH232904   3.857   0.749   0.670  0.0384 -0.1245 -0.3997
 3830TIP3    H132905   3.770   0.712   0.683  0.7659 -2.3932 -1.4409
 3830TIP3    H232906   3.902   0.686   0.614  1.6931  2.0063 -1.6461
 3831TIP3   OH232907   0.961   2.647   4.926  0.3635 -0.0853  0.3547
 3831TIP3    H132908   0.880   2.606   4.898 -0.3407 -0.6632  3.0158
 3831TIP3    H232909   1.022   2.574   4.938  1.0554  0.2726 -0.8227
 3832TIP3   OH232910   2.532   4.208   1.933  0.5648  0.1617  0.2799
 3832TIP3    H132911   2.573   4.238   1.851 -2.0064  2.3328 -0.3642
 3832TIP3    H232912   2.515   4.115   1.919  0.8173  0.3325 -1.3775
 3833TIP3   OH232913   0.034   4.673   6.405 -0.3186 -0.0647 -0.7242
 3833TIP3    H132914  -0.048   4.688   6.451  0.7475  3.8355  0.2351
 3833TIP3    H232915   0.093   4.638   6.472  0.2206  2.2647  0.1195
 3834TIP3   OH232916   4.126   2.137   1.102 -0.4197  0.1255  0.0508
 3834TIP3    H132917   4.166   2.107   1.020  0.7868  1.4163  0.1316
 3834TIP3    H232918   4.037   2.163   1.077  0.0576  0.8714 -0.9533
 3835TIP3   OH232919   3.728   0.020  12.112  0.4512 -0.0954  0.6875
 3835TIP3    H132920   3.749   0.099  12.063 -0.4289  0.3646  1.0281
 3835TIP3    H232921   3.633   0.014  12.108  0.3488 -0.0173  2.3702
 3836TIP3   OH232922   1.059   5.246   1.490 -0.4472  0.6640 -0.4860
 3836TIP3    H132923   1.103   5.275   1.411 -0.6459  0.2950 -0.7340
 3836TIP3    H232924   0.968   5.231   1.463 -0.3775 -0.0574 -0.3368
 3837TIP3   OH232925   2.335   2.677  16.097 -0.3114 -0.1934 -0.2062
 3837TIP3    H132926   2.250   2.688  16.056 -0.6600  0.9387  0.7401
 3837TIP3    H232927   2.316   2.665  16.190  0.5662  2.0868  0.3560
 3838TIP3   OH232928   3.559   4.879  16.159  0.8943 -0.2994  0.4035
 3838TIP3    H132929   3.620   4.808  16.137  1.4929 -0.4382  2.2804
 3838TIP3    H232930   3.517   4.849  16.240  0.3312  1.0067  0.6082
 3839TIP3   OH232931   2.220   5.964  13.206  0.6157  0.3580 -0.2558
 3839TIP3    H132932   2.238   5.897  13.272  1.6301  1.1232  0.2695
 3839TIP3    H232933   2.124   5.966  13.199  0.5076 -0.0134  0.9030
 3840TIP3   OH232934   4.957   5.254   4.802  0.5474  0.1748  0.0888
 3840TIP3    H132935   4.876   5.260   4.753  1.0905 -1.2535 -1.0736
 3840TIP3    H232936   5.013   5.198   4.749  2.6586  1.8654  0.3717
 3841TIP3   OH232937   6.294   0.077  17.127  0.0659 -0.1189  0.0956
 3841TIP3    H132938   6.278   0.078  17.032 -0.5834  2.0681  0.1815
 3841TIP3    H232939   6.317  -0.014  17.146  0.9452 -0.4782 -2.2811
 3842TIP3   OH232940   5.297   5.540   6.351 -0.0032  0.2599 -0.1163
 3842TIP3    H132941   5.258   5.454   6.335 -0.9888  0.8100 -0.7770
 3842TIP3    H232942   5.260   5.567   6.436 -0.7096  0.5683 -0.5105
 3843TIP3   OH232943   5.346   5.756   1.126  0.1319  0.1283 -0.3700
 3843TIP3    H132944   5.305   5.677   1.161  4.6857 -2.0890  0.6970
 3843TIP3    H232945   5.333   5.822   1.195 -2.0115 -0.1880 -0.3995
 3844TIP3   OH232946   3.892   3.189   5.582 -0.0878 -0.2206 -0.6684
 3844TIP3    H132947   3.971   3.238   5.558  0.1368 -0.5216 -0.5522
 3844TIP3    H232948   3.869   3.221   5.670  1.1237 -1.6049  0.2106
 3845TIP3   OH232949   6.545   5.089  10.597 -0.8906 -0.2324 -0.0767
 3845TIP3    H132950   6.536   5.174  10.640  1.8130  0.1040 -0.0339
 3845TIP3    H232951   6.566   5.111  10.506 -2.2891 -0.9247 -0.5994
 3846TIP3   OH232952   1.432   2.275   1.508  0.5447 -0.3042 -0.1617
 3846TIP3    H132953   1.439   2.179   1.509 -1.0946 -0.4604  1.8436
 3846TIP3    H232954   1.394   2.295   1.422  1.2526 -1.3985 -0.7580
 3847TIP3   OH232955   6.697   6.492   5.280  0.1108  0.2220  0.1813
 3847TIP3    H132956   6.770   6.463   5.225 -0.2726 -1.4569  0.4981
 3847TIP3    H232957   6.736   6.555   5.341  1.2318 -0.3640  0.0984
 3848TIP3   OH232958   2.820   2.536  13.136  0.1982  0.2417  0.1561
 3848TIP3    H132959   2.812   2.615  13.083 -2.0078 -0.0539 -0.0739
 3848TIP3    H232960   2.761   2.550  13.210 -1.6078 -1.7942 -0.7729
 3849TIP3   OH232961   1.109   2.493  13.426 -0.8341  0.5997  0.1061
 3849TIP3    H132962   1.107   2.512  13.520 -3.0160  1.4572 -0.0481
 3849TIP3    H232963   1.110   2.397  13.421 -0.9489  0.5404  1.0101
 3850TIP3   OH232964   1.676   3.548   3.308 -0.0601  0.1413  0.6530
 3850TIP3    H132965   1.626   3.604   3.368  0.0113  0.0436  0.8053
 3850TIP3    H232966   1.610   3.510   3.250 -0.0654  0.6984  0.2825
 3851TIP3   OH232967   5.714   1.925   3.485 -0.6093  0.0960 -0.3373
 3851TIP3    H132968   5.768   1.895   3.558 -1.7212 -0.7026  0.1887
 3851TIP3    H232969   5.773   1.924   3.409  0.8701  2.0105  0.7027
 3852TIP3   OH232970   3.886   4.287  16.122 -0.0596  0.4122 -0.2041
 3852TIP3    H132971   3.798   4.276  16.087 -0.8039  1.9529  1.0507
 3852TIP3    H232972   3.907   4.202  16.161 -1.4427  0.3277  0.4184
 3853TIP3   OH232973   4.939   4.341   2.624  0.1713 -0.0867 -0.4502
 3853TIP3    H132974   4.940   4.436   2.614 -0.2196 -0.1633 -1.3681
 3853TIP3    H232975   4.861   4.323   2.676 -0.8702 -0.0122 -1.9075
 3854TIP3   OH232976   2.371   2.915  11.764  0.0786 -0.3304  0.6718
 3854TIP3    H132977   2.295   2.969  11.786  0.1956 -0.3590  1.1534
 3854TIP3    H232978   2.406   2.955  11.685 -0.1157  0.0129  0.7569
 3855TIP3   OH232979   6.483   4.948  16.723  0.6790 -0.5036  0.4522
 3855TIP3    H132980   6.396   4.912  16.740  0.5953 -1.7545 -2.1470
 3855TIP3    H232981   6.467   5.036  16.689  0.3767 -0.9811 -0.6514
 3856TIP3   OH232982   0.782   0.237   0.068 -0.3354 -0.2976  0.1477
 3856TIP3    H132983   0.794   0.326   0.100  0.9165 -1.0863  2.0739
 3856TIP3    H232984   0.869   0.197   0.075 -1.1270 -2.0655  0.7148
 3857TIP3   OH232985   5.830   2.374   4.426  0.2506  0.3182  0.0047
 3857TIP3    H132986   5.793   2.460   4.409 -3.5331 -1.5401 -2.3047
 3857TIP3    H232987   5.805   2.355   4.516  0.3746  1.2364  0.2486
 3858TIP3   OH232988   2.739   5.496   4.370 -0.0956 -0.3269  0.0213
 3858TIP3    H132989   2.681   5.431   4.409  2.4121 -1.2384  2.6152
 3858TIP3    H232990   2.749   5.469   4.279 -0.5687 -2.4974  0.5776
 3859TIP3   OH232991   4.285   1.366   5.483  0.7843  0.3505 -0.1172
 3859TIP3    H132992   4.232   1.445   5.496 -0.2271 -0.3348  0.0413
 3859TIP3    H232993   4.297   1.361   5.388 -0.4135 -0.0861 -0.2659
 3860TIP3   OH232994   6.553   2.679  12.332  0.4336 -0.4700 -0.6677
 3860TIP3    H132995   6.499   2.645  12.403  0.2073 -0.6493 -0.9191
 3860TIP3    H232996   6.643   2.665  12.361  0.3661  0.6657  0.1498
 3861TIP3   OH232997   1.680   1.417  14.806 -0.5536  0.2271  0.1175
 3861TIP3    H132998   1.642   1.501  14.781 -2.3977 -0.1571  1.3881
 3861TIP3    H232999   1.772   1.436  14.821 -0.9149  2.0146  0.2947
 3862TIP3   OH233000   3.452   4.610  13.848 -0.5753  0.0281 -0.3589
 3862TIP3    H133001   3.512   4.539  13.871 -0.8373 -0.2865 -0.6420
 3862TIP3    H233002   3.400   4.625  13.927 -2.2214 -1.7846 -1.0395
 3863TIP3   OH233003   5.183   5.250  14.175  0.6392  0.4759 -0.7684
 3863TIP3    H133004   5.187   5.232  14.269  1.3537 -0.3268 -0.9409
 3863TIP3    H233005   5.232   5.332  14.164  1.3277  0.0944 -0.5555
 3864TIP3   OH233006   5.697   2.789  12.405 -0.4479  0.4686  0.2407
 3864TIP3    H133007   5.673   2.759  12.317  1.8070 -1.1312  0.0955
 3864TIP3    H233008   5.668   2.719  12.463  1.3260 -0.2276  0.3334
 3865TIP3   OH233009   4.399   5.680  13.369 -0.0734 -0.4720 -0.5138
 3865TIP3    H133010   4.429   5.590  13.380  0.6340 -0.0582  1.3061
 3865TIP3    H233011   4.326   5.688  13.430  0.3747  0.3801 -0.0694
 3866TIP3   OH233012   3.215   1.079  12.915 -0.0199 -0.0624  0.2964
 3866TIP3    H133013   3.161   1.095  12.838  0.0447 -0.5589  0.1494
 3866TIP3    H233014   3.299   1.121  12.895 -0.6609  1.6084  0.9399
 3867TIP3   OH233015   6.657   3.921  14.103 -0.6088  0.6983  0.9498
 3867TIP3    H133016   6.590   3.981  14.070 -1.2713  0.4554  1.8337
 3867TIP3    H233017   6.616   3.877  14.177  0.4117  0.2959  1.2945
 3868TIP3   OH233018   4.461   2.247   4.789 -0.0949 -0.0593  0.3146
 3868TIP3    H133019   4.411   2.238   4.870 -1.3598 -1.3585 -0.5750
 3868TIP3    H233020   4.396   2.259   4.721  0.8807 -0.2192 -0.6820
 3869TIP3   OH233021   4.847   5.784   0.657 -0.7610 -0.7277  0.3348
 3869TIP3    H133022   4.861   5.691   0.671 -0.6043 -0.5952  1.1200
 3869TIP3    H233023   4.791   5.811   0.730  0.4970  0.1013  1.0424
 3870TIP3   OH233024   1.991   4.138  13.923 -0.4949 -0.3605 -0.5691
 3870TIP3    H133025   1.902   4.122  13.954  0.0922 -0.3351  1.2111
 3870TIP3    H233026   2.040   4.062  13.951  0.3935  0.3724 -0.0924
 3871TIP3   OH233027   1.404   0.165  16.899  0.6112 -0.6640 -0.3466
 3871TIP3    H133028   1.353   0.088  16.872 -0.7493  0.9080 -2.5290
 3871TIP3    H233029   1.391   0.169  16.994 -2.6029 -0.9382 -0.6594
 3872TIP3   OH233030   2.811   5.572   2.684 -0.3388  0.2956 -1.0491
 3872TIP3    H133031   2.867   5.644   2.711 -0.2497  0.5669 -1.9210
 3872TIP3    H233032   2.730   5.614   2.653 -0.7198 -0.0431 -0.5307
 3873TIP3   OH233033   1.974   5.099   3.164  0.2910 -0.1172 -0.2039
 3873TIP3    H133034   2.014   5.018   3.196  1.3288 -0.2690 -1.7391
 3873TIP3    H233035   1.883   5.077   3.148  0.2230 -0.5618  0.7712
 3874TIP3   OH233036   6.311   2.359  16.124 -0.2239 -0.4209 -0.4996
 3874TIP3    H133037   6.349   2.384  16.040 -0.7064 -0.5651 -0.7661
 3874TIP3    H233038   6.371   2.395  16.189  0.7681 -1.2842 -0.9142
 3875TIP3   OH233039   0.543   3.428   5.482  0.7099  0.6403  0.1973
 3875TIP3    H133040   0.583   3.515   5.473  0.9898  0.5836  0.8636
 3875TIP3    H233041   0.618   3.368   5.490  0.5418  0.2558 -0.8424
 3876TIP3   OH233042   6.351   6.228   0.821 -0.5017 -0.3478  0.0791
 3876TIP3    H133043   6.331   6.312   0.861 -2.7725 -1.6660  1.9694
 3876TIP3    H233044   6.429   6.197   0.867  0.5352  0.7767 -0.8433
 3877TIP3   OH233045   6.719   3.332  15.267  0.0332  0.2204  0.2571
 3877TIP3    H133046   6.690   3.261  15.209  1.8160  0.3926 -0.8965
 3877TIP3    H233047   6.800   3.299  15.306 -0.2873  0.7712  1.4347
 3878TIP3   OH233048   5.577   5.810  12.774 -0.1535 -0.6540 -0.3005
 3878TIP3    H133049   5.511   5.838  12.838 -0.0328 -0.4698 -0.2548
 3878TIP3    H233050   5.564   5.869  12.699  0.9859  0.4287  0.3229
 3879TIP3   OH233051   6.266   1.694  12.223  0.1531 -0.1104  0.1325
 3879TIP3    H133052   6.211   1.636  12.170  0.1168 -0.6733  0.7645
 3879TIP3    H233053   6.355   1.659  12.211  0.2451  0.2138 -0.1377
 3880TIP3   OH233054   1.837   5.029  10.688  0.1296  0.3185 -0.0837
 3880TIP3    H133055   1.833   4.947  10.638  0.6680  0.1999  0.0619
 3880TIP3    H233056   1.927   5.059  10.678  1.0209 -1.0097  2.8703
 3881TIP3   OH233057   3.756   3.463  11.818  0.5218 -0.5345 -0.0339
 3881TIP3    H133058   3.801   3.544  11.841  1.4670 -1.3857  1.2365
 3881TIP3    H233059   3.801   3.395  11.868 -0.1800 -1.8687 -1.1426
 3882TIP3   OH233060   3.045   1.151   3.223 -0.2077  0.4621  0.1532
 3882TIP3    H133061   3.079   1.239   3.236  0.8293 -0.0239  0.9370
 3882TIP3    H233062   3.033   1.117   3.312 -1.7574  0.2290 -0.1214
 3883TIP3   OH233063   0.104   2.319   5.256 -0.1128  0.4894 -0.3774
 3883TIP3    H133064   0.060   2.292   5.176 -0.6456  0.6854 -0.1576
 3883TIP3    H233065   0.038   2.369   5.304  0.3203  0.7058  0.0057
 3884TIP3   OH233066   2.727   5.668  14.964 -0.2589 -0.2901 -0.5052
 3884TIP3    H133067   2.674   5.609  15.017  1.3463 -3.0053 -1.7350
 3884TIP3    H233068   2.797   5.696  15.022 -1.2274  0.7647  0.1910
 3885TIP3   OH233069   3.270   3.813   2.122  0.4173 -0.3601 -0.0131
 3885TIP3    H133070   3.327   3.890   2.125  0.9070 -0.7157 -0.0137
 3885TIP3    H233071   3.329   3.739   2.139  0.0935 -0.8048 -0.7651
 3886TIP3   OH233072   2.432   2.726  12.325  0.3878  0.6334 -0.2169
 3886TIP3    H133073   2.407   2.786  12.395 -1.8257 -1.5530  1.0137
 3886TIP3    H233074   2.419   2.776  12.244  0.5974  2.4177  0.8100
 3887TIP3   OH233075   1.009   4.534   5.376 -0.4127 -0.3148 -0.0206
 3887TIP3    H133076   1.086   4.489   5.412 -1.3095 -1.3007  0.7456
 3887TIP3    H233077   0.956   4.555   5.453 -0.9082  0.3638 -0.5421
 3888TIP3   OH233078   0.428   6.302   1.621  0.2479 -0.0093  0.9909
 3888TIP3    H133079   0.379   6.257   1.689 -1.0004  2.6787  2.0301
 3888TIP3    H233080   0.366   6.312   1.548 -0.0073  1.2592  1.3560
 3889TIP3   OH233081   2.130   3.195  16.882 -0.5759 -0.0052  0.0852
 3889TIP3    H133082   2.169   3.167  16.800 -0.0509 -1.9669  0.9439
 3889TIP3    H233083   2.199   3.244  16.927  0.0378 -1.1398  0.4259
 3890TIP3   OH233084   2.006   0.696   6.141  0.2948 -0.1611  0.4032
 3890TIP3    H133085   2.043   0.632   6.202  2.5841  1.1347  0.5016
 3890TIP3    H233086   2.022   0.781   6.183 -1.1878  0.5991 -0.4722
 3891TIP3   OH233087   2.430   6.225   3.971  0.5005 -0.1086  0.2416
 3891TIP3    H133088   2.462   6.242   3.883  1.4151 -3.1919 -0.1334
 3891TIP3    H233089   2.475   6.145   3.999 -1.1255 -0.2794  2.7868
 3892TIP3   OH233090   2.469   6.503   5.194 -0.1181 -0.0887  0.2273
 3892TIP3    H133091   2.427   6.440   5.136 -0.4086  0.7467 -0.4871
 3892TIP3    H233092   2.529   6.450   5.247  0.9902 -0.7472 -1.5885
 3893TIP3   OH233093   6.706   0.052   1.669 -0.4129  0.7455 -0.2650
 3893TIP3    H133094   6.625   0.011   1.701 -1.6172  3.0456 -0.1201
 3893TIP3    H233095   6.765   0.050   1.744 -0.6337 -0.2067 -0.1044
 3894TIP3   OH233096   5.679   0.520   1.683 -0.1760  0.2640  0.1146
 3894TIP3    H133097   5.623   0.443   1.700  0.3240 -0.0861  0.1932
 3894TIP3    H233098   5.661   0.543   1.592  0.8365 -0.9199 -0.4116
 3895TIP3   OH233099   2.148   3.769  14.252  0.2835  0.3079  0.3150
 3895TIP3    H133100   2.111   3.723  14.327  1.7680  1.4458  1.8183
 3895TIP3    H233101   2.238   3.736  14.245  0.2962  0.5156 -0.7130
 3896TIP3   OH233102   3.759   0.036  11.665  0.1212 -0.1198 -0.2136
 3896TIP3    H133103   3.738  -0.034  11.603  0.9166 -1.3165  0.8198
 3896TIP3    H233104   3.796  -0.009  11.741  0.2176  1.3941  0.6847
 3897TIP3   OH233105   6.220   2.125  11.151  0.4017  0.6454 -0.0076
 3897TIP3    H133106   6.284   2.195  11.167 -0.1367  0.9979  0.6673
 3897TIP3    H233107   6.227   2.068  11.228 -1.7807  2.0094  1.2898
 3898TIP3   OH233108   1.680   1.177   3.549  0.4869  0.1961  0.4355
 3898TIP3    H133109   1.714   1.258   3.510  0.3848 -0.6196 -1.4881
 3898TIP3    H233110   1.756   1.140   3.595  1.2432  0.2103 -0.7325
 3899TIP3   OH233111   6.482   2.419   5.607 -0.0861  0.1665  0.2069
 3899TIP3    H133112   6.498   2.374   5.690 -0.1880 -1.7624 -0.7571
 3899TIP3    H233113   6.432   2.497   5.631 -1.7873 -1.3203  1.8060
 3900TIP3   OH233114   4.585   6.219   4.162  0.1047 -0.3707 -0.1593
 3900TIP3    H133115   4.595   6.291   4.099  1.3241  2.1013  2.6488
 3900TIP3    H233116   4.669   6.173   4.159  0.2497 -0.1068 -0.1245
 3901TIP3   OH233117   5.480   1.776   0.875 -0.0905  0.2149  0.4480
 3901TIP3    H133118   5.521   1.715   0.937 -0.6353 -0.1810  0.4307
 3901TIP3    H233119   5.389   1.747   0.870  0.3312 -0.9513 -1.9668
 3902TIP3   OH233120   3.230   0.354   2.522  0.0477 -0.0559  0.2546
 3902TIP3    H133121   3.165   0.293   2.488 -1.5902  1.7412 -0.0497
 3902TIP3    H233122   3.196   0.381   2.608  1.3485 -0.4545  0.9149
 3903TIP3   OH233123   3.485   4.785   4.291 -0.2378 -0.1275 -0.0407
 3903TIP3    H133124   3.398   4.806   4.259 -0.8122 -0.1554  1.4027
 3903TIP3    H233125   3.479   4.797   4.386  1.8952  1.9225 -0.0772
 3904TIP3   OH233126   4.624   6.151  15.001  0.3269 -0.3411 -0.5396
 3904TIP3    H133127   4.586   6.197  15.076  0.0049 -3.3783  1.2982
 3904TIP3    H233128   4.552   6.146  14.938 -0.5454 -0.9000  0.4682
 3905TIP3   OH233129   2.580   1.004  17.211 -0.4948  0.5400 -0.0973
 3905TIP3    H133130   2.497   0.977  17.249 -0.7475  1.9523  0.3865
 3905TIP3    H233131   2.569   0.990  17.117  0.3346 -3.5291  0.2093
 3906TIP3   OH233132   2.380   5.229   5.682 -0.3576 -0.2070  0.2560
 3906TIP3    H133133   2.347   5.207   5.769 -0.7334  0.6067  0.3250
 3906TIP3    H233134   2.325   5.302   5.653  1.9039  1.8572  0.7794
 3907TIP3   OH233135   0.030   5.751  12.573  0.4981 -0.3519  0.4574
 3907TIP3    H133136   0.037   5.731  12.480 -0.7076  2.9626 -0.5057
 3907TIP3    H233137   0.110   5.716  12.612  1.5048 -0.9647 -2.0076
 3908TIP3   OH233138   3.925   6.360  15.018 -0.0294  0.3523 -0.0217
 3908TIP3    H133139   3.929   6.340  15.111  0.3590 -0.0809 -0.1295
 3908TIP3    H233140   3.832   6.364  14.998 -0.1279 -1.0364  0.0755
 3909TIP3   OH233141   2.473   2.384  12.471  0.8916  0.0906 -0.2265
 3909TIP3    H133142   2.403   2.406  12.533 -0.2508 -2.3758 -0.5241
 3909TIP3    H233143   2.552   2.380  12.524  0.6215  1.7269  0.3505
 3910TIP3   OH233144   3.710   0.090   0.550 -0.2917  0.0069 -0.1497
 3910TIP3    H133145   3.800   0.098   0.520  0.1711  0.9783  1.3574
 3910TIP3    H233146   3.657   0.117   0.475  0.7065  0.2764 -0.7799
 3911TIP3   OH233147   4.264   4.862   0.972 -0.3027 -0.8872 -0.6999
 3911TIP3    H133148   4.357   4.839   0.967 -0.2042 -0.6933  0.1235
 3911TIP3    H233149   4.249   4.882   1.064 -0.2720  2.7870 -1.3403
 3912TIP3   OH233150   5.529   0.919   0.881  0.6508  0.5653  0.3754
 3912TIP3    H133151   5.497   0.844   0.932  1.0625 -2.0830 -2.8758
 3912TIP3    H233152   5.620   0.896   0.860  0.9740  2.2880 -0.2119
 3913TIP3   OH233153   0.874   1.272  12.141 -0.3110 -0.2284  0.3284
 3913TIP3    H133154   0.799   1.289  12.198  0.3670 -0.5005  1.3310
 3913TIP3    H233155   0.948   1.262  12.202  0.3396 -1.0209 -0.5725
 3914TIP3   OH233156   4.655   5.280   4.178  0.2532 -0.2044 -0.3700
 3914TIP3    H133157   4.597   5.347   4.143  0.1947 -0.1872 -0.2395
 3914TIP3    H233158   4.641   5.204   4.121 -0.6506 -0.5350  0.2718
 3915TIP3   OH233159   1.573   3.600   5.419 -0.1020  0.1444 -0.6886
 3915TIP3    H133160   1.646   3.553   5.379  0.9740  1.1506  0.0285
 3915TIP3    H233161   1.569   3.683   5.371  1.4389  1.5310  1.3715
 3916TIP3   OH233162   0.543   3.864   4.629 -0.3070 -0.0228 -0.0930
 3916TIP3    H133163   0.581   3.951   4.617 -1.1386  0.7439  2.1448
 3916TIP3    H233164   0.463   3.881   4.679 -0.6234 -2.0644  0.1559
 3917TIP3   OH233165   0.746   6.279   2.166  0.4305 -0.3451 -0.3701
 3917TIP3    H133166   0.716   6.310   2.081  0.8393 -1.3503 -0.9005
 3917TIP3    H233167   0.696   6.199   2.181  1.5046 -1.0382 -0.4116
 3918TIP3   OH233168   5.410   0.267   1.339  0.7768  0.0817 -0.6246
 3918TIP3    H133169   5.375   0.215   1.411 -1.3464  2.1017 -0.0518
 3918TIP3    H233170   5.383   0.221   1.260 -0.9855  0.1791 -0.1327
 3919TIP3   OH233171   2.406   6.442  16.502  0.2540  0.3341 -0.5116
 3919TIP3    H133172   2.401   6.529  16.462 -1.7526  0.3323 -0.3966
 3919TIP3    H233173   2.480   6.447  16.562 -0.3741  2.3031  0.1806
 3920TIP3   OH233174   6.481   5.436  15.005  0.6066 -0.1917  0.0890
 3920TIP3    H133175   6.390   5.443  14.975  0.0488 -0.0066  1.7192
 3920TIP3    H233176   6.480   5.361  15.065  0.9751  1.2017  1.9173
 3921TIP3   OH233177   2.341   3.796  17.026 -0.0392  0.1413  0.1894
 3921TIP3    H133178   2.315   3.888  17.032 -2.6291 -0.1522 -3.2327
 3921TIP3    H233179   2.272   3.748  17.071  0.4949 -0.2274  0.6299
 3922TIP3   OH233180   3.943   3.219   2.649  0.8719 -0.2972  0.0054
 3922TIP3    H133181   4.034   3.216   2.621  0.4657 -1.4665 -1.2946
 3922TIP3    H233182   3.893   3.186   2.574 -0.3368 -3.1311  1.8776
 3923TIP3   OH233183   2.462   0.674  11.796  0.6618 -0.0971 -0.4231
 3923TIP3    H133184   2.431   0.607  11.857 -0.2291  0.8314  0.1851
 3923TIP3    H233185   2.383   0.704  11.751  1.1087  0.2273 -1.0036
 3924TIP3   OH233186   4.494   6.032   3.791  0.5149  0.5335  0.2990
 3924TIP3    H133187   4.452   5.959   3.745  0.1235  0.6014  0.5474
 3924TIP3    H233188   4.463   6.110   3.744  2.4052  0.4754 -1.1845
 3925TIP3   OH233189   2.826   1.506  11.075 -0.1853 -0.0327 -0.4874
 3925TIP3    H133190   2.826   1.534  10.983 -0.1869 -1.6246 -0.9914
 3925TIP3    H233191   2.901   1.448  11.084  0.3450  0.7873  0.7701
 3926TIP3   OH233192   6.580   0.393   0.161  0.4888 -0.7562  0.1084
 3926TIP3    H133193   6.640   0.456   0.121  1.3449 -1.4535  0.2667
 3926TIP3    H233194   6.514   0.448   0.204  0.9598  0.0317 -0.1415
 3927TIP3   OH233195   0.211   2.853  15.977 -0.1687  0.5677 -0.4746
 3927TIP3    H133196   0.236   2.773  16.023  1.1941 -0.5487 -2.9165
 3927TIP3    H233197   0.127   2.833  15.937 -1.6844  1.7692  1.8739
 3928TIP3   OH233198   4.909   4.284   2.998  0.0441  0.2368 -0.7541
 3928TIP3    H133199   4.887   4.253   2.910 -0.6606 -0.7527 -0.2454
 3928TIP3    H233200   4.914   4.205   3.051 -0.4191  0.8832  0.2902
 3929TIP3   OH233201   0.098   2.135   1.266  0.2354 -0.0959 -0.2118
 3929TIP3    H133202   0.138   2.048   1.260  0.5048 -0.0774  1.1762
 3929TIP3    H233203   0.015   2.120   1.310  0.4336  0.4019  0.3330
 3930TIP3   OH233204   2.405   5.566  15.413  0.0577  0.1767  0.0342
 3930TIP3    H133205   2.374   5.642  15.462  0.5584  2.7674 -3.3199
 3930TIP3    H233206   2.495   5.589  15.388  0.5369 -1.9518 -0.4094
 3931TIP3   OH233207   4.814   3.882  13.935  0.3861 -0.3800  0.1677
 3931TIP3    H133208   4.730   3.838  13.920  0.1884 -0.8082  2.2494
 3931TIP3    H233209   4.871   3.848  13.866 -1.0568 -0.2817 -1.1239
 3932TIP3   OH233210   3.044   3.598  16.294 -0.4205 -0.1119  0.6124
 3932TIP3    H133211   3.051   3.693  16.286  2.2646 -0.1040  2.0267
 3932TIP3    H233212   3.097   3.564  16.221  0.1287 -0.4677  1.1654
 3933TIP3   OH233213   4.425   4.800   3.656  0.3636  0.1500 -0.2131
 3933TIP3    H133214   4.459   4.824   3.569 -0.0427  0.9969 -0.1524
 3933TIP3    H233215   4.391   4.712   3.645  1.2530 -0.1584 -0.6498
 3934TIP3   OH233216   0.729   6.718  11.869  0.2643 -0.1154  0.0089
 3934TIP3    H133217   0.824   6.716  11.882  0.4292  2.2641 -0.2900
 3934TIP3    H233218   0.704   6.626  11.863  2.2624 -0.9020  2.0097
 3935TIP3   OH233219   5.355   5.250   1.202 -0.0461 -0.0015 -0.0269
 3935TIP3    H133220   5.305   5.263   1.282 -0.5158  1.2723 -0.5008
 3935TIP3    H233221   5.374   5.156   1.201 -0.7513 -0.1843  1.1402
 3936TIP3   OH233222   6.008   1.166  13.899 -0.3963 -0.7520 -0.5013
 3936TIP3    H133223   5.988   1.166  13.993  0.7503 -0.7724 -0.2413
 3936TIP3    H233224   5.929   1.201  13.858 -1.6457 -2.5220  0.2823
 3937TIP3   OH233225   1.443   2.394  12.660 -0.8000 -0.0409 -0.0995
 3937TIP3    H133226   1.422   2.335  12.732  0.7938 -0.9761 -0.3603
 3937TIP3    H233227   1.484   2.339  12.594 -0.2186  1.1692 -0.7898
 3938TIP3   OH233228   2.514   5.020   2.477 -0.4202  0.3375 -0.2066
 3938TIP3    H133229   2.422   5.004   2.458 -0.5107  1.7607 -1.0092
 3938TIP3    H233230   2.513   5.074   2.556 -0.2464 -0.1308  0.1199
 3939TIP3   OH233231   1.663   6.446  13.227 -0.3693 -0.2442  0.0826
 3939TIP3    H133232   1.604   6.390  13.176  0.0937 -2.5297  1.9189
 3939TIP3    H233233   1.609   6.521  13.250 -1.1751 -0.0839 -2.0349
 3940TIP3   OH233234   4.214   2.442   2.751 -0.1026  0.1703 -0.3057
 3940TIP3    H133235   4.303   2.454   2.718  0.5024 -0.7276  0.9213
 3940TIP3    H233236   4.184   2.361   2.709  0.5877 -0.8535  1.0816
 3941TIP3   OH233237   3.991   4.385  12.555  1.2236 -0.3784  0.2685
 3941TIP3    H133238   3.934   4.380  12.632 -1.6523  0.8610 -1.6033
 3941TIP3    H233239   4.056   4.452  12.578  0.1221  0.3271  1.4634
 3942TIP3   OH233240   2.101   2.318   3.553 -0.5072 -0.2234  0.1014
 3942TIP3    H133241   2.170   2.259   3.582 -0.7521 -0.3202  0.4883
 3942TIP3    H233242   2.061   2.351   3.633  0.0966  1.0390 -0.0931
 3943TIP3   OH233243   0.091   1.120   4.961  0.1998 -0.1859  0.5793
 3943TIP3    H133244   0.147   1.057   5.006  1.3213  0.9553  0.8637
 3943TIP3    H233245   0.002   1.092   4.980  0.6751 -1.3715  1.1225
 3944TIP3   OH233246   6.274   0.693  13.091  0.1625 -0.1678 -0.1469
 3944TIP3    H133247   6.327   0.761  13.051  2.4854 -0.8562  1.5398
 3944TIP3    H233248   6.322   0.612  13.074 -0.3857 -0.8497  1.3277
 3945TIP3   OH233249   5.328   1.435  17.278  0.0119  0.0105 -0.5152
 3945TIP3    H133250   5.346   1.370  17.210 -0.7544  0.7141 -1.4058
 3945TIP3    H233251   5.291   1.509  17.232 -0.8334  0.3876  0.7090
 3946TIP3   OH233252   2.186   0.363  14.823  0.0708 -0.5576 -0.3091
 3946TIP3    H133253   2.157   0.413  14.747  0.7210 -2.3655 -1.8299
 3946TIP3    H233254   2.216   0.279  14.786 -0.4732 -1.8701  2.0266
 3947TIP3   OH233255   4.325   1.237   5.868 -0.1174  0.4058  0.3662
 3947TIP3    H133256   4.403   1.189   5.894 -0.0954  0.9046  1.2425
 3947TIP3    H233257   4.296   1.194   5.787  1.4099  0.6049 -0.3085
 3948TIP3   OH233258   5.153   4.668  11.964  0.6744 -0.0388 -0.0149
 3948TIP3    H133259   5.141   4.605  11.893 -1.5024  0.3180 -0.0138
 3948TIP3    H233260   5.142   4.753  11.923  0.0022  0.1949  0.6379
 3949TIP3   OH233261   3.542   2.672   2.139  0.0728 -0.1906 -0.1660
 3949TIP3    H133262   3.462   2.650   2.091 -0.5223  1.2707  0.1019
 3949TIP3    H233263   3.577   2.749   2.093  0.4909  0.1012  0.6278
 3950TIP3   OH233264   2.622   1.010   5.755  0.1839  0.5144  0.6303
 3950TIP3    H133265   2.713   1.001   5.725  0.0673 -0.5660  0.5561
 3950TIP3    H233266   2.596   1.097   5.727  1.1739  0.8086  0.5792
 3951TIP3   OH233267   3.463   4.697   4.638  0.2699  0.2948 -0.0179
 3951TIP3    H133268   3.441   4.666   4.725 -1.8010 -0.1414 -0.6410
 3951TIP3    H233269   3.524   4.631   4.604 -0.3118 -0.5070  0.4504
 3952TIP3   OH233270   2.973   4.677   3.358 -0.1440  0.0666 -0.4675
 3952TIP3    H133271   3.032   4.744   3.322  0.2676 -0.5484 -0.9588
 3952TIP3    H233272   2.888   4.697   3.319 -1.0080  2.6484  2.3302
 3953TIP3   OH233273   1.697   2.999  15.952  0.2607 -0.3303 -0.3211
 3953TIP3    H133274   1.730   2.993  16.042  1.3561  1.6691 -0.5238
 3953TIP3    H233275   1.745   3.073  15.914 -0.6560 -0.7158 -2.3551
 3954TIP3   OH233276   3.093   3.715  14.494  0.0100  0.5092  0.3509
 3954TIP3    H133277   3.187   3.737  14.496  0.2343 -0.1970 -1.0240
 3954TIP3    H233278   3.064   3.744  14.407 -0.8585  0.0010  0.4638
 3955TIP3   OH233279   4.776   0.015  13.866  0.7791  0.1882 -0.1875
 3955TIP3    H133280   4.697   0.066  13.848  0.5464  0.7554  2.0728
 3955TIP3    H233281   4.845   0.057  13.814  0.0811  1.2886 -0.2550
 3956TIP3   OH233282   2.081   0.358  12.597 -0.6154  0.0129 -0.2091
 3956TIP3    H133283   2.129   0.289  12.643 -1.0636  0.7866  1.5053
 3956TIP3    H233284   2.127   0.438  12.621 -0.3239  0.3762 -1.8833
 3957TIP3   OH233285   5.702   4.876  13.908 -0.3674  0.3687  0.1550
 3957TIP3    H133286   5.766   4.947  13.916 -0.8659  0.9722 -0.9619
 3957TIP3    H233287   5.751   4.797  13.932  0.6922  0.8619 -0.2883
 3958TIP3   OH233288   2.762   2.025   3.905 -0.1283  0.0184 -0.1359
 3958TIP3    H133289   2.742   1.966   3.978  0.9410  2.4295  2.2862
 3958TIP3    H233290   2.685   2.083   3.899  1.0301  1.8233  1.3071
 3959TIP3   OH233291   6.316   0.460  11.397 -0.0328 -0.3779 -0.8445
 3959TIP3    H133292   6.372   0.534  11.372  0.0136  0.4157  1.4100
 3959TIP3    H233293   6.228   0.497  11.404 -0.5702 -1.2189 -2.5150
 3960TIP3   OH233294   3.869   4.835   0.563 -0.3546  0.8389 -0.5641
 3960TIP3    H133295   3.783   4.863   0.594 -1.2934  0.3667 -2.5700
 3960TIP3    H233296   3.868   4.855   0.470  1.8673  1.1301 -0.5709
 3961TIP3   OH233297   0.430   5.110  13.569 -0.2033 -0.3717  0.3000
 3961TIP3    H133298   0.445   5.032  13.623 -3.4742 -0.6716  1.0241
 3961TIP3    H233299   0.381   5.169  13.627 -1.3498  0.4872 -1.4470
 3962TIP3   OH233300   6.128   4.608  14.994  0.2136 -0.1432  0.4888
 3962TIP3    H133301   6.183   4.531  15.008  1.8192  0.8262 -0.2180
 3962TIP3    H233302   6.120   4.649  15.080  0.0553 -0.6295  0.7090
 3963TIP3   OH233303   4.856   2.168  11.596 -0.5769 -0.5272 -0.0073
 3963TIP3    H133304   4.941   2.137  11.564  0.0876  0.0133  1.1648
 3963TIP3    H233305   4.797   2.158  11.521  1.1091  1.6680 -1.7717
 3964TIP3   OH233306   3.699   4.582  12.681  0.0776 -0.3499 -0.0465
 3964TIP3    H133307   3.649   4.515  12.634  0.9350  0.8224 -2.8685
 3964TIP3    H233308   3.767   4.609  12.619  0.5983  2.1913  1.4778
 3965TIP3   OH233309   5.925   3.890  17.130  0.1579 -0.1649 -0.6113
 3965TIP3    H133310   5.938   3.831  17.055 -1.8078 -1.3994 -0.0355
 3965TIP3    H233311   5.882   3.837  17.196 -0.8423  1.6786  0.3050
 3966TIP3   OH233312   1.894   3.222   3.775  0.5945  0.5132  0.0305
 3966TIP3    H133313   1.836   3.232   3.851  0.6598  1.4540 -0.0415
 3966TIP3    H233314   1.912   3.311   3.746  1.3368  0.1947 -0.5184
 3967TIP3   OH233315   5.205   6.692   2.216  0.3854 -0.3980  0.1544
 3967TIP3    H133316   5.213   6.662   2.125 -1.1526 -2.0580  0.5233
 3967TIP3    H233317   5.208   6.612   2.268 -0.6215  0.3660  1.4233
 3968TIP3   OH233318   4.832   3.121  15.607 -0.6923 -0.4288 -0.9927
 3968TIP3    H133319   4.917   3.110  15.564 -0.0882 -1.9582  0.4333
 3968TIP3    H233320   4.835   3.210  15.643  1.1466 -1.0375  0.5868
 3969TIP3   OH233321   3.312   2.087  16.174  0.0235  0.1973 -0.3850
 3969TIP3    H133322   3.359   2.140  16.238  2.1043 -1.4339 -0.4556
 3969TIP3    H233323   3.332   2.129  16.090  3.2877 -1.5850 -0.6734
 3970TIP3   OH233324   0.406   2.184  13.836  0.3390  0.0083  0.0372
 3970TIP3    H133325   0.432   2.099  13.872  0.6125  0.1744  0.2271
 3970TIP3    H233326   0.318   2.168  13.801  0.1824 -0.2228  0.5310
 3971TIP3   OH233327   3.016   6.351   0.176 -0.4706  0.2632 -0.2728
 3971TIP3    H133328   3.090   6.309   0.132 -0.1316  1.8928 -1.3715
 3971TIP3    H233329   3.054   6.393   0.252 -1.0671 -2.6060  1.7838
 3972TIP3   OH233330   0.858   4.629  13.233  0.4056  0.0775 -0.6406
 3972TIP3    H133331   0.854   4.644  13.138 -0.8774 -0.0120 -0.6085
 3972TIP3    H233332   0.773   4.659  13.266  1.3041  1.3599  0.6747
 3973TIP3   OH233333   2.411   1.345  15.696 -0.3451  0.5546 -0.0478
 3973TIP3    H133334   2.332   1.390  15.666 -1.5741 -1.8220 -0.6000
 3973TIP3    H233335   2.458   1.322  15.616  0.4951  1.2109  0.2447
 3974TIP3   OH233336   3.151   0.211   0.783  0.0456  0.2351 -0.2443
 3974TIP3    H133337   3.147   0.138   0.721 -2.1332  0.4432 -0.4372
 3974TIP3    H233338   3.107   0.178   0.861  2.8361 -0.0538  1.3382
 3975TIP3   OH233339   5.068   2.562  12.083  0.1536  0.1724  0.2344
 3975TIP3    H133340   5.023   2.490  12.127 -0.1070  0.7482  0.9112
 3975TIP3    H233341   5.021   2.641  12.109  0.1820  0.5600 -0.8314
 3976TIP3   OH233342   6.070   3.741  15.974 -0.2403  0.1188 -0.1621
 3976TIP3    H133343   6.091   3.710  15.885  0.7067  0.0534  0.0651
 3976TIP3    H233344   6.141   3.802  15.994 -0.4364  0.1107  0.5618
 3977TIP3   OH233345   1.829   0.395   3.712  0.1038  0.5188 -0.7939
 3977TIP3    H133346   1.885   0.422   3.785 -2.1227  1.2741  0.7543
 3977TIP3    H233347   1.879   0.326   3.669  2.4061  1.4587  0.1664
 3978TIP3   OH233348   5.270   1.675  14.381 -0.6500 -0.3555 -0.1999
 3978TIP3    H133349   5.186   1.715  14.358 -1.4967 -2.0752 -0.2399
 3978TIP3    H233350   5.328   1.749  14.397 -1.6278  0.9080 -2.0772
 3979TIP3   OH233351   6.448   0.512   2.335  0.2194  0.0028 -0.3057
 3979TIP3    H133352   6.396   0.578   2.289 -1.9281 -1.7098 -0.5630
 3979TIP3    H233353   6.382   0.459   2.382  1.9216 -1.2775  0.7528
 3980TIP3   OH233354   5.110   5.531  12.247  0.3610 -0.4960  0.0175
 3980TIP3    H133355   5.068   5.452  12.281 -1.6792 -0.5098 -2.2542
 3980TIP3    H233356   5.040   5.596  12.245  1.4012  0.6432 -0.4164
 3981TIP3   OH233357   0.794   4.395   4.026 -0.1226  0.8583  0.5071
 3981TIP3    H133358   0.734   4.463   3.995  0.2837  0.5014 -1.1415
 3981TIP3    H233359   0.823   4.350   3.947  1.1182  0.0028  1.4033
 3982TIP3   OH233360   2.529   4.697   5.967 -0.1353 -0.6992  0.2394
 3982TIP3    H133361   2.457   4.757   5.987  0.8821  0.8274 -0.5281
 3982TIP3    H233362   2.608   4.750   5.974  0.6296 -1.0887 -3.3268
 3983TIP3   OH233363   1.465   1.917  10.765  0.1367  0.0280  0.1599
 3983TIP3    H133364   1.378   1.922  10.727 -0.4726  1.5381  1.6244
 3983TIP3    H233365   1.495   1.828  10.747 -0.7509  0.1756 -2.3414
 3984TIP3   OH233366   3.244   3.759   5.337 -0.3908  0.1727 -1.0658
 3984TIP3    H133367   3.228   3.665   5.344  0.3611  0.0712 -0.5845
 3984TIP3    H233368   3.332   3.771   5.373 -0.4454  1.0487 -1.2057
 3985TIP3   OH233369   0.427   4.389  16.176  0.1699 -0.4608 -0.2397
 3985TIP3    H133370   0.394   4.378  16.266  0.8237 -0.2159  0.0400
 3985TIP3    H233371   0.363   4.345  16.121 -1.2816  1.0178  0.1720
 3986TIP3   OH233372   6.472   2.518   2.176 -0.2553 -0.0379 -0.5945
 3986TIP3    H133373   6.424   2.436   2.182 -1.1146  0.3122 -2.1994
 3986TIP3    H233374   6.430   2.575   2.240  1.2170 -1.1917  1.5333
 3987TIP3   OH233375   2.995   6.189  11.305 -0.3947 -0.1497  0.3580
 3987TIP3    H133376   2.947   6.108  11.289  0.2986 -0.2719 -1.3511
 3987TIP3    H233377   3.030   6.213  11.219 -1.0267  2.2480  0.7078
 3988TIP3   OH233378   2.502   2.123   4.222 -0.3827  0.2855 -0.4226
 3988TIP3    H133379   2.533   2.175   4.296 -0.8235 -0.5972  0.3989
 3988TIP3    H233380   2.498   2.033   4.255 -0.5094 -0.1398 -1.5410
 3989TIP3   OH233381   6.391   3.149   2.860 -0.0914 -0.4067  0.4037
 3989TIP3    H133382   6.349   3.156   2.946  0.7608 -0.1357  0.8077
 3989TIP3    H233383   6.481   3.125   2.880 -0.3410 -2.2591 -0.5063
 3990TIP3   OH233384   4.503   4.536   3.534 -0.0407  0.0141  0.4048
 3990TIP3    H133385   4.567   4.472   3.565 -1.0677 -1.9382 -1.3329
 3990TIP3    H233386   4.549   4.620   3.540  1.8116 -1.0189  1.4868
 3991TIP3   OH233387   1.853   5.984  15.599  0.6863  0.5089  0.1550
 3991TIP3    H133388   1.793   5.971  15.672 -0.9078  1.5326 -0.9208
 3991TIP3    H233389   1.799   6.019  15.528  2.2887  0.1328 -1.3382
 3992TIP3   OH233390   1.187   3.169  13.731  0.0168  0.3182 -0.4257
 3992TIP3    H133391   1.273   3.129  13.722  0.2514  0.3962  1.2565
 3992TIP3    H233392   1.205   3.257  13.765 -0.6615  0.8523 -1.3878
 3993TIP3   OH233393   1.026   5.227   2.331 -0.2258  0.0138 -0.2179
 3993TIP3    H133394   0.949   5.208   2.384 -0.6825 -1.0402 -1.2241
 3993TIP3    H233395   1.016   5.320   2.307 -1.9020 -0.4245 -1.4202
 3994TIP3   OH233396   3.404   6.545   6.489 -0.1664  0.4743  0.3257
 3994TIP3    H133397   3.434   6.631   6.458  0.0809  0.2242 -0.1344
 3994TIP3    H233398   3.312   6.541   6.464  0.4656 -0.4907 -2.1445
 3995TIP3   OH233399   3.700   0.056  14.148  0.0982 -0.4759 -0.3668
 3995TIP3    H133400   3.701  -0.024  14.200  0.7681 -0.1953  0.0686
 3995TIP3    H233401   3.792   0.078  14.135 -0.0484  1.0126  0.7969
 3996TIP3   OH233402   1.869   2.548   4.848 -0.2899  0.4882 -0.3167
 3996TIP3    H133403   1.826   2.629   4.819  0.5093  0.8482 -0.5205
 3996TIP3    H233404   1.957   2.576   4.875 -0.6207 -0.0093  1.4123
 3997TIP3   OH233405   4.483   5.313   1.356 -0.2447  0.2166  0.0409
 3997TIP3    H133406   4.554   5.249   1.345 -1.4597 -0.9369 -1.9240
 3997TIP3    H233407   4.476   5.326   1.450  0.6856 -1.8695  0.4560
 3998TIP3   OH233408   5.640   5.214  15.133  0.3998  0.0284 -0.7236
 3998TIP3    H133409   5.644   5.250  15.045 -0.5667 -0.0842 -0.8267
 3998TIP3    H233410   5.563   5.157  15.132 -0.4096  1.0284  0.5425
 3999TIP3   OH233411   1.146   0.823  11.632 -0.1412  0.1333 -0.6621
 3999TIP3    H133412   1.109   0.850  11.548  0.1630 -1.8104 -1.4958
 3999TIP3    H233413   1.071   0.794  11.683 -0.0387 -2.6795 -1.9107
 4000TIP3   OH233414   1.785   2.026   0.460  0.7862  0.4759 -0.2124
 4000TIP3    H133415   1.846   1.977   0.514 -1.2270  0.2858  2.0318
 4000TIP3    H233416   1.750   2.094   0.517 -1.9811 -0.1754 -0.9676
 4001TIP3   OH233417   2.970   1.550  13.198  0.1055  0.1234 -0.2849
 4001TIP3    H133418   3.010   1.494  13.132  0.5161 -0.6640  0.6073
 4001TIP3    H233419   2.901   1.495  13.237 -0.6581  0.8473 -0.5863
 4002TIP3   OH233420   1.833   5.621  15.773 -0.3383 -0.2732 -0.0152
 4002TIP3    H133421   1.850   5.570  15.852  0.1902 -0.2163 -0.0877
 4002TIP3    H233422   1.852   5.711  15.798 -1.2456 -0.1084  0.1044
 4003TIP3   OH233423   3.157   0.511   3.582 -0.1919  0.2585 -0.0410
 4003TIP3    H133424   3.196   0.494   3.668 -0.3546  1.1399  0.2183
 4003TIP3    H233425   3.130   0.425   3.551  2.9584 -0.6350 -0.7433
 4004TIP3   OH233426   1.154   6.466  12.592  0.0166 -0.6059  0.0809
 4004TIP3    H133427   1.106   6.390  12.557 -0.3549 -0.3499  0.0267
 4004TIP3    H233428   1.240   6.431  12.617  0.0995 -0.9038 -0.5961
 4005TIP3   OH233429   3.985   4.877   3.284  0.6722  0.1014  0.3286
 4005TIP3    H133430   3.939   4.856   3.203  1.3820  2.4466 -0.7694
 4005TIP3    H233431   3.931   4.943   3.327  2.2399  1.8943 -0.3189
 4006TIP3   OH233432   0.358   1.281  13.812 -0.2410 -0.3836 -0.2883
 4006TIP3    H133433   0.268   1.308  13.790 -0.0702 -0.4493 -1.1166
 4006TIP3    H233434   0.404   1.363  13.827 -0.2859 -0.3194 -0.4972
 4007TIP3   OH233435   5.479   0.444   0.332 -0.0348  0.3484  0.0391
 4007TIP3    H133436   5.420   0.519   0.340  0.8609  1.0473  0.3362
 4007TIP3    H233437   5.436   0.374   0.380 -0.9251  0.6437 -0.2971
 4008TIP3   OH233438   3.395   5.560   5.719 -0.5639 -0.3301 -0.3305
 4008TIP3    H133439   3.306   5.581   5.746 -0.5921  0.5102 -1.0659
 4008TIP3    H233440   3.415   5.621   5.648  1.4645  1.1902  1.3889
 4009TIP3   OH233441   3.621   4.201   1.196  0.7152 -0.2892  0.2012
 4009TIP3    H133442   3.668   4.270   1.242  3.5769 -1.6219 -0.5006
 4009TIP3    H233443   3.680   4.174   1.126 -1.1796 -2.0602 -0.8448
 4010TIP3   OH233444   2.349   2.584  13.021  0.8492  0.5288  0.2663
 4010TIP3    H133445   2.256   2.606  13.016  0.6913 -0.3253 -1.0397
 4010TIP3    H233446   2.394   2.669  13.019  0.1442  0.9055 -1.1937
 4011TIP3   OH233447   0.454   3.840   4.138  0.4350 -0.4641 -0.1646
 4011TIP3    H133448   0.460   3.775   4.208 -2.4530 -0.2832  0.3494
 4011TIP3    H233449   0.456   3.925   4.183 -1.0567 -0.3366 -0.3044
 4012TIP3   OH233450   3.852   4.813  14.751  0.5036  0.2398 -0.3622
 4012TIP3    H133451   3.785   4.751  14.723  0.4571  1.3303 -2.9361
 4012TIP3    H233452   3.808   4.898  14.753  0.9711  0.4812  1.4900
 4013TIP3   OH233453   4.909   4.212  13.663 -0.8927  0.0497  0.0925
 4013TIP3    H133454   4.880   4.131  13.621  0.4555  0.0487 -0.9058
 4013TIP3    H233455   4.920   4.274  13.591 -0.1340  0.5576  0.6257
 4014TIP3   OH233456   4.515   0.361   5.293 -0.0367  0.8709  0.1923
 4014TIP3    H133457   4.488   0.453   5.292 -3.0613  0.1095  1.1428
 4014TIP3    H233458   4.493   0.330   5.381  1.1337 -0.7383 -0.0259
 4015TIP3   OH233459   2.904   4.044   4.764 -0.8375 -0.6960  0.0536
 4015TIP3    H133460   2.860   4.099   4.698 -1.8889 -0.7506  0.6796
 4015TIP3    H233461   2.898   4.095   4.845  0.3757 -0.6649  0.1323
 4016TIP3   OH233462   1.205   6.413  16.829  0.1194  0.3362  0.2068
 4016TIP3    H133463   1.165   6.433  16.744  0.8728  0.9372 -0.0209
 4016TIP3    H233464   1.253   6.332  16.815 -0.0327  0.2563  0.1502
 4017TIP3   OH233465   5.762   0.245  14.001 -0.1239 -0.4434 -0.3679
 4017TIP3    H133466   5.838   0.264  13.946  0.8315 -3.9650 -0.5027
 4017TIP3    H233467   5.783   0.284  14.086  0.7536  0.6237 -1.0560
 4018TIP3   OH233468   0.397   4.357  10.979 -0.2496  0.0485  0.1404
 4018TIP3    H133469   0.486   4.378  11.008 -0.7645  1.5342  0.7321
 4018TIP3    H233470   0.407   4.276  10.929  1.3035 -0.2807  0.9097
 4019TIP3   OH233471   2.816   2.267  12.108  0.1879 -0.1596 -0.3730
 4019TIP3    H133472   2.798   2.353  12.147 -0.9216 -0.5579  0.0272
 4019TIP3    H233473   2.847   2.287  12.020  2.6181  0.7614  0.5761
 4020TIP3   OH233474   5.332   2.039   2.541 -0.3721 -0.7017  0.2369
 4020TIP3    H133475   5.359   2.095   2.468 -1.9560  0.4474  0.4694
 4020TIP3    H233476   5.409   1.986   2.561  0.8809  0.7196 -0.6358
 4021TIP3   OH233477   3.768   5.467  15.464  0.1471 -0.5922  0.1729
 4021TIP3    H133478   3.789   5.449  15.555 -0.3888 -2.7310 -0.0572
 4021TIP3    H233479   3.838   5.425  15.414  0.1851  0.1534 -0.4236
 4022TIP3   OH233480   4.888   2.667   6.220 -0.0934  0.3540 -0.0324
 4022TIP3    H133481   4.799   2.644   6.249  0.0407 -0.8385 -0.5040
 4022TIP3    H233482   4.945   2.608   6.270  0.2342 -0.7296 -1.5954
 4023TIP3   OH233483   4.374   1.410   2.371  0.1200  0.0357 -0.0944
 4023TIP3    H133484   4.448   1.353   2.349  0.7610  0.8766 -0.1893
 4023TIP3    H233485   4.322   1.360   2.434  1.1612 -0.2961  0.5187
 4024TIP3   OH233486   1.145   3.095  12.865  0.1378  0.3191 -0.1141
 4024TIP3    H133487   1.105   3.112  12.779  0.5729  2.2921  0.0294
 4024TIP3    H233488   1.191   3.011  12.853 -2.6359 -1.2157 -0.7403
 4025TIP3   OH233489   2.361   2.456  11.019 -0.4761 -0.7880  0.2555
 4025TIP3    H133490   2.439   2.428  10.971 -0.7458 -1.5368  0.2366
 4025TIP3    H233491   2.360   2.551  11.011  1.1285 -0.6335  1.3057
 4026TIP3   OH233492   3.135   0.475  12.385 -0.0657 -0.0861  0.1578
 4026TIP3    H133493   3.230   0.487  12.379 -0.3544  2.2969 -0.5550
 4026TIP3    H233494   3.107   0.540  12.450 -1.3091 -0.2590 -0.1836
 4027TIP3   OH233495   1.310   4.469   0.663 -0.9012 -0.3146  0.4083
 4027TIP3    H133496   1.238   4.439   0.719 -1.4468 -0.2251 -0.2286
 4027TIP3    H233497   1.313   4.404   0.593  2.5830 -2.9557  2.6730
 4028TIP3   OH233498   2.131   3.392  16.548 -0.0545 -0.0806  0.6950
 4028TIP3    H133499   2.216   3.381  16.506 -0.5731  0.5964 -0.5993
 4028TIP3    H233500   2.090   3.306  16.544 -0.2095  0.0317 -0.4936
 4029TIP3   OH233501   4.932   6.243   5.680  0.3311 -0.7136  0.2756
 4029TIP3    H133502   4.999   6.303   5.712  0.3393 -0.1172 -0.8182
 4029TIP3    H233503   4.867   6.239   5.751  0.5945  0.1733  0.5747
 4030TIP3   OH233504   3.989   5.287  16.981 -0.3398 -0.3630  0.0204
 4030TIP3    H133505   3.995   5.237  16.900  0.6262 -0.3676  0.0815
 4030TIP3    H233506   4.075   5.327  16.991 -0.5936  0.0064  0.8082
 4031TIP3   OH233507   1.660   3.849   1.644 -1.2061  0.0906  0.3012
 4031TIP3    H133508   1.692   3.905   1.573  0.5094 -0.7960  0.3307
 4031TIP3    H233509   1.673   3.760   1.612 -1.8604 -0.3066  1.1179
 4032TIP3   OH233510   5.855   4.395  13.238 -0.0406  0.4287  0.0821
 4032TIP3    H133511   5.829   4.430  13.152  0.6446 -1.6171 -1.0346
 4032TIP3    H233512   5.792   4.324  13.255  0.6998 -0.1201  0.5773
 4033TIP3   OH233513   2.976   3.758  14.247 -0.4424 -0.3160  0.8704
 4033TIP3    H133514   2.946   3.847  14.226  0.3605 -0.3198 -0.3848
 4033TIP3    H233515   2.955   3.707  14.169  3.8496 -0.0394 -0.7529
 4034TIP3   OH233516   3.886   6.523  15.488 -0.0845  0.7466 -0.3059
 4034TIP3    H133517   3.981   6.522  15.502 -0.0495  0.1388 -0.5578
 4034TIP3    H233518   3.849   6.500  15.573 -0.0131  1.1090 -0.1740
 4035TIP3   OH233519   2.105   1.064   3.839 -0.2491  0.4695  0.0903
 4035TIP3    H133520   2.073   0.993   3.895  0.5574  1.6073  2.1130
 4035TIP3    H233521   2.199   1.047   3.831 -0.1796  0.9147 -0.0324
 4036TIP3   OH233522   3.599   6.097  11.718 -0.6511 -0.0502  0.3697
 4036TIP3    H133523   3.526   6.091  11.657  0.0360 -0.5428 -0.4312
 4036TIP3    H233524   3.651   6.018  11.700 -0.7369 -0.5160  2.0052
 4037TIP3   OH233525   2.658   2.557   5.942  0.1623 -0.4906  0.1486
 4037TIP3    H133526   2.684   2.578   6.032  2.8278 -1.0711 -0.3951
 4037TIP3    H233527   2.668   2.639   5.894 -0.9378 -0.2592  0.3020
 4038TIP3   OH233528   2.084   5.939   4.457  0.0778  0.0990  0.0744
 4038TIP3    H133529   2.022   6.012   4.453  0.8067  0.8974  2.0782
 4038TIP3    H233530   2.160   5.969   4.407 -0.9089 -0.7217 -2.0395
 4039TIP3   OH233531   1.764   4.595   3.806 -0.1401  0.5787  0.6837
 4039TIP3    H133532   1.828   4.527   3.824 -0.7058 -0.0240  0.4613
 4039TIP3    H233533   1.815   4.667   3.768  0.4732  0.3187  1.0010
 4040TIP3   OH233534   5.665   6.362  15.624  0.2170  0.8735 -0.0806
 4040TIP3    H133535   5.677   6.434  15.685  1.8915  0.0866  0.5841
 4040TIP3    H233536   5.699   6.395  15.540  1.1351  0.8348  0.2603
 4041TIP3   OH233537   5.062   5.909  14.332  0.0355 -0.5663  0.1488
 4041TIP3    H133538   5.008   5.874  14.403 -0.0113 -0.9608 -0.0791
 4041TIP3    H233539   5.013   5.985  14.300  0.8362  0.6364  1.6120
 4042TIP3   OH233540   5.141   5.882  17.262  0.1354 -0.0850 -0.2876
 4042TIP3    H133541   5.182   5.882  17.349 -2.2418  0.1901  0.9143
 4042TIP3    H233542   5.092   5.799  17.259 -0.4874  0.2972 -1.0048
 4043TIP3   OH233543   3.534   0.987   2.639 -0.1036  0.6632  0.1884
 4043TIP3    H133544   3.508   0.931   2.566  2.1169 -0.0584 -0.1195
 4043TIP3    H233545   3.621   1.017   2.616  0.2470  1.2234  2.0895
 4044TIP3   OH233546   1.305   2.605  12.733  0.3292  0.1875  0.5734
 4044TIP3    H133547   1.367   2.534  12.717  2.6604  2.5779 -1.8825
 4044TIP3    H233548   1.226   2.580  12.685  1.2166 -0.6211 -0.4950
 4045TIP3   OH233549   5.211   2.625  13.615  0.1011  0.9455  0.0479
 4045TIP3    H133550   5.150   2.655  13.547 -2.4514 -2.2210  0.6858
 4045TIP3    H233551   5.156   2.609  13.691  1.9192 -0.9568  1.0584
 4046TIP3   OH233552   0.067   4.912   5.545  0.0683 -0.4352 -0.7616
 4046TIP3    H133553   0.039   4.987   5.597  3.6152  0.3587  0.2797
 4046TIP3    H233554  -0.015   4.871   5.515 -2.0258  3.5500 -1.0946
 4047TIP3   OH233555   6.386   1.202   0.504 -0.1261  0.7321 -0.1324
 4047TIP3    H133556   6.430   1.211   0.589 -1.4606  0.0201  0.6807
 4047TIP3    H233557   6.392   1.289   0.465  1.4948  0.7930  0.1764
 4048TIP3   OH233558   5.466   4.291   5.739 -0.1139  0.0948  0.1430
 4048TIP3    H133559   5.413   4.316   5.814 -1.2935  0.7970 -0.8798
 4048TIP3    H233560   5.520   4.218   5.771 -1.1017 -0.1004  1.4575
 4049TIP3   OH233561   0.320   2.592  16.765  0.5397 -0.2818  0.3546
 4049TIP3    H133562   0.387   2.648  16.726 -0.7172  0.5770 -0.6787
 4049TIP3    H233563   0.331   2.603  16.860  1.7847 -0.1056  0.2013
 4050TIP3   OH233564   1.303   0.986  13.561 -0.0313 -0.3604  0.6429
 4050TIP3    H133565   1.312   0.899  13.521  0.8421  0.2345 -0.4953
 4050TIP3    H233566   1.248   0.971  13.638 -1.5918 -1.5795 -0.6564
 4051TIP3   OH233567   0.324   0.447  12.949 -0.2898  0.1141 -0.3797
 4051TIP3    H133568   0.321   0.365  12.900 -0.2979  0.1606 -0.4565
 4051TIP3    H233569   0.258   0.437  13.018  0.8958 -0.6514  0.7067
 4052TIP3   OH233570   6.681   1.355  15.985  0.5442  0.2606 -0.0506
 4052TIP3    H133571   6.651   1.279  15.934  0.7312 -0.5855  1.0555
 4052TIP3    H233572   6.704   1.420  15.919  2.2297 -1.3392 -1.1606
 4053TIP3   OH233573   5.871   1.225   2.634 -0.2651  0.5794 -0.5741
 4053TIP3    H133574   5.884   1.240   2.541  1.8271  1.5793 -0.1758
 4053TIP3    H233575   5.927   1.289   2.677 -0.0072 -0.8309  1.3584
 4054TIP3   OH233576   6.457   1.477   3.821  0.2300 -0.1463 -0.2970
 4054TIP3    H133577   6.485   1.396   3.778  1.0295  0.4882 -1.0016
 4054TIP3    H233578   6.530   1.537   3.809 -0.4942  0.8004 -0.0781
 4055TIP3   OH233579   5.572   2.499   3.679  0.1907 -0.2460 -0.2270
 4055TIP3    H133580   5.615   2.464   3.602  1.3359  0.3617  0.1101
 4055TIP3    H233581   5.643   2.532   3.734 -0.5198 -1.2941  1.4226
 4056TIP3   OH233582   1.146   5.447  14.141 -0.6527 -0.3330  0.0051
 4056TIP3    H133583   1.186   5.366  14.108  0.7712 -0.4336  1.8069
 4056TIP3    H233584   1.074   5.465  14.081 -0.4701 -2.4800 -0.9358
 4057TIP3   OH233585   1.863   1.668   1.143  0.1985  0.1825  0.3572
 4057TIP3    H133586   1.850   1.594   1.083  2.2803  1.0454 -1.2571
 4057TIP3    H233587   1.775   1.689   1.173 -0.6582 -1.7457 -0.5977
 4058TIP3   OH233588   1.040   4.390  16.616 -0.7382 -0.6720 -0.5292
 4058TIP3    H133589   0.995   4.457  16.564 -2.0420  0.0310  1.3610
 4058TIP3    H233590   1.133   4.410  16.606 -1.0559  0.6600 -0.9927
 4059TIP3   OH233591   3.320   5.917  11.282 -0.3378 -0.6184  0.6707
 4059TIP3    H133592   3.383   5.846  11.276  0.0408 -0.2165 -0.2704
 4059TIP3    H233593   3.235   5.875  11.267 -0.0995 -0.8357 -0.0675
 4060TIP3   OH233594   2.810   2.886  13.948 -0.6133 -0.1819  0.0857
 4060TIP3    H133595   2.754   2.902  13.872 -2.0667  1.1562  1.3732
 4060TIP3    H233596   2.817   2.790  13.952 -2.8348 -0.4294 -0.1819
 4061TIP3   OH233597   1.019   1.246  13.962  0.0449  0.0521  0.1229
 4061TIP3    H133598   1.037   1.333  13.996 -0.7340  0.2353  0.0856
 4061TIP3    H233599   1.067   1.187  14.019  3.1803  0.6499 -1.6934
 4062TIP3   OH233600   1.031   0.614  13.698 -0.0072  0.3788 -0.2100
 4062TIP3    H133601   1.047   0.598  13.605  1.0229 -0.9206  0.1567
 4062TIP3    H233602   1.073   0.698  13.715  1.9186 -0.4623 -0.4569
 4063TIP3   OH233603   6.087   1.594  16.981 -0.6212 -0.3444  0.1288
 4063TIP3    H133604   6.154   1.582  17.048  0.1389 -0.0828 -0.5701
 4063TIP3    H233605   6.044   1.509  16.973  1.1686 -1.1972 -1.0333
 4064TIP3   OH233606   3.785   1.378  12.412 -0.0924  0.1021 -0.1771
 4064TIP3    H133607   3.803   1.304  12.354 -1.0469 -0.0112 -0.3359
 4064TIP3    H233608   3.741   1.442  12.357 -1.5794 -0.2656  0.5473
 4065TIP3   OH233609   2.478   1.456   3.752 -0.0018  0.4056  0.3026
 4065TIP3    H133610   2.540   1.474   3.681  0.3456  1.5189  0.8545
 4065TIP3    H233611   2.463   1.362   3.747  0.9440  0.2729 -0.4923
 4066TIP3   OH233612   2.988   3.569   2.779  0.0371 -0.2416 -0.1034
 4066TIP3    H133613   3.009   3.624   2.704  0.8582 -0.2300  0.1155
 4066TIP3    H233614   2.994   3.479   2.746  1.8647 -0.3038  0.2460
 4067TIP3   OH233615   5.320   5.586  16.259  0.5833 -0.0312 -0.2214
 4067TIP3    H133616   5.257   5.638  16.309  0.2330 -1.3421  0.7590
 4067TIP3    H233617   5.277   5.502  16.246  1.9657 -0.8223  0.1178
 4068TIP3   OH233618   5.178   4.953   0.080 -0.0925 -0.2833  0.2320
 4068TIP3    H133619   5.100   4.921   0.035  0.1083 -0.0752 -0.2685
 4068TIP3    H233620   5.201   4.881   0.140 -2.1528  0.6725  2.3253
 4069TIP3   OH233621   2.329   4.192   5.654  0.2873  0.5614 -0.0631
 4069TIP3    H133622   2.283   4.228   5.579  0.2898 -0.4832 -0.5840
 4069TIP3    H233623   2.359   4.106   5.625  1.5009  0.7107  0.6664
 4070TIP3   OH233624   3.054   3.806  11.870 -0.5037  0.0122  0.3822
 4070TIP3    H133625   3.144   3.794  11.899 -0.0315  1.3471 -0.4389
 4070TIP3    H233626   3.062   3.839  11.780 -1.7705  0.8504  0.5491
 4071TIP3   OH233627   5.763   2.530  16.819 -0.0514  0.2103  0.0117
 4071TIP3    H133628   5.724   2.571  16.741  0.0870 -0.5621 -0.4730
 4071TIP3    H233629   5.809   2.453  16.785  1.3339  0.7229  0.6529
 4072TIP3   OH233630   0.758   3.318   4.007  0.4108 -0.9071  0.5230
 4072TIP3    H133631   0.824   3.349   4.069 -0.1969 -0.7238  1.0915
 4072TIP3    H233632   0.677   3.314   4.058 -0.6585  1.5308 -0.8166
 4073TIP3   OH233633   5.487   4.379   3.427 -0.0639 -0.3827 -0.3877
 4073TIP3    H133634   5.404   4.388   3.381  0.3356  2.6979 -0.7466
 4073TIP3    H233635   5.538   4.456   3.400  3.0432 -2.2635 -0.4078
 4074TIP3   OH233636   2.484   1.259   0.031  0.1740 -0.3998  0.0650
 4074TIP3    H133637   2.557   1.201   0.050  0.8137  0.3635  0.0055
 4074TIP3    H233638   2.416   1.202  -0.005  0.1751 -1.3479  1.5179
 4075TIP3   OH233639   5.877   3.743   0.240 -0.0040  0.0930  0.3772
 4075TIP3    H133640   5.970   3.766   0.240 -0.0535  0.4022 -1.1899
 4075TIP3    H233641   5.865   3.694   0.321  1.9705 -1.7573 -0.3435
 4076TIP3   OH233642   0.083   6.461  15.871  0.2293  0.2342  0.7597
 4076TIP3    H133643   0.013   6.397  15.887 -0.2681  0.6316  0.2364
 4076TIP3    H233644   0.108   6.491  15.959  0.6404 -0.8478  1.0268
 4077TIP3   OH233645   4.604   1.277  16.334  0.4069  0.0844 -0.4645
 4077TIP3    H133646   4.625   1.362  16.374  0.3741 -0.0774 -0.1004
 4077TIP3    H233647   4.689   1.241  16.309  0.5831 -0.4746  0.8152
 4078TIP3   OH233648   0.288   5.525  11.942  0.1510 -0.0542  0.5377
 4078TIP3    H133649   0.280   5.464  12.015  0.6238 -1.7928 -0.8007
 4078TIP3    H233650   0.312   5.471  11.867 -0.6841  1.6047 -1.0225
 4079TIP3   OH233651   5.119   6.548   3.770  0.0740  0.4356 -0.6711
 4079TIP3    H133652   5.129   6.643   3.774  0.8572  0.3601 -0.5946
 4079TIP3    H233653   5.161   6.516   3.850 -1.0876  0.0787 -0.1781
 4080TIP3   OH233654   0.167   3.684   5.679  0.0977 -0.1007  0.1903
 4080TIP3    H133655   0.222   3.761   5.667 -0.0103 -0.0017  0.3276
 4080TIP3    H233656   0.199   3.621   5.614 -0.0160  0.1706 -0.1342
 4081TIP3   OH233657   6.005   6.565   4.207  0.1778  0.3952 -0.1044
 4081TIP3    H133658   6.096   6.580   4.181 -0.3113  0.1885 -2.1032
 4081TIP3    H233659   6.006   6.573   4.303  2.1639  1.0326 -0.1257
 4082TIP3   OH233660   3.339   6.094   4.579 -0.2605  0.5150  0.7437
 4082TIP3    H133661   3.305   6.151   4.648  1.2956 -0.9079  2.7753
 4082TIP3    H233662   3.411   6.144   4.540 -0.4023  0.8670  0.9299
 4083TIP3   OH233663   2.163   3.766   3.739  0.0016  0.0946  0.0419
 4083TIP3    H133664   2.123   3.770   3.826  1.2177  0.3380  0.6096
 4083TIP3    H233665   2.257   3.765   3.756  0.2591 -1.6484 -1.1963
 4084TIP3   OH233666   1.459   1.935  13.239  0.5645 -0.0795  0.6150
 4084TIP3    H133667   1.462   2.012  13.295  0.7196  1.1666 -1.0407
 4084TIP3    H233668   1.521   1.954  13.168 -0.1079 -1.3047 -0.3533
 4085TIP3   OH233669   0.068   4.977  16.803 -0.0634  0.4835 -0.0967
 4085TIP3    H133670   0.060   4.882  16.806 -0.9576  0.5033 -1.0597
 4085TIP3    H233671   0.097   5.002  16.891  1.2877 -0.7596 -0.1604
 4086TIP3   OH233672   4.180   4.646   3.681 -0.1355  0.1907 -0.2002
 4086TIP3    H133673   4.192   4.656   3.776 -0.2997 -1.7868  0.0548
 4086TIP3    H233674   4.177   4.736   3.649  0.6035  0.9109  1.5810
 4087TIP3   OH233675   2.397   1.121  14.902  0.2423 -0.1669  0.0511
 4087TIP3    H133676   2.366   1.045  14.951 -2.5029  0.6297 -0.2661
 4087TIP3    H233677   2.459   1.085  14.838 -2.9192 -2.6656 -1.8986
 4088TIP3   OH233678   3.328   1.078  14.653  0.0934  0.2718  0.0422
 4088TIP3    H133679   3.400   1.108  14.598 -0.5327  0.1038 -0.8806
 4088TIP3    H233680   3.290   1.159  14.689  0.8127  0.3530  0.6489
 4089TIP3   OH233681   5.064   6.502  12.496 -0.0182 -0.0799 -0.1559
 4089TIP3    H133682   5.069   6.413  12.531  0.9086 -0.8883 -2.1887
 4089TIP3    H233683   5.085   6.492  12.404 -0.0711  2.2570 -0.4670
 4090TIP3   OH233684   3.796   5.469  11.331  0.2085 -0.4238 -0.3835
 4090TIP3    H133685   3.884   5.496  11.305 -0.2851  0.5199 -1.1664
 4090TIP3    H233686   3.738   5.513  11.269 -0.7942 -1.4473 -0.2084
 4091TIP3   OH233687   3.951   6.240   1.450  0.8395  0.4379 -0.3639
 4091TIP3    H133688   3.958   6.301   1.377 -0.2644 -0.6434 -1.4255
 4091TIP3    H233689   3.957   6.153   1.409 -0.7866 -0.2246  0.6823
 4092TIP3   OH233690   4.289   5.836   3.857 -0.1863 -0.1788  0.1004
 4092TIP3    H133691   4.248   5.758   3.820 -0.5257 -0.6195  1.3557
 4092TIP3    H233692   4.336   5.804   3.935  0.4275  0.7264  0.1211
 4093TIP3   OH233693   3.727   1.174   1.378  0.0822 -0.1439 -0.1914
 4093TIP3    H133694   3.753   1.184   1.470  0.4163 -1.3748 -0.1316
 4093TIP3    H233695   3.778   1.241   1.332 -1.1952  1.5133  0.6630
 4094TIP3   OH233696   0.235   0.921   2.649  0.1049  0.2317  0.2978
 4094TIP3    H133697   0.227   0.891   2.739 -0.2189 -0.5188  0.0300
 4094TIP3    H233698   0.329   0.930   2.635  0.1722  0.0052  0.5964
 4095TIP3   OH233699   6.591   1.433  14.422 -0.0360  0.0788 -0.0962
 4095TIP3    H133700   6.538   1.431  14.502 -0.3952  1.2002 -0.2941
 4095TIP3    H233701   6.585   1.343  14.388  0.0705 -0.3941  1.0893
 4096TIP3   OH233702   4.452   1.433  17.039  0.4191 -0.1424 -0.0079
 4096TIP3    H133703   4.421   1.473  17.120  2.8048  1.0477  0.3908
 4096TIP3    H233704   4.464   1.341  17.061  0.4413  0.0482  0.8165
 4097TIP3   OH233705   0.134   1.105  14.410  0.0661 -0.4340  0.3507
 4097TIP3    H133706   0.164   1.169  14.346 -0.2396  0.2164  0.8580
 4097TIP3    H233707   0.121   1.025  14.358  0.0619  0.0147 -0.3575
 4098TIP3   OH233708   4.315   0.059   5.964 -0.3578  0.1673 -0.5217
 4098TIP3    H133709   4.362   0.128   6.011 -0.8395  0.1013  0.0734
 4098TIP3    H233710   4.222   0.078   5.981 -0.4861 -0.7656 -0.1416
 4099TIP3   OH233711   0.592   5.070  11.886  0.2598  0.1202  0.0290
 4099TIP3    H133712   0.591   5.095  11.793  0.5158  0.8556  0.2170
 4099TIP3    H233713   0.669   5.114  11.921  2.6526 -3.3833 -0.2627
 4100TIP3   OH233714   2.436   1.604   5.929  0.2097 -0.0760  0.5170
 4100TIP3    H133715   2.451   1.593   5.835 -1.1344  0.7118  0.1780
 4100TIP3    H233716   2.369   1.672   5.934 -0.0634 -0.4308  2.0385
 4101TIP3   OH233717   2.723   3.553   6.016 -0.0327  0.2395 -0.7419
 4101TIP3    H133718   2.799   3.521   5.967 -0.0625  1.6499 -1.7488
 4101TIP3    H233719   2.749   3.638   6.049 -0.6402  0.0543  0.2529
 4102TIP3   OH233720   6.296   0.128  16.775  0.2825 -0.3470 -0.1291
 4102TIP3    H133721   6.227   0.194  16.763  0.4394 -0.4175 -1.6128
 4102TIP3    H233722   6.249   0.050  16.805 -0.0284  0.1391  0.6782
 4103TIP3   OH233723   2.900   1.262  17.177 -0.3887  0.5456 -0.0102
 4103TIP3    H133724   2.851   1.207  17.239  0.3346 -1.3532 -1.0500
 4103TIP3    H233725   2.855   1.346  17.181 -1.5100 -0.0560  1.7160
 4104TIP3   OH233726   2.198   5.842  14.643 -0.0563  0.1931  0.5396
 4104TIP3    H133727   2.178   5.923  14.596 -2.3453 -0.3163  0.4957
 4104TIP3    H233728   2.236   5.784  14.577 -1.5223  0.1251 -0.2856
 4105TIP3   OH233729   6.445   0.941   0.378  0.0546  0.2301 -0.0711
 4105TIP3    H133730   6.363   0.914   0.337  0.7948  1.4945 -2.5898
 4105TIP3    H233731   6.430   1.031   0.405  0.6475  0.5364 -0.7312
 4106TIP3   OH233732   0.957   0.858  16.463 -0.7574 -0.3662  0.1509
 4106TIP3    H133733   0.897   0.859  16.537 -2.0845  0.5260 -0.9000
 4106TIP3    H233734   0.941   0.941  16.418 -0.0309 -0.9157 -1.1764
 4107TIP3   OH233735   0.400   0.283   4.816  0.0115  0.0966 -0.1545
 4107TIP3    H133736   0.489   0.295   4.851 -1.3638  1.6199  3.3165
 4107TIP3    H233737   0.368   0.204   4.859 -1.3646  1.4033  1.3712
 4108TIP3   OH233738   3.723   6.288  12.784  0.0462 -0.5158  0.1145
 4108TIP3    H133739   3.742   6.255  12.696  0.1240  0.4631 -0.2474
 4108TIP3    H233740   3.677   6.216  12.827 -0.9785 -0.6190 -1.0976
 4109TIP3   OH233741   4.430   1.556  16.653 -0.1517 -0.3483 -0.1267
 4109TIP3    H133742   4.502   1.547  16.715  0.2263 -0.9000 -0.6325
 4109TIP3    H233743   4.468   1.534  16.568 -0.7616 -0.0144 -0.4991
 4110TIP3   OH233744   1.483   5.052   1.774  0.4196  0.5975 -0.3060
 4110TIP3    H133745   1.419   4.987   1.747 -0.2024  0.3435  1.6548
 4110TIP3    H233746   1.445   5.136   1.748 -0.7514  0.4545  0.8999
 4111TIP3   OH233747   1.097   2.381  15.506  0.0031 -0.7684 -0.2095
 4111TIP3    H133748   1.132   2.292  15.507  1.6464 -0.1779  1.4878
 4111TIP3    H233749   1.150   2.428  15.570 -2.8180  0.6881  1.2513
 4112TIP3   OH233750   1.059   0.589   3.823  0.0794  0.0488 -0.5115
 4112TIP3    H133751   1.075   0.531   3.748  1.2965  0.0988 -0.3204
 4112TIP3    H233752   1.141   0.585   3.873 -0.6060  0.2723  0.6400
 4113TIP3   OH233753   4.079   5.397  15.525  0.2377 -0.2365 -0.2460
 4113TIP3    H133754   4.134   5.365  15.596  2.1669 -2.0909 -2.4045
 4113TIP3    H233755   4.071   5.322  15.466 -0.0030  1.6177 -2.7191
 4114TIP3   OH233756   4.130   6.695   3.764 -0.4247  0.0301 -0.0397
 4114TIP3    H133757   4.041   6.681   3.798 -0.7579  0.2220 -0.7993
 4114TIP3    H233758   4.124   6.778   3.717  0.7700  1.3278  1.9171
 4115TIP3   OH233759   6.294   5.048  14.209 -0.7598  0.0269 -0.5165
 4115TIP3    H133760   6.252   5.114  14.154  0.5720 -0.6342 -2.4549
 4115TIP3    H233761   6.387   5.057  14.190 -0.5352 -2.4625 -0.9961
 4116TIP3   OH233762   4.675   0.257   2.750 -0.2757 -0.1485  0.2727
 4116TIP3    H133763   4.632   0.336   2.717  1.4131 -0.3818 -2.7714
 4116TIP3    H233764   4.606   0.190   2.747 -0.8491  0.4475 -0.2869
 4117TIP3   OH233765   5.674   5.051   5.862  0.0475  0.0680  0.5617
 4117TIP3    H133766   5.675   5.147   5.871 -0.9537  0.2511 -0.8687
 4117TIP3    H233767   5.584   5.031   5.837 -0.0065 -1.3799  1.8091
 4118TIP3   OH233768   6.007   0.698  12.246  0.2860  0.4070 -0.7444
 4118TIP3    H133769   6.052   0.760  12.304  0.0923 -1.2910  1.3243
 4118TIP3    H233770   6.069   0.683  12.175  0.2395  3.1001 -1.4610
 4119TIP3   OH233771   6.293   1.598  13.150 -0.4383  0.1572  0.8659
 4119TIP3    H133772   6.314   1.685  13.184  1.0840  0.7150 -1.2878
 4119TIP3    H233773   6.304   1.605  13.055 -0.3581 -2.3552  0.6039
 4120TIP3   OH233774   3.708   4.053  11.739  0.1048  0.0244 -0.3205
 4120TIP3    H133775   3.690   4.128  11.796  0.2921 -0.3833  0.2667
 4120TIP3    H233776   3.652   4.069  11.662 -0.5822  0.2669  0.2191
 4121TIP3   OH233777   3.031   2.097   3.353  0.2309  0.2026  0.0025
 4121TIP3    H133778   3.007   2.178   3.398 -0.4753  1.0486 -1.8004
 4121TIP3    H233779   2.998   2.027   3.410 -0.8500  1.2287  0.6783
 4122TIP3   OH233780   3.028   2.104  12.699  0.0355  0.1017  0.0361
 4122TIP3    H133781   2.992   2.193  12.701 -0.2266 -0.0195  1.1342
 4122TIP3    H233782   3.039   2.080  12.791  0.2574 -0.9427 -0.2501
 4123TIP3   OH233783   4.923   3.664   4.199 -0.3780 -0.1746  0.1073
 4123TIP3    H133784   4.885   3.624   4.121 -0.3779  0.3360 -0.1527
 4123TIP3    H233785   4.850   3.672   4.260 -0.5807  0.3386 -0.2042
 4124TIP3   OH233786   3.231   1.009   0.921  0.5447 -0.3008 -0.1253
 4124TIP3    H133787   3.234   0.991   0.827  1.1760 -0.3149 -0.1034
 4124TIP3    H233788   3.137   1.015   0.940  0.4126  0.1089 -0.8344
 4125TIP3   OH233789   6.067   2.457  14.086 -0.0194 -0.4455  0.4576
 4125TIP3    H133790   6.148   2.425  14.046  0.0668 -0.0786  0.3407
 4125TIP3    H233791   6.000   2.395  14.056  0.1293 -0.4551  0.1431
 4126TIP3   OH233792   0.917   5.505  13.996  0.5886  0.0037 -0.0813
 4126TIP3    H133793   0.877   5.486  13.911 -0.1003 -0.8431  0.4100
 4126TIP3    H233794   0.862   5.574  14.033 -0.8757 -1.5652  0.8459
 4127TIP3   OH233795   6.017   6.324   5.752 -0.2003 -0.0654  0.7424
 4127TIP3    H133796   6.003   6.387   5.682 -1.1252 -0.1023  0.8760
 4127TIP3    H233797   6.065   6.373   5.819 -0.3299  0.3063  0.5658
 4128TIP3   OH233798   4.788   4.132  15.120 -0.2269  0.3821  0.1646
 4128TIP3    H133799   4.866   4.158  15.071 -0.8124  0.7112 -0.6161
 4128TIP3    H233800   4.811   4.047  15.159  0.1477 -0.0322 -0.9312
 4129TIP3   OH233801   6.260   2.397  11.546 -0.0023 -0.4275  0.2497
 4129TIP3    H133802   6.350   2.428  11.558  0.1385  0.1814 -1.9913
 4129TIP3    H233803   6.212   2.474  11.516 -0.7561 -1.2703 -0.7436
 4130TIP3   OH233804   3.712   6.335  15.923 -0.6294  0.5055  0.0304
 4130TIP3    H133805   3.741   6.244  15.921  0.4701  0.8130  0.7024
 4130TIP3    H233806   3.649   6.339  15.995 -0.1297  0.4062  0.4847
 4131TIP3   OH233807   0.554   1.298   5.051 -0.2447 -0.3957  0.3352
 4131TIP3    H133808   0.472   1.339   5.023  0.0270  0.2289  0.4300
 4131TIP3    H233809   0.528   1.212   5.083 -0.6451 -0.8640 -1.1890
 4132TIP3   OH233810   1.467   6.735   3.377 -0.4521  0.3720  0.0760
 4132TIP3    H133811   1.463   6.789   3.456 -1.9534 -1.2677  1.2215
 4132TIP3    H233812   1.376   6.730   3.347  0.1628  1.4660 -2.1849
 4133TIP3   OH233813   0.764   0.738  15.889 -0.6259  0.2202 -0.1338
 4133TIP3    H133814   0.842   0.781  15.854 -0.8912  0.5033 -0.3729
 4133TIP3    H233815   0.741   0.790  15.966  0.3452 -0.7823  0.8785
 4134TIP3   OH233816   5.082   5.808   3.871  0.2774  0.2322 -0.5842
 4134TIP3    H133817   5.004   5.754   3.857  0.0261  0.3015  0.4207
 4134TIP3    H233818   5.048   5.886   3.916  0.7585  0.8394 -1.2517
 4135TIP3   OH233819   1.247   5.197   2.938  0.2099 -0.2046 -0.3988
 4135TIP3    H133820   1.258   5.102   2.933 -0.3506 -0.4238  1.4422
 4135TIP3    H233821   1.153   5.211   2.930  0.1172  0.0239  0.8781
 4136TIP3   OH233822   2.297   2.296  16.389 -0.1622 -0.1854 -0.1712
 4136TIP3    H133823   2.279   2.337  16.473  0.1908 -0.8058  0.2150
 4136TIP3    H233824   2.287   2.202  16.405  1.6134 -0.4499 -0.3761
 4137TIP3   OH233825   3.567   1.413  11.020  0.0721 -0.0796  0.1151
 4137TIP3    H133826   3.618   1.444  11.095  0.2630 -1.1008  0.4252
 4137TIP3    H233827   3.620   1.342  10.982  0.2764  0.8329 -1.3800
 4138TIP3   OH233828   4.054   3.333  13.127  0.4907 -0.2419 -0.6291
 4138TIP3    H133829   4.135   3.326  13.178  0.4587  3.4655  0.1637
 4138TIP3    H233830   3.996   3.267  13.165  2.6392 -2.1351 -0.3879
 4139TIP3   OH233831   0.573   1.801   3.224 -0.4653 -0.3509  0.3562
 4139TIP3    H133832   0.665   1.827   3.218 -0.5445 -0.0213  0.5248
 4139TIP3    H233833   0.576   1.710   3.255 -0.1710 -0.7072 -0.6765
 4140TIP3   OH233834   6.051   0.451  14.966 -0.0220 -0.0699 -0.3206
 4140TIP3    H133835   6.132   0.399  14.964  0.2722  0.3964 -0.8164
 4140TIP3    H233836   5.987   0.395  15.010  0.8956  0.0196  1.1961
 4141TIP3   OH233837   2.006   4.302   0.890 -0.5372  0.4871 -0.1540
 4141TIP3    H133838   2.095   4.271   0.869 -0.2984  0.2585  1.0928
 4141TIP3    H233839   1.989   4.371   0.826  0.4789  0.4349 -0.5068
 4142TIP3   OH233840   0.528   5.934  17.274  0.3234 -0.2622 -0.0893
 4142TIP3    H133841   0.522   5.845  17.238  1.0333 -0.5220  0.4064
 4142TIP3    H233842   0.443   5.949  17.315  0.0667 -0.5711 -0.4999
 4143TIP3   OH233843   1.159   2.706  17.312  0.1554 -0.6720 -0.5996
 4143TIP3    H133844   1.065   2.708  17.334  0.3322  0.8261  0.2098
 4143TIP3    H233845   1.170   2.627  17.259 -1.4600 -1.1814 -0.2445
 4144TIP3   OH233846   0.698   2.213   3.942  0.2848 -0.5980 -0.0542
 4144TIP3    H133847   0.723   2.190   4.031 -0.4816  0.0047  0.3380
 4144TIP3    H233848   0.627   2.152   3.921  0.4695 -0.7440 -0.2600
 4145TIP3   OH233849   1.517   6.547   0.974  0.0253  0.0830 -0.2389
 4145TIP3    H133850   1.561   6.489   0.912  0.9527  0.9602 -0.4473
 4145TIP3    H233851   1.589   6.596   1.015 -0.4459 -1.1633  2.2825
 4146TIP3   OH233852   6.599   2.972  12.870 -0.4897  0.5927  0.5693
 4146TIP3    H133853   6.642   3.056  12.886  1.6105 -0.1109 -0.9001
 4146TIP3    H233854   6.642   2.911  12.929 -2.0317  0.5164  1.6530
 4147TIP3   OH233855   1.854   0.262  15.852 -0.0853  0.0512 -0.3939
 4147TIP3    H133856   1.919   0.320  15.813  0.1784  0.5416  0.7231
 4147TIP3    H233857   1.861   0.278  15.946  0.1118 -1.9365 -0.0332
 4148TIP3   OH233858   6.649   4.544  15.807  0.0215  0.2435  0.2264
 4148TIP3    H133859   6.589   4.559  15.734 -0.1672  1.7043  0.6477
 4148TIP3    H233860   6.663   4.631  15.844  0.1557 -0.4563  1.8933
 4149TIP3   OH233861   1.700   1.939  12.368  0.1940  0.6060 -0.2787
 4149TIP3    H133862   1.695   2.017  12.313  0.9371  0.8856  0.0331
 4149TIP3    H233863   1.788   1.904  12.352 -0.4766 -0.7454 -1.1729
 4150TIP3   OH233864   1.218   6.741   3.701  0.0903 -0.4349  0.2934
 4150TIP3    H133865   1.284   6.777   3.641  1.8975 -1.8646  1.3119
 4150TIP3    H233866   1.180   6.818   3.744  2.4420  0.4168  1.0030
 4151TIP3   OH233867   2.782   0.838   3.423 -0.7246  0.2399  0.3680
 4151TIP3    H133868   2.824   0.923   3.410 -0.2828  0.3312  2.1695
 4151TIP3    H233869   2.846   0.787   3.473 -2.1908 -0.0427  2.0701
 4152TIP3   OH233870   1.783   2.591  15.195 -0.0225  0.1036  0.1689
 4152TIP3    H133871   1.870   2.627  15.177  0.4218 -0.9133  0.2358
 4152TIP3    H233872   1.778   2.588  15.291 -0.6038  1.2461  0.1944
 4153TIP3   OH233873   0.784   5.253   3.272  0.3364 -0.0567 -0.1752
 4153TIP3    H133874   0.781   5.321   3.340  1.0142 -0.4525  0.2758
 4153TIP3    H233875   0.875   5.254   3.242  0.3044 -0.6262 -0.3027
 4154TIP3   OH233876   5.901   6.240   0.690 -0.0931  0.1457 -0.1503
 4154TIP3    H133877   5.956   6.315   0.709 -0.4762  0.5313 -0.5365
 4154TIP3    H233878   5.959   6.176   0.649  0.0519  0.5749 -0.6192
 4155TIP3   OH233879   0.021   4.128  15.309 -0.4537  0.3543  0.2029
 4155TIP3    H133880   0.064   4.042  15.311 -1.1844 -0.0173  0.1461
 4155TIP3    H233881   0.031   4.162  15.398 -0.0064  0.2986  0.1802
 4156TIP3   OH233882   1.202   2.656  11.807  0.0102 -0.0805 -0.4637
 4156TIP3    H133883   1.219   2.571  11.767  0.3234 -0.6256  0.7548
 4156TIP3    H233884   1.247   2.652  11.892  0.7461  1.6281 -0.7303
 4157TIP3   OH233885   0.474   0.060  13.118 -0.0782  0.3836  0.0013
 4157TIP3    H133886   0.378   0.063  13.115 -0.1793 -1.7390 -0.4211
 4157TIP3    H233887   0.501   0.145  13.084 -1.8044  0.9769 -0.0150
 4158TIP3   OH233888   2.818   4.825   3.537  0.0828  0.2172 -0.1861
 4158TIP3    H133889   2.882   4.755   3.524  1.9636  1.9123 -0.4351
 4158TIP3    H233890   2.867   4.895   3.579 -1.1950  2.1565 -1.7551
 4159TIP3   OH233891   3.076   0.380  15.791 -0.6566 -0.4248 -0.3092
 4159TIP3    H133892   3.044   0.321  15.860 -0.6827  0.5664  0.5509
 4159TIP3    H233893   3.088   0.464  15.835  0.1710  0.0115 -1.3251
 4160TIP3   OH233894   6.376   0.952  14.373  0.8572  0.4830  0.1888
 4160TIP3    H133895   6.413   0.910  14.295  0.6947  0.8447 -0.0859
 4160TIP3    H233896   6.443   1.014  14.401  2.3003 -1.7792  2.1833
 4161TIP3   OH233897   5.972   2.448  12.685 -0.2040 -0.5490  0.5154
 4161TIP3    H133898   5.974   2.392  12.607 -1.6443 -0.1579  0.1695
 4161TIP3    H233899   5.912   2.404  12.745  0.9118 -0.8587  1.4440
 4162TIP3   OH233900   5.799   6.591   1.775 -0.3804  0.1357  0.3603
 4162TIP3    H133901   5.814   6.602   1.681  1.4610 -1.2466  0.4353
 4162TIP3    H233902   5.843   6.665   1.816  0.5377 -0.3195  0.2149
 4163TIP3   OH233903   0.383   4.813   5.298 -0.1370  0.7071  0.6523
 4163TIP3    H133904   0.468   4.771   5.307 -0.3266 -0.1013 -0.8834
 4163TIP3    H233905   0.375   4.870   5.374  0.9883 -0.5658  1.7713
 4164TIP3   OH233906   4.280   1.892   3.276  0.1456  0.3756  0.2060
 4164TIP3    H133907   4.314   1.982   3.275 -1.1773  0.9032 -0.0033
 4164TIP3    H233908   4.192   1.900   3.240 -0.1807 -0.9425  0.6679
 4165TIP3   OH233909   2.292   2.908   2.991  0.8287 -0.1865  0.9259
 4165TIP3    H133910   2.220   2.917   3.053 -0.0346 -1.0159  0.0773
 4165TIP3    H233911   2.363   2.868   3.041  0.7794  0.8101  1.8189
 4166TIP3   OH233912   4.907   1.576   1.180  0.6500 -0.6247  0.0012
 4166TIP3    H133913   4.821   1.616   1.170  1.4314  2.0952  2.4717
 4166TIP3    H233914   4.891   1.497   1.232 -0.4280 -0.4992 -0.1172
 4167TIP3   OH233915   3.031   1.804   5.262  0.0177 -0.1241  0.0694
 4167TIP3    H133916   3.083   1.754   5.325 -2.3702  0.5882  2.7963
 4167TIP3    H233917   3.043   1.895   5.288 -2.1942  0.0846  0.5430
 4168TIP3   OH233918   2.522   1.102  15.342  0.1122 -0.4609  0.1343
 4168TIP3    H133919   2.467   1.031  15.309 -0.5971 -0.4249  1.1859
 4168TIP3    H233920   2.466   1.180  15.339  1.5497  0.6358 -3.1467
 4169TIP3   OH233921   2.946   3.078  17.146  0.0475 -0.5166  0.0160
 4169TIP3    H133922   2.935   3.002  17.089  2.0977 -1.1343  0.3543
 4169TIP3    H233923   2.943   3.043  17.235 -1.8101  0.2546  0.3051
 4170TIP3   OH233924   1.418   0.731   6.139  0.2384 -0.4981  0.2922
 4170TIP3    H133925   1.417   0.800   6.206  1.5887  0.6774 -0.8108
 4170TIP3    H233926   1.332   0.689   6.145 -0.7788  1.5338  0.7677
 4171TIP3   OH233927   1.059   4.895  12.121 -0.1292 -0.1058  0.3278
 4171TIP3    H133928   0.969   4.926  12.109 -0.3016 -1.0271 -0.9197
 4171TIP3    H233929   1.050   4.805  12.154  0.3673  0.2972  1.6644
 4172TIP3   OH233930   1.608   1.081   0.985 -0.2269  0.2137 -0.5249
 4172TIP3    H133931   1.664   1.009   1.013  0.6808  0.2535 -2.1228
 4172TIP3    H233932   1.541   1.087   1.053 -0.3252 -2.1200 -0.3199
 4173TIP3   OH233933   6.174   1.045  12.927 -0.3539  0.4913 -0.9195
 4173TIP3    H133934   6.210   0.998  12.851  2.2803  2.0416 -0.7579
 4173TIP3    H233935   6.141   0.976  12.984 -1.6323 -0.7700 -3.0466
 4174TIP3   OH233936   1.298   5.205  12.885  0.0055  0.3760 -0.8444
 4174TIP3    H133937   1.356   5.191  12.959 -0.8008 -0.4813 -0.3575
 4174TIP3    H233938   1.211   5.215  12.924 -0.2944  0.8648 -1.6083
 4175TIP3   OH233939   5.561   2.029   0.853 -0.0975 -0.1829 -0.3506
 4175TIP3    H133940   5.656   2.038   0.868 -0.0530 -1.3279  0.1789
 4175TIP3    H233941   5.546   1.934   0.855 -1.3233  0.0091 -0.0307
 4176TIP3   OH233942   1.670   4.296   1.315  0.2920  0.1527  0.3521
 4176TIP3    H133943   1.670   4.257   1.227  1.9798  2.1650 -0.6159
 4176TIP3    H233944   1.601   4.363   1.312  0.6614  0.5374  0.4069
 4177TIP3   OH233945   6.119   6.286   6.048  0.0752 -1.1558 -0.5495
 4177TIP3    H133946   6.200   6.251   6.085 -0.3471 -1.3995  0.1738
 4177TIP3    H233947   6.092   6.353   6.111  0.4714 -0.0592 -1.5299
 4178TIP3   OH233948   1.381   2.163   4.898 -0.4832 -0.1767 -0.7667
 4178TIP3    H133949   1.409   2.212   4.820 -0.9795  2.8059  0.7953
 4178TIP3    H233950   1.435   2.197   4.969 -1.7765 -0.9535  0.6533
 4179TIP3   OH233951   0.241   6.191   2.310  0.4885  0.1879  0.0763
 4179TIP3    H133952   0.260   6.103   2.278  0.7769  0.9436 -1.9652
 4179TIP3    H233953   0.297   6.201   2.387 -0.3332 -1.7651  1.0048
 4180TIP3   OH233954   3.917   1.076   5.848 -0.0844  0.0245  0.4178
 4180TIP3    H133955   4.000   1.043   5.884  0.8928 -0.8734 -2.3532
 4180TIP3    H233956   3.931   1.171   5.839  1.5284 -0.3589 -1.8905
 4181TIP3   OH233957   4.024   3.628  12.486 -0.3386 -0.2110 -0.1971
 4181TIP3    H133958   4.095   3.622  12.422 -0.6011  1.1973 -0.6619
 4181TIP3    H233959   3.949   3.587  12.443  0.0346 -1.2262  0.0876
 4182TIP3   OH233960   1.811   1.746   4.908  0.2625  0.1761 -0.1216
 4182TIP3    H133961   1.775   1.738   4.996 -0.1221 -0.9759 -0.3727
 4182TIP3    H233962   1.881   1.681   4.904  1.1451  1.1040 -0.2572
 4183TIP3   OH233963   3.131   3.737  16.007  0.2831  0.2726 -0.4563
 4183TIP3    H133964   3.124   3.824  16.048  0.3630 -0.4300  1.1069
 4183TIP3    H233965   3.135   3.756  15.914  3.4742  2.1986 -0.0853
 4184TIP3   OH233966   3.561   3.074  14.153  0.0166 -0.0115 -0.4019
 4184TIP3    H133967   3.641   3.035  14.120 -0.1084 -2.3617  1.7897
 4184TIP3    H233968   3.588   3.157  14.192  2.0349 -1.9038  2.6756
 4185TIP3   OH233969   1.743   3.824   2.642 -0.5103  0.4038  0.5510
 4185TIP3    H133970   1.717   3.850   2.554  1.3113  2.6897  0.6089
 4185TIP3    H233971   1.661   3.803   2.686 -1.6391  1.2773 -1.0507
 4186TIP3   OH233972   2.831   1.889  16.564 -0.2056 -0.2235  0.0131
 4186TIP3    H133973   2.741   1.907  16.536 -0.1089 -0.7504 -0.6670
 4186TIP3    H233974   2.832   1.796  16.586 -0.1327  0.0568  1.2623
 4187TIP3   OH233975   5.099   2.778   0.320  0.3972 -0.5199 -0.3706
 4187TIP3    H133976   5.012   2.738   0.330 -0.0487  0.3320 -0.7768
 4187TIP3    H233977   5.097   2.855   0.376  0.4685  0.1632 -1.2916
 4188TIP3   OH233978   6.536   5.003   0.520 -0.1914 -0.2951 -0.4475
 4188TIP3    H133979   6.555   5.037   0.433 -1.8349 -2.3212 -1.6701
 4188TIP3    H233980   6.487   5.074   0.563 -0.0062  0.4353 -1.4045
 4189TIP3   OH233981   6.550   2.485  13.537  0.3202 -0.7535  0.0430
 4189TIP3    H133982   6.584   2.554  13.595  0.6927  0.6765 -1.7903
 4189TIP3    H233983   6.458   2.508  13.523  0.2257 -1.1054  0.0740
 4190TIP3   OH233984   3.123   3.865   4.721 -0.3162  0.3934  0.2903
 4190TIP3    H133985   3.183   3.891   4.651 -2.4150  0.1494 -1.7234
 4190TIP3    H233986   3.059   3.936   4.725  0.0360  0.6520  2.3820
 4191TIP3   OH233987   6.038   4.837   3.763  0.0638 -0.2999 -0.5698
 4191TIP3    H133988   5.961   4.860   3.815  0.0447 -1.7561  0.0831
 4191TIP3    H233989   6.028   4.888   3.682 -0.2561  1.4751  0.5308
 4192TIP3   OH233990   2.497   3.491  14.024  0.2936 -0.4108 -0.3712
 4192TIP3    H133991   2.570   3.486  13.962  0.2344  0.7563 -0.5643
 4192TIP3    H233992   2.419   3.492  13.968  0.1284 -1.5485 -0.1684
 4193TIP3   OH233993   4.019   4.577   4.723 -0.0894 -0.1108 -0.5292
 4193TIP3    H133994   3.994   4.663   4.756 -0.3375 -0.1975 -0.4879
 4193TIP3    H233995   4.063   4.594   4.640 -0.5313  0.0253 -0.7383
 4194TIP3   OH233996   1.968   1.340  12.205  0.3019 -0.3816  0.0773
 4194TIP3    H133997   2.029   1.411  12.187  0.1067  0.2669  1.8260
 4194TIP3    H233998   1.890   1.363  12.154  0.4673  0.3381  0.1374
 4195TIP3   OH233999   4.342   1.003  11.909  0.1844  0.5867  0.2031
 4195TIP3    H134000   4.421   0.980  11.957 -0.0105  0.7676  0.6163
 4195TIP3    H234001   4.289   0.923  11.910  0.3865  0.4493 -0.1216
 4196TIP3   OH234002   0.463   5.231   0.957 -0.2505  0.3563  0.0382
 4196TIP3    H134003   0.509   5.273   0.884 -0.6574  1.1092  0.2022
 4196TIP3    H234004   0.371   5.233   0.930 -0.1204 -2.2308 -0.8461
 4197TIP3   OH234005   1.096   5.485   3.819  0.3659  0.3997 -0.4075
 4197TIP3    H134006   1.158   5.413   3.805 -0.9566 -0.6798 -0.9515
 4197TIP3    H234007   1.012   5.450   3.790 -0.4844  1.8744  0.1773
 4198TIP3   OH234008   0.203   2.331   4.768 -0.4642  0.2161  0.0382
 4198TIP3    H134009   0.180   2.279   4.691 -0.4693  0.7420 -0.3205
 4198TIP3    H234010   0.283   2.377   4.744 -0.8027  0.8658  0.1122
 4199TIP3   OH234011   0.979   5.956  11.828  0.6843 -0.0492 -0.3623
 4199TIP3    H134012   0.929   5.942  11.747 -0.7274 -0.5937  0.5651
 4199TIP3    H234013   1.042   5.884  11.830  0.5233 -0.2093 -0.8214
 4200TIP3   OH234014   4.772   0.658   2.608 -0.0195  0.7343 -0.0086
 4200TIP3    H134015   4.840   0.640   2.673 -0.5038  0.2902  0.3907
 4200TIP3    H234016   4.819   0.673   2.526  0.4608 -2.4748 -0.4443
 4201TIP3   OH234017   5.093   2.073   2.283 -0.1823  0.2496 -0.3209
 4201TIP3    H134018   5.180   2.108   2.260 -0.3337  1.0055  0.2345
 4201TIP3    H234019   5.054   2.140   2.338 -0.7966 -0.4664  0.1319
 4202TIP3   OH234020   2.940   1.411  14.742 -0.1522 -0.7231  0.2513
 4202TIP3    H134021   2.893   1.459  14.674  1.9828 -0.5606 -1.1866
 4202TIP3    H234022   2.927   1.463  14.821  0.1662  0.9884 -0.7759
 4203TIP3   OH234023   4.053   5.775  14.240  0.2948 -0.1495 -0.3905
 4203TIP3    H134024   4.119   5.840  14.215  2.7754 -2.5888 -0.6351
 4203TIP3    H234025   3.995   5.771  14.164  0.6704  1.0514 -0.7684
 4204TIP3   OH234026   4.897   3.772  16.934  0.1004  0.1022 -0.1454
 4204TIP3    H134027   4.801   3.772  16.940  0.1955 -0.9573  2.0847
 4204TIP3    H234028   4.926   3.720  17.008  2.4440  0.5790 -0.6586
 4205TIP3   OH234029   3.526   6.064  10.722 -0.3117  0.9526  0.2228
 4205TIP3    H134030   3.489   6.030  10.804 -1.7713  2.9743  0.4656
 4205TIP3    H234031   3.531   6.158  10.735  2.5768  1.0457 -0.8340
 4206TIP3   OH234032   4.607   3.481  13.730 -0.1553 -0.1493  0.2206
 4206TIP3    H134033   4.630   3.572  13.715  0.2762 -0.4498 -1.0869
 4206TIP3    H234034   4.646   3.460  13.815  2.3799  0.0675 -0.7956
 4207TIP3   OH234035   6.118   1.216  10.946  0.1823 -0.5586  0.3248
 4207TIP3    H134036   6.110   1.130  10.903 -0.4043 -1.1981  1.6651
 4207TIP3    H234037   6.157   1.197  11.031 -0.6479  0.4015  0.9418
 4208TIP3   OH234038   3.084   0.575  14.039 -1.0539 -0.2227  0.2246
 4208TIP3    H134039   3.099   0.611  13.952  2.5301  0.1111  0.8055
 4208TIP3    H234040   3.111   0.644  14.099 -1.4204 -1.1921  1.5584
 4209TIP3   OH234041   1.536   0.363   5.303  0.2012  0.0944  0.3339
 4209TIP3    H134042   1.574   0.368   5.391  0.3777  1.3278  0.2097
 4209TIP3    H234043   1.448   0.402   5.313  0.8037  1.7229 -0.3160
 4210TIP3   OH234044   3.382   1.065   2.019 -0.5190  0.5457  0.0514
 4210TIP3    H134045   3.387   1.143   1.965  0.7892 -0.4584 -1.3964
 4210TIP3    H234046   3.296   1.028   2.001 -0.4477  0.7101 -0.6405
 4211TIP3   OH234047   3.241   4.199  16.307 -0.5011 -0.2771 -0.5515
 4211TIP3    H134048   3.297   4.209  16.229  0.4074  0.2571  0.1509
 4211TIP3    H234049   3.302   4.194  16.380 -1.3592 -0.1792  0.1934
 4212TIP3   OH234050   0.033   3.920  13.763 -0.0393 -0.5021 -0.4575
 4212TIP3    H134051   0.058   3.924  13.671 -0.2543 -1.2427 -0.5538
 4212TIP3    H234052  -0.035   3.987  13.772 -0.2712 -0.6689 -0.9252
 4213TIP3   OH234053   2.710   3.632  12.191 -0.4117 -0.1967  0.6635
 4213TIP3    H134054   2.705   3.686  12.112 -0.3183 -1.2140 -0.0544
 4213TIP3    H234055   2.744   3.691  12.258  1.2352  0.2383 -0.4897
 4214TIP3   OH234056   4.795   3.189  11.152 -0.2594 -0.0548 -0.3506
 4214TIP3    H134057   4.876   3.139  11.164  0.3028  0.8906 -0.0706
 4214TIP3    H234058   4.754   3.150  11.075  1.1597  0.3213 -1.3341
 4215TIP3   OH234059   1.343   3.054   4.244 -0.0917  0.3353 -0.0541
 4215TIP3    H134060   1.379   2.966   4.232  1.3872  1.0545 -1.2920
 4215TIP3    H234061   1.406   3.098   4.301 -1.6173  0.1859  1.8564
 4216TIP3   OH234062   5.099   4.937  12.736 -0.2099 -0.0880  0.5510
 4216TIP3    H134063   5.109   4.848  12.770 -0.4446 -0.4550 -0.3103
 4216TIP3    H234064   5.076   4.925  12.644  1.9739  0.8745 -0.1844
 4217TIP3   OH234065   6.553   5.260   2.295 -0.2338  0.3876  0.0129
 4217TIP3    H134066   6.532   5.250   2.202 -0.3278 -0.8062  0.1423
 4217TIP3    H234067   6.477   5.223   2.340  0.7150 -1.0123  0.5270
 4218TIP3   OH234068   1.434   5.795   4.537 -0.1370  0.2206 -0.1865
 4218TIP3    H134069   1.432   5.736   4.462  0.1340 -0.0386  0.0099
 4218TIP3    H234070   1.452   5.739   4.612  0.2620  0.5690 -0.0168
 4219TIP3   OH234071   2.143   3.521  15.981 -0.3219  0.1159  0.7032
 4219TIP3    H134072   2.089   3.450  16.013 -1.8068  0.2308 -1.3436
 4219TIP3    H234073   2.089   3.565  15.915  2.8603 -0.9622 -3.0042
 4220TIP3   OH234074   2.115   0.209   2.821 -0.5444  0.0402  0.3830
 4220TIP3    H134075   2.036   0.263   2.826 -0.4770  0.0331  2.9613
 4220TIP3    H234076   2.083   0.119   2.833 -0.3105 -0.1596 -0.4289
 4221TIP3   OH234077   6.526   0.901   1.807 -0.0295  0.2403  0.6095
 4221TIP3    H134078   6.562   0.841   1.872  0.1195 -1.3349 -0.8770
 4221TIP3    H234079   6.444   0.861   1.780 -0.2098  0.9981  0.0085
 4222TIP3   OH234080   4.623   5.884  13.456 -0.1291  0.5097  0.3707
 4222TIP3    H134081   4.544   5.830  13.443  0.8231 -1.0523  0.8568
 4222TIP3    H234082   4.694   5.831  13.419  0.8989  1.2693  1.2240
 4223TIP3   OH234083   1.916   4.805   5.004  0.3453 -0.4412  0.0097
 4223TIP3    H134084   1.988   4.788   4.942  0.6915 -0.4671  0.4183
 4223TIP3    H234085   1.842   4.829   4.948  1.1406  1.3611 -0.3359
 4224TIP3   OH234086   2.764   5.167  14.110 -0.1301  0.2160  0.3976
 4224TIP3    H134087   2.670   5.156  14.099 -0.0801 -0.5791  0.6821
 4224TIP3    H234088   2.782   5.136  14.199  0.2844  1.1640  0.6613
 4225TIP3   OH234089   4.876   5.555  17.076 -0.4494 -0.1504 -0.2581
 4225TIP3    H134090   4.867   5.650  17.078 -0.5739 -0.1617  1.1624
 4225TIP3    H234091   4.943   5.537  17.142 -0.1423 -1.0281 -0.7996
 4226TIP3   OH234092   0.883   3.718  13.365  0.0603  0.1892 -0.4151
 4226TIP3    H134093   0.925   3.796  13.401  0.1260  0.2650 -0.6543
 4226TIP3    H234094   0.791   3.743  13.356  0.1342  0.3367 -0.7620
 4227TIP3   OH234095   3.641   2.512   6.858 -0.3399 -0.2342  0.2081
 4227TIP3    H134096   3.587   2.557   6.792  0.3016  0.1221 -0.0856
 4227TIP3    H234097   3.578   2.469   6.915 -0.9239 -0.3010 -0.4666
 4228TIP3   OH234098   5.492   4.001  16.663 -0.3711 -0.2550  0.3248
 4228TIP3    H134099   5.466   3.909  16.656  1.5168 -1.1560  3.3610
 4228TIP3    H234100   5.429   4.040  16.723  1.1324 -0.6982  2.2796
 4229TIP3   OH234101   1.818   1.513  15.393  0.3172  0.4391 -0.3018
 4229TIP3    H134102   1.733   1.557  15.384  0.6276  1.1086 -0.0619
 4229TIP3    H234103   1.830   1.504  15.488 -0.4910 -1.6870 -0.3448
 4230TIP3   OH234104   2.648   5.505  13.871  0.4537 -0.3408 -0.4483
 4230TIP3    H134105   2.691   5.434  13.823  1.0105 -1.7468  1.9799
 4230TIP3    H234106   2.667   5.487  13.963  0.0255  2.6044  0.3184
 4231TIP3   OH234107   5.148   0.999  15.755 -0.0477 -0.6970 -0.4180
 4231TIP3    H134108   5.128   1.037  15.670 -2.3948 -0.2938  0.2384
 4231TIP3    H234109   5.120   1.065  15.819  0.6497 -1.4271  0.6895
 4232TIP3   OH234110   1.024   2.084  13.005  0.0455  0.0363  0.4994
 4232TIP3    H134111   1.013   2.084  12.910 -0.4769  0.9190  0.5530
 4232TIP3    H234112   1.113   2.116  13.019 -0.0371  0.3380  0.3252
 4233TIP3   OH234113   4.259   0.584  12.198  0.1853 -0.2599 -0.0334
 4233TIP3    H134114   4.328   0.613  12.138  0.5910 -2.0680 -0.5171
 4233TIP3    H234115   4.206   0.523  12.146 -1.0125  0.1011  0.7181
 4234TIP3   OH234116   1.750   2.749  12.183 -0.5500 -0.2450  0.6125
 4234TIP3    H134117   1.685   2.761  12.252 -2.0599 -0.8492 -0.6286
 4234TIP3    H234118   1.788   2.663  12.200 -0.8815 -0.3689  0.7327
 4235TIP3   OH234119   4.736   6.518  13.733  0.0925  0.1194 -0.1426
 4235TIP3    H134120   4.743   6.607  13.769 -1.0309 -0.0847  0.6467
 4235TIP3    H234121   4.731   6.531  13.638  0.8559  0.8246 -0.0987
 4236TIP3   OH234122   1.631   1.492   0.216  0.1180 -0.2284  0.3940
 4236TIP3    H134123   1.616   1.528   0.303 -2.1824  0.5840 -0.2655
 4236TIP3    H234124   1.726   1.494   0.205  0.3912  0.4927  2.5092
 4237TIP3   OH234125   1.538   5.134   1.275  0.0510  0.2888  0.0352
 4237TIP3    H134126   1.453   5.179   1.272 -0.7997 -1.2471  0.1755
 4237TIP3    H234127   1.541   5.083   1.194  1.6087  1.5925 -0.7878
 4238TIP3   OH234128   1.894   5.552  11.683 -0.0199 -0.1251  0.0814
 4238TIP3    H134129   1.894   5.459  11.703  1.3729 -0.4535 -1.2544
 4238TIP3    H234130   1.870   5.557  11.591  1.9248  0.6255 -0.4515
 4239TIP3   OH234131   5.992   2.601   1.267 -0.2311  0.0336  0.0841
 4239TIP3    H134132   6.082   2.580   1.244 -0.2107 -0.8466  0.8892
 4239TIP3    H234133   5.988   2.589   1.362 -1.4375 -0.9217 -0.0590
 4240TIP3   OH234134   5.860   5.604  16.660  0.8697 -0.2101  0.5563
 4240TIP3    H134135   5.893   5.561  16.581 -0.1445 -1.8787  0.9856
 4240TIP3    H234136   5.860   5.697  16.638  0.8578 -0.6047 -1.3203
 4241TIP3   OH234137   5.760   2.127   5.114 -0.2073 -0.3724  0.0865
 4241TIP3    H134138   5.788   2.145   5.204 -1.3732 -2.2401  0.9029
 4241TIP3    H234139   5.672   2.166   5.108  0.4238  0.9639 -0.7325
 4242TIP3   OH234140   1.105   4.136   3.144  0.5928  0.4940  0.1524
 4242TIP3    H134141   1.173   4.189   3.102  1.1626 -0.6467 -0.3979
 4242TIP3    H234142   1.100   4.057   3.091 -1.3738  0.6756  0.0183
 4243TIP3   OH234143   4.930   1.924  15.751  0.6521 -0.0704 -0.8951
 4243TIP3    H134144   4.875   1.846  15.748 -3.2042  2.2596  1.4140
 4243TIP3    H234145   5.015   1.892  15.780 -0.7203 -3.4102 -0.1332
 4244TIP3   OH234146   5.120   1.545  11.030  0.1929  0.0556  0.8599
 4244TIP3    H134147   5.028   1.566  11.047 -0.0040  1.3404 -1.4627
 4244TIP3    H234148   5.169   1.618  11.068  0.0820  0.5473  0.0662
 4245TIP3   OH234149   3.057   2.014  15.366 -0.1474 -0.2557 -0.2894
 4245TIP3    H134150   3.003   1.999  15.288  2.0723  1.4297 -2.2832
 4245TIP3    H234151   3.015   2.088  15.410 -2.7577 -2.6252  1.5812
 4246TIP3   OH234152   4.700   3.845   3.082  0.0848 -0.1738 -0.1160
 4246TIP3    H134153   4.612   3.812   3.066  0.3806 -1.1900  0.3092
 4246TIP3    H234154   4.756   3.794   3.023  0.9373 -2.5789  2.5907
 4247TIP3   OH234155   3.659   0.688   4.557 -0.0390 -0.5343 -0.0255
 4247TIP3    H134156   3.578   0.683   4.607  0.4236 -1.5342  0.6536
 4247TIP3    H234157   3.693   0.599   4.557  0.7195 -0.2646 -0.8965
 4248TIP3   OH234158   4.015   6.324   2.926  0.3866 -0.2883  0.2684
 4248TIP3    H134159   3.997   6.284   2.840  1.1194 -0.5045  0.2098
 4248TIP3    H234160   3.944   6.293   2.982  1.1129 -2.0084  0.3188
 4249TIP3   OH234161   0.185   2.393  14.091 -0.0241 -0.2722  0.3801
 4249TIP3    H134162   0.202   2.386  13.997  2.6310  0.4297  0.7269
 4249TIP3    H234163   0.193   2.486  14.109  3.2896 -0.7230  1.8311
 4250TIP3   OH234164   1.588   2.570  11.981 -0.1531 -0.0485  0.0690
 4250TIP3    H134165   1.552   2.591  11.895 -1.9366  0.2083  0.8289
 4250TIP3    H234166   1.623   2.652  12.013 -1.1652  0.2967  0.3275
 4251TIP3   OH234167   2.982   2.569  12.225  0.5855  0.3403  0.0917
 4251TIP3    H134168   2.903   2.518  12.244  0.6077  1.2460  2.9546
 4251TIP3    H234169   2.950   2.644  12.174  0.0114 -0.5603 -0.9160
 4252TIP3   OH234170   6.438   1.427  15.525 -0.7123  0.0172  0.3459
 4252TIP3    H134171   6.532   1.437  15.513 -0.6433 -1.0741 -0.1450
 4252TIP3    H234172   6.418   1.477  15.604  0.1677  0.7891  0.0919
 4253TIP3   OH234173   4.634   5.047  13.070 -0.3491  0.2159  0.0900
 4253TIP3    H134174   4.671   4.996  13.142 -0.2233  0.2377  0.0408
 4253TIP3    H234175   4.539   5.035  13.078 -0.3536  0.4791  0.4514
 4254TIP3   OH234176   3.173   1.329  14.612  0.6407  0.7243 -0.2075
 4254TIP3    H134177   3.101   1.353  14.671  0.3698 -1.2659  0.3441
 4254TIP3    H234178   3.131   1.319  14.526  0.2368 -0.4373  0.1146
 4255TIP3   OH234179   1.523   2.193  12.501  0.0785 -0.2619  0.1447
 4255TIP3    H134180   1.473   2.206  12.420 -0.6847  0.6553  0.7465
 4255TIP3    H234181   1.557   2.104  12.493  0.0299 -0.1922 -1.1881
 4256TIP3   OH234182   5.280   4.763   1.618 -0.2257  0.5655 -0.2302
 4256TIP3    H134183   5.291   4.743   1.711 -2.7911  0.2936  0.1018
 4256TIP3    H234184   5.240   4.684   1.581  0.1925  0.9035 -1.4498
 4257TIP3   OH234185   5.834   2.801  15.688  0.2840  0.6665 -0.2713
 4257TIP3    H134186   5.836   2.869  15.621  0.4491  0.2568 -0.6861
 4257TIP3    H234187   5.872   2.724  15.645 -2.1286 -0.4063 -0.6120
 4258TIP3   OH234188   2.612   4.380   4.383 -0.0627 -0.2721 -0.6323
 4258TIP3    H134189   2.592   4.411   4.295  1.2360 -1.6991 -1.4680
 4258TIP3    H234190   2.626   4.460   4.434 -1.8864  0.6011 -1.4154
 4259TIP3   OH234191   3.761   1.895   2.440  0.3426 -0.0976 -0.4220
 4259TIP3    H134192   3.721   1.974   2.405 -0.2726 -1.1738 -2.3292
 4259TIP3    H234193   3.694   1.827   2.428  2.4743 -1.9440 -3.5763
 4260TIP3   OH234194   0.759   0.890   0.183  0.2938  0.3443  0.4386
 4260TIP3    H134195   0.679   0.938   0.205  0.4816  0.6419  0.4813
 4260TIP3    H234196   0.746   0.803   0.222  0.7134  0.9181  1.9519
 4261TIP3   OH234197   6.732   3.788   1.226  0.0739 -0.1300  0.3930
 4261TIP3    H134198   6.788   3.860   1.253  0.1481 -0.5376  1.3690
 4261TIP3    H234199   6.793   3.718   1.200  0.0037  0.1740 -0.6251
 4262TIP3   OH234200   6.446   2.149   4.459  0.0867 -0.4643  0.6033
 4262TIP3    H134201   6.452   2.065   4.413 -0.4578 -0.1631 -0.0242
 4262TIP3    H234202   6.459   2.126   4.551  1.8438 -0.9949  0.2678
 4263TIP3   OH234203   5.729   3.717   2.229 -0.4707  0.4758 -0.0663
 4263TIP3    H134204   5.683   3.759   2.302 -1.2322  0.7985 -0.7101
 4263TIP3    H234205   5.670   3.646   2.203 -1.6672  2.1392 -2.2224
 4264TIP3   OH234206   1.644   5.856   5.022 -0.1246  0.3795  0.2600
 4264TIP3    H134207   1.569   5.908   5.049  1.2134  1.9154  1.1976
 4264TIP3    H234208   1.639   5.777   5.076  0.0427  1.4002  1.8374
 4265TIP3   OH234209   3.143   1.092  15.061 -0.1782  0.0030 -0.0111
 4265TIP3    H134210   3.235   1.083  15.038  0.1881  0.4103  1.1816
 4265TIP3    H234211   3.095   1.061  14.985  0.9481 -2.5472  0.2206
 4266TIP3   OH234212   0.096   5.867   5.555  0.4728 -0.1264  0.5797
 4266TIP3    H134213   0.032   5.919   5.506  1.6738  1.9135  1.0590
 4266TIP3    H234214   0.049   5.837   5.632 -1.0991 -2.3571 -1.1206
 4267TIP3   OH234215   1.148   2.808   5.802 -0.0313 -0.4273  0.2079
 4267TIP3    H134216   1.057   2.838   5.804 -0.2629 -1.1388  0.9513
 4267TIP3    H234217   1.146   2.723   5.846  0.6800 -1.3624 -1.4617
 4268TIP3   OH234218   3.360   5.033   3.450  0.0503 -0.0678  0.4854
 4268TIP3    H134219   3.325   4.945   3.436 -1.3305  0.2917  1.4722
 4268TIP3    H234220   3.299   5.090   3.404  1.1741  0.3837 -0.5167
 4269TIP3   OH234221   5.243   5.319  16.252 -0.1762  0.7885  0.6943
 4269TIP3    H134222   5.241   5.264  16.330 -1.1746  1.1533  0.9348
 4269TIP3    H234223   5.152   5.341  16.235  0.0008  0.5292 -0.7210
 4270TIP3   OH234224   1.809   0.670  16.626 -0.3298 -0.0361  0.2387
 4270TIP3    H134225   1.773   0.755  16.652 -0.4000 -0.1274  0.4411
 4270TIP3    H234226   1.827   0.625  16.709 -0.1119 -0.1428  0.1358
 4271TIP3   OH234227   3.354   1.587  11.528 -0.1291  0.0436  0.1811
 4271TIP3    H134228   3.384   1.497  11.537 -0.3944 -0.0946 -0.2948
 4271TIP3    H234229   3.393   1.618  11.446 -3.1044 -0.9148 -1.7885
 4272TIP3   OH234230   3.732   2.775   6.028 -0.0288 -0.2302 -0.4701
 4272TIP3    H134231   3.746   2.724   6.108  1.2105 -2.4274 -1.9837
 4272TIP3    H234232   3.766   2.862   6.048  1.2239 -1.0324  1.0719
 4273TIP3   OH234233   2.474   4.733   0.685 -0.0090 -0.5142  0.6489
 4273TIP3    H134234   2.518   4.712   0.602 -1.0153  1.3809 -0.4321
 4273TIP3    H234235   2.488   4.656   0.740  1.7507 -1.3197 -0.8382
 4274TIP3   OH234236   6.039   2.029  11.447  0.4897 -0.6364 -0.1421
 4274TIP3    H134237   6.019   1.940  11.475  0.5866 -1.2605 -1.9143
 4274TIP3    H234238   5.998   2.036  11.361 -0.8736  1.5869  0.6145
 4275TIP3   OH234239   0.856   3.513  16.303  0.1472  0.4957 -0.0025
 4275TIP3    H134240   0.779   3.538  16.354  1.0249  0.8252  1.2051
 4275TIP3    H234241   0.924   3.499  16.368  0.6355 -1.6856 -0.8801
 4276TIP3   OH234242   6.232   2.623   2.728 -0.0141 -0.3954 -0.1903
 4276TIP3    H134243   6.324   2.609   2.707  0.6332  2.0862  0.6791
 4276TIP3    H234244   6.207   2.699   2.675 -1.7160 -1.2610 -0.7168
 4277TIP3   OH234245   2.309   1.282  15.358  0.5006  0.1114  0.1783
 4277TIP3    H134246   2.328   1.324  15.274  0.6000 -0.4103 -0.0640
 4277TIP3    H234247   2.273   1.352  15.412  0.0513  0.3649 -0.4341
 4278TIP3   OH234248   3.894   6.327   0.982 -0.1497  0.0391 -0.4594
 4278TIP3    H134249   3.824   6.353   1.042  0.6980  1.0543  0.1271
 4278TIP3    H234250   3.873   6.237   0.958 -0.9337 -0.1122  0.7247
 4279TIP3   OH234251   3.855   1.178  12.210 -0.3979 -0.0595 -0.5273
 4279TIP3    H134252   3.901   1.096  12.231  0.8505  0.5932 -0.6510
 4279TIP3    H234253   3.925   1.241  12.192 -1.3598  0.7627 -1.5085
 4280TIP3   OH234254   2.019   0.246  11.536 -0.9293 -0.8731  0.1221
 4280TIP3    H134255   2.061   0.186  11.599  0.4673  1.7735  1.9057
 4280TIP3    H234256   2.091   0.277  11.482 -1.2978  0.5226  0.4105
 4281TIP3   OH234257   6.747   1.759   2.702  0.0239 -0.2609  0.0944
 4281TIP3    H134258   6.797   1.768   2.783 -0.3742  0.9053  0.2364
 4281TIP3    H234259   6.668   1.710   2.727 -1.4505  2.3963  1.1013
 4282TIP3   OH234260   1.503   2.256   4.684 -0.5093  0.4273 -0.0895
 4282TIP3    H134261   1.591   2.237   4.651 -0.6520 -1.1478  0.3378
 4282TIP3    H234262   1.461   2.305   4.613  0.5048  0.6667 -0.5433
 4283TIP3   OH234263   3.161   4.937   5.777 -0.1077  0.6280 -0.3196
 4283TIP3    H134264   3.199   5.012   5.733 -1.2590  1.1831 -0.4122
 4283TIP3    H234265   3.089   4.910   5.719  0.8930 -1.1849 -0.8099
 4284TIP3   OH234266   2.511   1.892   5.238  0.5690 -0.0609  0.3274
 4284TIP3    H134267   2.493   1.885   5.144  0.0934 -1.1581  0.4789
 4284TIP3    H234268   2.600   1.925   5.243  1.5377 -2.3293 -0.5637
 4285TIP3   OH234269   6.658   2.947  11.266 -0.0785 -0.1238 -0.3023
 4285TIP3    H134270   6.575   2.898  11.269  0.3378 -1.1164 -2.5065
 4285TIP3    H234271   6.633   3.037  11.286 -1.7197 -0.3952 -0.8938
 4286TIP3   OH234272   4.989   6.746   0.829  0.5214 -0.0120 -0.3158
 4286TIP3    H134273   5.013   6.778   0.916  1.9026 -0.0499 -0.6534
 4286TIP3    H234274   5.073   6.729   0.786 -0.1459 -1.0044 -1.2846
 4287TIP3   OH234275   1.443   1.120   5.829 -0.7631 -0.2904  0.6455
 4287TIP3    H134276   1.538   1.112   5.839 -0.5843 -1.9627 -1.5064
 4287TIP3    H234277   1.407   1.095   5.914  0.7043 -1.1880  1.0280
 4288TIP3   OH234278   0.995   2.382   2.263  0.9416  0.0937 -0.3801
 4288TIP3    H134279   1.026   2.407   2.350  0.2830  0.3556 -0.2150
 4288TIP3    H234280   0.910   2.343   2.279  1.7411 -1.8746 -0.6768
 4289TIP3   OH234281   1.494   2.274   0.283  0.0229  0.6001  0.7080
 4289TIP3    H134282   1.491   2.179   0.278  1.6198  0.5639 -0.3587
 4289TIP3    H234283   1.583   2.297   0.254 -0.5088  2.4314  0.3887
 4290TIP3   OH234284   6.369   2.027  12.703 -0.4714  0.2468 -0.2670
 4290TIP3    H134285   6.417   2.050  12.782 -1.1432 -0.6274  0.4185
 4290TIP3    H234286   6.300   2.094  12.696 -0.3578  0.3743 -0.1589
 4291TIP3   OH234287   4.980   4.049   5.109  0.6723 -0.1520  0.0353
 4291TIP3    H134288   5.013   4.136   5.134 -1.5976  0.4857  1.1153
 4291TIP3    H234289   4.927   4.065   5.031 -0.1454 -0.4489  0.5153
 4292TIP3   OH234290   2.304   1.035   1.948  0.0497  0.1957 -0.6600
 4292TIP3    H134291   2.213   1.012   1.968 -0.3351  1.3354 -0.9840
 4292TIP3    H234292   2.336   0.963   1.895 -0.8165 -0.0243 -0.9091
 4293TIP3   OH234293   4.944   6.373  14.463  0.7569  0.1115 -0.2238
 4293TIP3    H134294   4.865   6.427  14.458  0.6677 -0.1187 -1.7970
 4293TIP3    H234295   4.990   6.405  14.541 -0.2510  1.1123 -0.0123
 4294TIP3   OH234296   3.275   2.484   3.777 -0.3777 -0.2385  0.4310
 4294TIP3    H134297   3.227   2.515   3.700  0.3053 -0.5872 -0.1540
 4294TIP3    H234298   3.339   2.553   3.795  0.0479 -0.5477  0.1359
 4295TIP3   OH234299   0.019   4.708  17.145  0.4318 -0.2051 -0.4441
 4295TIP3    H134300  -0.059   4.763  17.143 -0.0381 -0.8690 -1.6666
 4295TIP3    H234301   0.063   4.731  17.227 -1.4099 -0.3426  0.6413
 4296TIP3   OH234302   5.961   4.323   0.340 -0.3047 -0.1880 -0.3258
 4296TIP3    H134303   5.995   4.242   0.377  0.6178  1.0099  1.5522
 4296TIP3    H234304   5.986   4.320   0.247  2.7669 -0.5245  0.4425
 4297TIP3   OH234305   5.235   1.211  12.412 -0.2888 -0.0647  0.6361
 4297TIP3    H134306   5.159   1.230  12.467 -0.6893 -0.3870  0.2033
 4297TIP3    H234307   5.235   1.116  12.403  0.2186 -0.0770  0.6991
 4298TIP3   OH234308   4.560   0.854   3.466 -0.0205 -0.8932 -0.2012
 4298TIP3    H134309   4.479   0.885   3.427  0.4356  0.7497  0.0593
 4298TIP3    H234310   4.629   0.896   3.415  0.6487 -1.5549  0.1378
 4299TIP3   OH234311   4.387   4.594  10.937  0.1263  0.5606  0.0683
 4299TIP3    H134312   4.317   4.607  10.872 -0.5859 -1.5315  0.3224
 4299TIP3    H234313   4.465   4.631  10.896 -0.4170 -0.2256 -1.7866
 4300TIP3   OH234314   2.733   5.966   3.511  0.0945 -0.1491  0.3340
 4300TIP3    H134315   2.692   6.040   3.466  1.1736 -0.0610 -0.5370
 4300TIP3    H234316   2.663   5.931   3.567 -0.8518  0.6466 -0.3062
 4301TIP3   OH234317   4.497   2.834  17.100  0.0698 -0.3774 -0.3955
 4301TIP3    H134318   4.488   2.814  17.194 -0.8801 -2.3603 -0.8576
 4301TIP3    H234319   4.439   2.910  17.086 -1.5927 -1.4727  0.2324
 4302TIP3   OH234320   3.455   1.012  14.914 -0.1055 -0.2592  0.0882
 4302TIP3    H134321   3.529   0.981  14.861  0.3605 -0.2095  0.7052
 4302TIP3    H234322   3.466   1.107  14.916  0.7216 -0.3660  1.4904
 4303TIP3   OH234323   1.262   6.271   2.732  0.3221 -0.0457  0.6350
 4303TIP3    H134324   1.190   6.298   2.675  0.3592 -1.1764  0.0288
 4303TIP3    H234325   1.338   6.263   2.674  0.1713 -2.0162  0.6390
 4304TIP3   OH234326   1.957   2.149   4.659 -0.2170 -0.0272 -0.1500
 4304TIP3    H134327   1.945   2.099   4.739 -2.3354  1.3169  0.4537
 4304TIP3    H234328   1.898   2.109   4.595  0.2906 -0.1087 -0.5832
 4305TIP3   OH234329   4.208   4.366  16.458 -1.0981 -0.0606  0.0592
 4305TIP3    H134330   4.278   4.354  16.393  0.4471  2.0081  1.2027
 4305TIP3    H234331   4.138   4.308  16.429  0.4350 -0.9718 -2.1081
 4306TIP3   OH234332   2.331   1.560  14.227 -0.1125 -0.5414  0.1569
 4306TIP3    H134333   2.289   1.582  14.144  0.8715 -0.8841 -0.4598
 4306TIP3    H234334   2.287   1.480  14.256 -0.5727 -0.3291  0.0515
 4307TIP3   OH234335   5.690   5.948   3.222  0.0734 -0.2386  0.0382
 4307TIP3    H134336   5.770   5.998   3.241 -0.5383  1.3547 -1.3163
 4307TIP3    H234337   5.675   5.962   3.128 -0.8944 -1.8991 -0.0905
 4308TIP3   OH234338   2.591   3.576   0.167 -0.0911  1.0228 -0.9210
 4308TIP3    H134339   2.664   3.548   0.111  0.3127 -1.6640  0.7251
 4308TIP3    H234340   2.633   3.625   0.238  0.0952  0.0286 -0.3177
 4309TIP3   OH234341   1.221   4.130   3.980 -0.2983  0.0344  0.3470
 4309TIP3    H134342   1.205   4.095   3.892  1.5009  0.2704 -0.1224
 4309TIP3    H234343   1.165   4.207   3.986 -1.4335 -0.7385 -0.0763
 4310TIP3   OH234344   2.689   4.213  11.483 -0.0505  0.6300 -0.2287
 4310TIP3    H134345   2.634   4.206  11.406  0.0139  0.9722 -0.3057
 4310TIP3    H234346   2.776   4.236  11.449  1.1904 -3.6167 -0.5189
 4311TIP3   OH234347   0.803   4.955  15.821  0.2463  0.0500  0.0184
 4311TIP3    H134348   0.775   5.045  15.838 -0.5317  0.0492 -1.1380
 4311TIP3    H234349   0.855   4.961  15.741  1.3903 -0.3412  0.7049
 4312TIP3   OH234350   1.848   0.993   0.665  0.1225 -0.0944 -0.1476
 4312TIP3    H134351   1.926   0.971   0.616 -0.3902 -2.2795 -0.0687
 4312TIP3    H234352   1.829   1.084   0.641  0.8945 -0.5122 -2.5857
 4313TIP3   OH234353   0.881   4.021  16.188  0.0815 -0.1952 -0.2498
 4313TIP3    H134354   0.865   4.019  16.094  0.6389 -1.9937 -0.3423
 4313TIP3    H234355   0.820   3.958  16.225  0.2889  0.0401  0.5272
 4314TIP3   OH234356   5.841   3.745  13.622  0.1778  0.0956 -0.2510
 4314TIP3    H134357   5.836   3.785  13.708  0.9440 -0.1519 -0.0858
 4314TIP3    H234358   5.895   3.804  13.570  3.2666 -1.7102  0.6255
 4315TIP3   OH234359   1.967   5.558   3.517  0.3951 -0.3795 -0.4694
 4315TIP3    H134360   2.028   5.540   3.446 -0.1314 -0.4918 -0.8897
 4315TIP3    H234361   1.890   5.505   3.498  0.1163 -0.1502 -0.0007
 4316TIP3   OH234362   1.413   5.709   1.928 -0.2185 -0.7249 -0.2230
 4316TIP3    H134363   1.506   5.689   1.932 -0.0367  0.0224 -0.4629
 4316TIP3    H234364   1.379   5.654   1.858 -0.1235 -1.5837  0.3851
 4317TIP3   OH234365   6.165   2.546   5.601 -0.1287 -0.2566  0.2115
 4317TIP3    H134366   6.075   2.578   5.605 -0.5202 -1.2672 -0.1126
 4317TIP3    H234367   6.215   2.608   5.655 -1.1536 -0.1735  1.1042
 4318TIP3   OH234368   1.001   3.951  12.997  0.2815 -0.2213 -0.5144
 4318TIP3    H134369   1.075   3.891  12.997  0.2244 -0.2922 -0.5344
 4318TIP3    H234370   1.011   4.002  13.077 -0.1343 -0.8304 -0.0696
 4319TIP3   OH234371   6.410   0.099   5.970  0.3664  0.1049  0.1600
 4319TIP3    H134372   6.369   0.023   6.011  1.7584 -0.9644 -0.3561
 4319TIP3    H234373   6.433   0.156   6.044 -1.4733  0.4883  0.4952
 4320TIP3   OH234374   6.279   0.455  16.655  0.1629 -0.4841  1.2500
 4320TIP3    H134375   6.229   0.424  16.730  0.0230 -0.2809  1.2408
 4320TIP3    H234376   6.320   0.377  16.619 -0.2097 -0.6656  1.2136
 4321TIP3   OH234377   5.751   1.974   2.261  0.4112  0.3486 -0.4369
 4321TIP3    H134378   5.675   1.945   2.210 -1.0345  1.2946  1.0661
 4321TIP3    H234379   5.810   2.013   2.196 -1.3987  1.5968 -1.4351
 4322TIP3   OH234380   5.027   5.702  13.898  0.8405  0.0009  0.0932
 4322TIP3    H134381   5.087   5.723  13.826  2.3135 -0.3272  1.1660
 4322TIP3    H234382   5.023   5.606  13.899  2.4184 -0.1002  1.6220
 4323TIP3   OH234383   2.199   5.204   1.349 -0.4419 -0.3804  0.2085
 4323TIP3    H134384   2.276   5.235   1.301 -0.4127 -0.9357 -0.1107
 4323TIP3    H234385   2.202   5.251   1.432  0.8040 -1.1319  0.6039
 4324TIP3   OH234386   1.628   0.551   3.637  0.1733 -0.2460  0.0754
 4324TIP3    H134387   1.657   0.641   3.656  1.6209 -0.3855 -1.2907
 4324TIP3    H234388   1.703   0.496   3.658 -0.8640 -1.2391  1.3695
 4325TIP3   OH234389   6.718   5.199  12.611  0.2334 -0.3442  0.5566
 4325TIP3    H134390   6.707   5.109  12.581  0.2762 -0.5068  1.0100
 4325TIP3    H234391   6.629   5.232  12.621  0.1650 -0.8769  1.9456
 4326TIP3   OH234392   5.627   5.486  13.547  0.1468  0.0159 -0.5356
 4326TIP3    H134393   5.622   5.503  13.453 -2.4898  0.2282 -0.4425
 4326TIP3    H234394   5.591   5.397  13.556 -0.1272  0.2077  0.3005
 4327TIP3   OH234395   3.067   5.454  13.555  0.9787 -0.1422 -0.4850
 4327TIP3    H134396   3.106   5.376  13.516 -0.3933 -1.3448  0.4385
 4327TIP3    H234397   2.974   5.445  13.539  0.7425  1.0738  0.0764
 4328TIP3   OH234398   4.920   3.331  16.311  0.1081 -0.0398  0.0326
 4328TIP3    H134399   4.928   3.417  16.270 -0.2281  0.1374  0.3284
 4328TIP3    H234400   4.869   3.279  16.250 -0.6423  0.3106  0.3432
 4329TIP3   OH234401   4.964   2.000   1.483 -0.1332  0.4756 -0.1198
 4329TIP3    H134402   5.056   1.983   1.463 -0.5301  0.3211 -2.1130
 4329TIP3    H234403   4.965   2.038   1.571  1.7417 -0.2800  0.2415
 4330TIP3   OH234404   4.004   1.646  11.199  0.6337  0.0147  0.0004
 4330TIP3    H134405   4.026   1.637  11.291 -1.0686 -0.6945  0.3643
 4330TIP3    H234406   3.919   1.690  11.199 -0.6467 -2.3020 -1.1020
 4331TIP3   OH234407   6.485   0.162   2.375 -0.0253  0.2397 -0.0716
 4331TIP3    H134408   6.457   0.078   2.410  1.3385  0.8283  2.7096
 4331TIP3    H234409   6.403   0.207   2.353 -0.7938 -1.5413 -1.0596
 4332TIP3   OH234410   5.502   5.372  17.098  0.2295 -0.4004 -0.2229
 4332TIP3    H134411   5.431   5.404  17.154  1.6002  0.7777  0.8976
 4332TIP3    H234412   5.567   5.338  17.159  0.4827 -1.8791 -1.2564
 4333TIP3   OH234413   1.709   6.175  11.876 -0.8093 -0.0050 -0.0338
 4333TIP3    H134414   1.786   6.128  11.908  0.0944 -0.6879 -2.9358
 4333TIP3    H234415   1.635   6.131  11.918  0.2623  0.0400  2.0591
 4334TIP3   OH234416   5.313   5.080   4.211 -1.0892  0.3603  0.0678
 4334TIP3    H134417   5.255   5.143   4.255 -0.5678 -0.7299  2.4738
 4334TIP3    H234418   5.400   5.098   4.247 -0.3716  0.2611 -1.5466
 4335TIP3   OH234419   0.158   0.857  16.292 -0.1836  0.2498  0.6088
 4335TIP3    H134420   0.081   0.803  16.274 -1.7208  2.4393  0.1826
 4335TIP3    H234421   0.193   0.878  16.205 -0.4028  0.9895  0.6904
 4336TIP3   OH234422   6.215   1.614   5.383 -0.0334  0.3269 -0.2506
 4336TIP3    H134423   6.251   1.527   5.367 -0.3341  0.4224 -1.5410
 4336TIP3    H234424   6.232   1.663   5.302 -2.4996  0.5526 -0.7258
 4337TIP3   OH234425   4.136   1.743   1.771 -0.1934  0.4911 -0.4653
 4337TIP3    H134426   4.173   1.805   1.708  1.4783  0.2060  0.2129
 4337TIP3    H234427   4.195   1.668   1.770 -0.6002  0.1199  0.8420
 4338TIP3   OH234428   4.558   1.570  13.232  0.2871 -0.3191 -0.0204
 4338TIP3    H134429   4.511   1.543  13.153  1.5732 -0.8119 -0.6316
 4338TIP3    H234430   4.610   1.494  13.257 -0.2486 -0.2428  1.4469
 4339TIP3   OH234431   5.309   0.117  14.577  0.3787  0.4113  0.3264
 4339TIP3    H134432   5.255   0.063  14.519  2.0702 -1.6637  0.5828
 4339TIP3    H234433   5.257   0.127  14.657 -1.0184  1.4020 -0.6504
 4340TIP3   OH234434   0.811   2.635   2.427 -0.0236  0.3789 -0.2261
 4340TIP3    H134435   0.742   2.591   2.378 -0.3218  1.2946 -0.6696
 4340TIP3    H234436   0.839   2.572   2.493  0.3595 -0.8715 -1.5397
 4341TIP3   OH234437   2.508   1.523  11.893 -0.5354 -1.0475  0.2234
 4341TIP3    H134438   2.483   1.615  11.883 -1.0604 -1.0744  1.1479
 4341TIP3    H234439   2.435   1.484  11.942 -0.4263 -2.0090 -0.3708
 4342TIP3   OH234440   1.194   3.725   3.394 -0.1484 -0.1480  0.0611
 4342TIP3    H134441   1.186   3.636   3.429  0.6257  0.3996  1.7000
 4342TIP3    H234442   1.143   3.779   3.454 -1.1970  0.4410 -1.3257
 4343TIP3   OH234443   3.113   5.841   2.011 -0.4402  0.4197  0.2887
 4343TIP3    H134444   3.117   5.834   1.916  0.0442 -0.9576  0.3872
 4343TIP3    H234445   3.152   5.927   2.030 -1.1900  1.0291 -0.7733
 4344TIP3   OH234446   0.120   6.655  14.615  0.8438 -0.4094  0.1057
 4344TIP3    H134447   0.139   6.739  14.574  2.6607 -0.8375 -0.0339
 4344TIP3    H234448   0.086   6.678  14.702  1.6052  0.4944  0.1848
 4345TIP3   OH234449   4.526   4.023   5.473 -0.4700 -0.2542 -0.7970
 4345TIP3    H134450   4.497   3.938   5.440  0.5073 -0.5602 -0.9204
 4345TIP3    H234451   4.520   4.015   5.569  0.4123 -0.7895 -0.7653
 4346TIP3   OH234452   6.526   0.299  13.930 -0.1119 -0.2884 -0.7333
 4346TIP3    H134453   6.534   0.268  14.020 -0.3320 -2.4810 -1.4004
 4346TIP3    H234454   6.615   0.295  13.895  0.2320  1.9414 -0.2601
 4347TIP3   OH234455   2.593   5.726   2.184 -0.2239  0.2321  0.1812
 4347TIP3    H134456   2.521   5.707   2.244 -0.7075  2.3866  0.3583
 4347TIP3    H234457   2.672   5.720   2.239 -0.5708  1.1274  0.7936
 4348TIP3   OH234458   0.536   3.749   1.102 -0.4242 -0.3783  0.2166
 4348TIP3    H134459   0.565   3.804   1.030 -1.8816 -0.3009 -0.3515
 4348TIP3    H234460   0.442   3.766   1.109 -0.1887  0.2647  2.7165
 4349TIP3   OH234461   6.728   6.542  15.215 -0.0981 -0.2894 -0.1282
 4349TIP3    H134462   6.792   6.522  15.283  0.0726 -0.9788 -0.4826
 4349TIP3    H234463   6.774   6.524  15.133  0.2262  2.0361 -0.5191
 4350TIP3   OH234464   2.833   4.808  14.214  0.3345 -0.7375  0.3188
 4350TIP3    H134465   2.861   4.727  14.258  0.8768 -1.5531 -1.4369
 4350TIP3    H234466   2.915   4.847  14.183 -0.0629 -0.4131 -0.3341
 4351TIP3   OH234467   2.627   1.425   1.901 -0.3462 -0.4511  0.6390
 4351TIP3    H134468   2.547   1.385   1.867 -0.8243  0.0770  1.1292
 4351TIP3    H234469   2.683   1.437   1.824 -1.6948  1.4021 -0.1301
 4352TIP3   OH234470   6.515   1.612  12.595 -0.3339 -0.4691 -0.2098
 4352TIP3    H134471   6.447   1.553  12.629  2.0583 -3.0746  0.4543
 4352TIP3    H234472   6.559   1.560  12.528  1.8269  0.6401  0.2867
 4353TIP3   OH234473   2.842   2.313   5.675  0.1026  0.4195 -0.0586
 4353TIP3    H134474   2.855   2.227   5.716 -1.3766  0.6044  0.8895
 4353TIP3    H234475   2.818   2.293   5.585 -1.4665 -0.2728  0.4629
 4354TIP3   OH234476   1.795   4.504  14.495 -0.2189 -0.5979 -0.0771
 4354TIP3    H134477   1.800   4.440  14.425 -0.7252  0.2756 -0.9439
 4354TIP3    H234478   1.866   4.566  14.477 -0.2903 -0.4204  0.2388
 4355TIP3   OH234479   4.149   3.217  14.875  0.7281  0.4887  0.7757
 4355TIP3    H134480   4.217   3.177  14.821  0.3589  0.7536  0.0999
 4355TIP3    H234481   4.132   3.302  14.834  1.4259  1.3165  2.1167
 4356TIP3   OH234482   0.809   4.903  12.447 -0.2701  0.4509 -0.5031
 4356TIP3    H134483   0.892   4.937  12.416  0.6610  0.4882  1.7826
 4356TIP3    H234484   0.743   4.954  12.400  0.9868  0.9877 -1.7704
 4357TIP3   OH234485   5.884   1.959   1.632  0.0995  0.4411 -0.0240
 4357TIP3    H134486   5.909   1.936   1.542 -1.1222  0.0276 -0.2701
 4357TIP3    H234487   5.841   1.880   1.666  1.2121  0.3237  1.1995
 4358TIP3   OH234488   3.181   5.799   1.726  0.3301 -0.2139  0.2658
 4358TIP3    H134489   3.276   5.807   1.720  0.4276 -1.1832  0.3420
 4358TIP3    H234490   3.151   5.789   1.636  0.2189  0.8211  0.1792
 4359TIP3   OH234491   0.661   0.453  11.900 -0.1453 -0.0775 -0.0201
 4359TIP3    H134492   0.658   0.358  11.913 -0.7960 -0.0000  0.4066
 4359TIP3    H234493   0.614   0.489  11.975  0.3691  0.6019 -0.0103
 4360TIP3   OH234494   6.523   0.249   0.594 -0.5833  0.1693 -0.4817
 4360TIP3    H134495   6.598   0.286   0.641 -0.6908  1.1147 -1.0204
 4360TIP3    H234496   6.563   0.204   0.519 -0.5609  1.3211 -1.1981
 4361TIP3   OH234497   5.331   4.048  15.235  0.0341 -0.4371 -0.5667
 4361TIP3    H134498   5.399   3.981  15.223  0.1152 -0.2789 -1.0067
 4361TIP3    H234499   5.339   4.104  15.158 -0.2587 -0.1163 -0.3643
 4362TIP3   OH234500   0.707   6.345   1.888 -0.2828 -0.2057 -0.6583
 4362TIP3    H134501   0.761   6.419   1.861  0.3084  0.3368  1.7488
 4362TIP3    H234502   0.714   6.283   1.816 -0.1651  1.7242 -2.4176
 4363TIP3   OH234503   0.802   4.361  13.030 -0.3162  0.1761 -0.2102
 4363TIP3    H134504   0.800   4.446  12.986 -1.1325  0.1896 -0.1656
 4363TIP3    H234505   0.724   4.361  13.085  0.2131 -0.2064  0.5496
 4364TIP3   OH234506   2.136   6.468  16.558  0.5142  0.1825  0.2816
 4364TIP3    H134507   2.223   6.468  16.518  0.2500  0.5125 -0.3080
 4364TIP3    H234508   2.084   6.526  16.502 -0.2799 -0.5840  0.2087
 4365TIP3   OH234509   6.376   1.547  16.264  0.0042 -0.7293 -0.5239
 4365TIP3    H134510   6.337   1.580  16.183  0.3960 -0.4041 -0.5827
 4365TIP3    H234511   6.337   1.601  16.333  0.9908  0.1818 -0.6616
 4366TIP3   OH234512   4.741   3.856  16.128 -0.1222  0.2551  0.0200
 4366TIP3    H134513   4.820   3.854  16.074  0.3085 -1.5635  0.6293
 4366TIP3    H234514   4.670   3.838  16.068  0.1031  0.3292 -0.2707
 4367TIP3   OH234515   6.451   5.144  16.052 -0.1509  0.5396  0.7026
 4367TIP3    H134516   6.379   5.191  16.093 -0.3646  0.4607  0.4180
 4367TIP3    H234517   6.439   5.052  16.078 -0.9064  0.3063 -0.3993
 4368TIP3   OH234518   1.949   3.322   2.999 -0.1829  0.2501 -0.4875
 4368TIP3    H134519   2.029   3.270   3.008  0.2374  0.9918  0.2811
 4368TIP3    H234520   1.945   3.374   3.080 -1.3954  0.2942 -0.5528
 4369TIP3   OH234521   5.901   0.225  15.044  0.0508 -0.1793 -0.3192
 4369TIP3    H134522   5.909   0.188  15.132 -0.5796  2.3464  0.8808
 4369TIP3    H234523   5.845   0.163  14.997 -1.7384 -0.3388  1.8664
 4370TIP3   OH234524   4.304   4.133  12.495 -0.2237  0.5984 -0.7039
 4370TIP3    H134525   4.237   4.072  12.525  0.6093 -1.0731 -2.0772
 4370TIP3    H234526   4.272   4.164  12.410  1.1670 -1.1155 -1.9464
 4371TIP3   OH234527   1.595   4.598  13.240 -0.6160  0.8655 -0.6167
 4371TIP3    H134528   1.561   4.571  13.325 -0.2178  3.1358  0.3564
 4371TIP3    H234529   1.522   4.646  13.200 -0.1864  1.4539 -0.7034
 4372TIP3   OH234530   6.752   1.801   0.787  0.7211  0.2391 -0.3174
 4372TIP3    H134531   6.716   1.870   0.842 -1.5580 -1.6174  0.7131
 4372TIP3    H234532   6.840   1.785   0.822  0.5763  1.3381  0.6004
 4373TIP3   OH234533   4.242   3.616   2.686 -0.2227  0.1304  0.2411
 4373TIP3    H134534   4.286   3.533   2.707 -1.0040 -0.2236  0.5002
 4373TIP3    H234535   4.250   3.624   2.591 -1.6001 -1.0945 -0.0022
 4374TIP3   OH234536   5.821   3.956   4.133  0.0474  0.1133  0.2810
 4374TIP3    H134537   5.761   3.901   4.183 -0.0434  0.2571  0.3313
 4374TIP3    H234538   5.764   4.007   4.075  0.1842 -0.4089 -0.3254
 4375TIP3   OH234539   3.187   2.950   0.515  0.8592 -0.7297 -0.1296
 4375TIP3    H134540   3.155   3.024   0.566 -0.4455 -1.6017  0.3907
 4375TIP3    H234541   3.179   2.875   0.574  0.1946 -1.6119 -1.2815
 4376TIP3   OH234542   6.582   1.110  15.834  0.3364  0.6754 -0.1072
 4376TIP3    H134543   6.539   1.172  15.775  0.3090  2.0278  1.2401
 4376TIP3    H234544   6.512   1.081  15.893  0.3158 -0.8038 -0.8194
 4377TIP3   OH234545   2.295   0.059   3.048 -0.1894 -0.0164  0.1364
 4377TIP3    H134546   2.295   0.154   3.036 -1.1457 -0.2261 -1.8793
 4377TIP3    H234547   2.350   0.026   2.977 -1.2603 -1.0504 -0.2413
 4378TIP3   OH234548   3.664   4.213  13.542  0.4561  0.1183 -0.0784
 4378TIP3    H134549   3.672   4.134  13.595 -0.1558  0.6186  0.7815
 4378TIP3    H234550   3.653   4.180  13.452  2.1327 -0.7238 -0.0226
 4379TIP3   OH234551   3.016   4.264  13.338 -0.0838 -0.3934  0.3874
 4379TIP3    H134552   2.987   4.186  13.385 -0.1288 -0.1542  0.7648
 4379TIP3    H234553   3.109   4.247  13.319 -0.2775 -0.8377 -0.1572
 4380TIP3   OH234554   4.299   2.289   2.196 -0.5982 -0.0827 -0.1062
 4380TIP3    H134555   4.211   2.269   2.230  0.1112  0.7474  2.3656
 4380TIP3    H234556   4.298   2.383   2.180 -0.4515 -0.2347 -1.1164
 4381TIP3   OH234557   3.640   0.735  12.491  0.0972 -0.3207  0.8105
 4381TIP3    H134558   3.618   0.828  12.488  0.3808 -0.2831 -0.6543
 4381TIP3    H234559   3.555   0.690  12.497  0.0047  0.0359  2.9118
 4382TIP3   OH234560   1.301   2.243   5.397  0.0341  0.1416  0.8328
 4382TIP3    H134561   1.251   2.223   5.476 -0.2103  0.5837  0.7907
 4382TIP3    H234562   1.235   2.261   5.330  0.1894 -1.8556  0.0684
 4383TIP3   OH234563   3.443   5.879   2.854 -0.2590  0.4431  0.3239
 4383TIP3    H134564   3.428   5.970   2.880  0.6076  0.2219  1.6687
 4383TIP3    H234565   3.425   5.828   2.933 -1.5882 -0.6608 -0.6376
 4384TIP3   OH234566   1.708   4.231   4.977 -0.2977 -0.4026 -0.4638
 4384TIP3    H134567   1.648   4.285   4.926  1.2754  0.8676 -1.0874
 4384TIP3    H234568   1.758   4.294   5.029  0.4208 -1.4080  0.1004
 4385TIP3   OH234569   5.412   4.979  12.652 -0.3083  0.1877 -0.2956
 4385TIP3    H134570   5.396   4.886  12.637 -0.3839  0.0945  0.3349
 4385TIP3    H234571   5.495   4.997  12.609  0.6391 -0.5918  1.1350
 4386TIP3   OH234572   0.049   3.719   2.053  0.1951 -0.1424 -0.1520
 4386TIP3    H134573   0.091   3.670   1.982 -0.5185  0.2535 -0.8672
 4386TIP3    H234574   0.120   3.769   2.092  0.4496  0.3953 -1.2434
 4387TIP3   OH234575   5.722   2.805  15.234  0.4358  0.4271  0.2501
 4387TIP3    H134576   5.687   2.876  15.179  1.1741  0.0718 -0.6897
 4387TIP3    H234577   5.763   2.850  15.308 -0.5605  0.9070  0.5346
 4388TIP3   OH234578   1.395   4.744   1.420 -0.5336  0.0030 -0.0569
 4388TIP3    H134579   1.442   4.725   1.501  2.2020  1.4655 -1.1889
 4388TIP3    H234580   1.360   4.832   1.434 -0.9400 -0.1479 -0.1106
 4389TIP3   OH234581   4.607   2.355  11.915 -0.3806  0.4380  0.0679
 4389TIP3    H134582   4.570   2.322  11.997 -1.2726  0.4392 -0.3270
 4389TIP3    H234583   4.533   2.356  11.854  0.5736 -1.1259 -1.2185
 4390TIP3   OH234584   1.871   0.367   6.598  0.4620 -0.2313  0.0243
 4390TIP3    H134585   1.862   0.290   6.653  1.4185 -1.9798 -2.1095
 4390TIP3    H234586   1.964   0.387   6.598  0.0352  2.1526  2.0163
 4391TIP3   OH234587   5.209   4.959  16.025  0.3470  0.2331 -0.2724
 4391TIP3    H134588   5.210   5.048  15.989 -1.5735  0.6441  0.5425
 4391TIP3    H234589   5.220   4.902  15.949 -0.8180  1.1460 -1.1621
 4392TIP3   OH234590   1.498   1.866  11.818 -0.2044 -0.4502 -0.6028
 4392TIP3    H134591   1.501   1.848  11.724  0.1588  0.5721 -0.7945
 4392TIP3    H234592   1.589   1.885  11.841 -0.3141 -0.5730 -0.0617
 4393TIP3   OH234593   1.543   3.192   0.781  0.1441 -0.5732 -0.1775
 4393TIP3    H134594   1.519   3.106   0.746 -1.2890  0.3185 -1.5448
 4393TIP3    H234595   1.522   3.253   0.710  0.4508  0.9843  1.0168
 4394TIP3   OH234596   3.836   1.114  15.808 -0.1727 -0.0019  0.0037
 4394TIP3    H134597   3.866   1.112  15.899 -1.2514 -2.2816  0.3902
 4394TIP3    H234598   3.741   1.103  15.814 -0.3280  0.4123 -1.3927
 4395TIP3   OH234599   6.415   5.187  11.353  0.4168  0.4193  0.5466
 4395TIP3    H134600   6.356   5.229  11.417 -0.3687 -0.5953  0.5189
 4395TIP3    H234601   6.358   5.166  11.279  0.8703 -0.3317  0.4033
 4396TIP3   OH234602   0.367   0.644  14.029 -0.2532  0.0499  0.3402
 4396TIP3    H134603   0.301   0.648  13.961 -1.0586 -2.4609  0.8777
 4396TIP3    H234604   0.438   0.701  13.998 -1.6557  0.9452 -1.3479
 4397TIP3   OH234605   3.280   5.591  16.174  0.2185 -0.0277 -0.6509
 4397TIP3    H134606   3.336   5.579  16.097 -0.2502  0.9554 -1.1625
 4397TIP3    H234607   3.331   5.647  16.232  0.2353 -0.0974 -0.5977
 4398TIP3   OH234608   2.423   5.757  16.699  0.3045  0.0672 -0.1480
 4398TIP3    H134609   2.366   5.698  16.650  0.8004 -1.7973  1.4006
 4398TIP3    H234610   2.365   5.799  16.762  0.2469 -0.1030 -0.0866
 4399TIP3   OH234611   3.126   4.103  15.824 -0.1143  0.1256  0.2437
 4399TIP3    H134612   3.109   4.197  15.821  2.6202  0.7178  0.5751
 4399TIP3    H234613   3.145   4.079  15.733 -0.4465 -0.0423  0.2166
 4400TIP3   OH234614   4.479   0.630  14.289  0.1540 -0.3873 -0.6701
 4400TIP3    H134615   4.463   0.577  14.210  1.1412 -1.3845 -0.2227
 4400TIP3    H234616   4.550   0.689  14.264  0.7071 -0.9406 -0.4440
 4401TIP3   OH234617   3.117   5.886  15.694  0.6091  0.1870 -0.4936
 4401TIP3    H134618   3.026   5.891  15.726  0.5252 -0.2950 -0.6417
 4401TIP3    H234619   3.170   5.918  15.766  0.1689  3.1599 -1.3414
 4402TIP3   OH234620   4.944   6.568   6.101 -0.0125  0.6496 -0.0287
 4402TIP3    H134621   4.941   6.582   6.006  1.5365  1.3324 -0.0098
 4402TIP3    H234622   4.986   6.482   6.110 -2.0009 -0.3728  0.0347
 4403TIP3   OH234623   2.569   3.922   0.982 -0.6307 -0.2967 -0.2093
 4403TIP3    H134624   2.572   3.843   1.035 -1.8432  0.0038  0.3493
 4403TIP3    H234625   2.508   3.902   0.912 -0.0723 -0.2348 -0.7162
 4404TIP3   OH234626   4.855   4.904  13.743 -0.1195 -0.1993 -0.2325
 4404TIP3    H134627   4.944   4.919  13.774 -0.5080  2.0249 -0.0266
 4404TIP3    H234628   4.843   4.969  13.673 -1.5031 -0.5823 -0.3748
 4405TIP3   OH234629   1.162   1.097  14.188  0.3397  0.3343 -0.7363
 4405TIP3    H134630   1.150   1.169  14.250  0.0193  0.6510 -1.1568
 4405TIP3    H234631   1.257   1.088  14.180  0.3896 -0.1963  0.3466
 4406TIP3   OH234632   6.751   2.151   4.598  0.3776  0.2461  0.0471
 4406TIP3    H134633   6.823   2.195   4.553 -1.6251  2.5063 -1.1913
 4406TIP3    H234634   6.681   2.147   4.532 -1.8520  1.4850  2.1809
 4407TIP3   OH234635   2.965   2.295  14.174  0.1759  0.6179  0.0158
 4407TIP3    H134636   3.046   2.313  14.127  1.2378 -1.8023  0.7604
 4407TIP3    H234637   2.993   2.274  14.263 -1.4762  1.5385  0.8144
 4408TIP3   OH234638   0.229   6.124   3.578  0.5798  0.8994 -0.0768
 4408TIP3    H134639   0.178   6.150   3.655 -0.8286 -0.7744 -0.4059
 4408TIP3    H234640   0.185   6.164   3.504 -0.1833 -0.3671 -0.3393
 4409TIP3   OH234641   0.033   3.686   6.684 -0.1538  0.1572 -0.5495
 4409TIP3    H134642   0.021   3.602   6.641  1.4236 -1.0330  1.1723
 4409TIP3    H234643  -0.031   3.743   6.643 -1.1763 -1.8300 -1.8884
 4410TIP3   OH234644   2.230   2.111  15.290 -0.2471  0.1394 -0.8683
 4410TIP3    H134645   2.174   2.036  15.306 -0.7081  0.9280  1.6179
 4410TIP3    H234646   2.178   2.168  15.234 -0.8499 -0.3300 -0.7977
 4411TIP3   OH234647   4.115   3.663  15.297 -0.3426 -0.1519 -0.0019
 4411TIP3    H134648   4.173   3.587  15.292 -0.4193 -0.2378  0.3926
 4411TIP3    H234649   4.140   3.717  15.221  0.8779  0.2402  0.6440
 4412TIP3   OH234650   3.529   3.572  13.641 -0.4975  0.3368 -0.1757
 4412TIP3    H134651   3.499   3.517  13.569  0.1631 -2.0393  1.2540
 4412TIP3    H234652   3.624   3.571  13.634 -0.3742 -0.7464  1.2465
 4413TIP3   OH234653   3.169   0.023   3.164  0.5705  0.1372  0.1512
 4413TIP3    H134654   3.119  -0.005   3.087 -0.5830  1.8480  0.2201
 4413TIP3    H234655   3.194   0.113   3.145 -1.0986  1.1745  2.3715
 4414TIP3   OH234656   0.570   0.676   4.542 -0.2911  0.2327 -0.1611
 4414TIP3    H134657   0.541   0.590   4.514  0.4811 -0.2405  0.4519
 4414TIP3    H234658   0.657   0.661   4.581  0.8779  1.5899 -2.0440
 4415TIP3   OH234659   5.384   2.635   1.938  0.3146 -0.7349 -0.0937
 4415TIP3    H134660   5.305   2.659   1.986  0.9094  1.6918 -0.1694
 4415TIP3    H234661   5.358   2.637   1.846  0.0063 -1.9929 -0.0547
 4416TIP3   OH234662   1.289   0.410   2.498 -0.4434  0.1048  0.3250
 4416TIP3    H134663   1.254   0.472   2.434 -1.0560 -0.4921  0.0692
 4416TIP3    H234664   1.382   0.432   2.504 -0.7452  1.4003  0.6480
 4417TIP3   OH234665   1.776   6.665  13.083  0.5018 -0.3204 -0.1436
 4417TIP3    H134666   1.794   6.577  13.118  2.4616 -0.3632 -1.0821
 4417TIP3    H234667   1.815   6.724  13.147  0.1991 -0.1929 -0.0782
 4418TIP3   OH234668   0.084   6.706  11.583  0.0572 -0.1661 -0.3857
 4418TIP3    H134669   0.028   6.760  11.639 -0.0731  1.1991 -1.7567
 4418TIP3    H234670   0.047   6.618  11.590 -1.6420  0.4977 -0.4348
 4419TIP3   OH234671   1.069   3.486  10.679  0.3403 -0.0259  0.2993
 4419TIP3    H134672   1.001   3.435  10.724  0.3526 -0.1496  0.1803
 4419TIP3    H234673   1.062   3.459  10.587 -0.8241  1.4695 -0.1012
 4420TIP3   OH234674   6.319   5.992   1.690 -0.5658  0.5218  0.0603
 4420TIP3    H134675   6.350   6.078   1.663  1.2193 -0.5261 -1.3699
 4420TIP3    H234676   6.321   5.995   1.786 -1.1369  2.2511  0.0462
 4421TIP3   OH234677   0.493   0.830   6.464 -0.5484  0.3940  0.5465
 4421TIP3    H134678   0.416   0.782   6.494 -0.6448  0.0986 -0.1745
 4421TIP3    H234679   0.565   0.794   6.517 -0.5781 -0.7147 -0.1434
 4422TIP3   OH234680   1.159   5.983   3.176 -0.4736  0.2091 -0.3608
 4422TIP3    H134681   1.208   6.030   3.108  0.7837 -0.0898  0.3042
 4422TIP3    H234682   1.075   5.962   3.135  1.3553 -2.7941 -3.0536
 4423TIP3   OH234683   0.756   5.197  11.303  0.0099 -0.2546 -0.2860
 4423TIP3    H134684   0.760   5.271  11.243  0.2128  0.0814  0.1398
 4423TIP3    H234685   0.668   5.202  11.342 -0.0953 -0.4304 -0.4980
 4424TIP3   OH234686   5.456   1.025   1.635 -0.2891  0.1036 -0.0177
 4424TIP3    H134687   5.550   1.009   1.626 -0.0846  0.4516  1.3354
 4424TIP3    H234688   5.417   0.979   1.561  0.9219 -0.3051 -0.4235
 4425TIP3   OH234689   5.399   2.066   2.829  0.7695  0.2662 -0.2768
 4425TIP3    H134690   5.374   2.082   2.738  1.3749  1.1309 -0.3039
 4425TIP3    H234691   5.354   2.135   2.878  2.0657  1.0751 -0.1799
 4426TIP3   OH234692   4.672   1.512   4.670 -0.4048 -0.4444  0.0229
 4426TIP3    H134693   4.620   1.531   4.592  0.3099 -0.0288 -0.3663
 4426TIP3    H234694   4.618   1.543   4.743 -0.4201  0.6411 -0.4225
 4427TIP3   OH234695   5.408   1.591   5.644  0.1624 -0.4340 -0.0500
 4427TIP3    H134696   5.407   1.495   5.643  1.2362 -0.6065  3.3426
 4427TIP3    H234697   5.333   1.616   5.698  0.7480  0.5293  0.3563
 4428TIP3   OH234698   1.713   4.636  13.588  0.2946 -0.4499  0.1283
 4428TIP3    H134699   1.763   4.588  13.522  1.2567 -0.1975  0.6642
 4428TIP3    H234700   1.621   4.617  13.566  0.5809 -0.2023 -1.4029
 4429TIP3   OH234701   2.417   3.643  12.306  0.3185  0.4159 -0.4245
 4429TIP3    H134702   2.463   3.672  12.227  1.5777 -0.6003 -0.1156
 4429TIP3    H234703   2.401   3.549  12.292  0.7627  0.1668  0.5878
 4430TIP3   OH234704   0.429   0.218  15.657  0.0724  0.1668 -0.3005
 4430TIP3    H134705   0.375   0.293  15.684 -1.5160 -0.6498 -1.0451
 4430TIP3    H234706   0.371   0.142  15.666  1.0926 -0.7549 -1.1873
 4431TIP3   OH234707   6.530   5.852  12.607  0.0853  0.8043 -0.0072
 4431TIP3    H134708   6.465   5.843  12.537 -1.3867 -0.9408  1.4804
 4431TIP3    H234709   6.613   5.834  12.564 -0.5596  1.5356 -1.6579
 4432TIP3   OH234710   1.158   4.675   2.074 -0.0211  0.0779 -0.1151
 4432TIP3    H134711   1.151   4.590   2.030 -0.3146 -0.9273  1.7411
 4432TIP3    H234712   1.073   4.686   2.117  0.2904  0.9373  0.2984
 4433TIP3   OH234713   2.806   3.961  16.125  0.1361  0.3526 -0.0570
 4433TIP3    H134714   2.893   3.962  16.086  0.5180 -0.8197  0.7307
 4433TIP3    H234715   2.788   4.053  16.145  1.2454  0.5913 -0.0986
 4434TIP3   OH234716   5.194   1.545   3.192 -0.3833  0.1002 -0.3456
 4434TIP3    H134717   5.182   1.622   3.246  2.0812 -0.7586  1.6336
 4434TIP3    H234718   5.287   1.546   3.168 -0.3365 -2.0873 -0.4873
 4435TIP3   OH234719   5.977   0.506   4.005 -0.3946 -0.4671  0.2202
 4435TIP3    H134720   5.995   0.599   3.995 -0.5732 -0.3271  1.0937
 4435TIP3    H234721   6.033   0.463   3.941  1.2891  0.1023  1.2337
 4436TIP3   OH234722   6.598   3.128  17.032  0.3583 -0.2804  0.2515
 4436TIP3    H134723   6.624   3.162  17.118  0.3063 -2.0189  0.9888
 4436TIP3    H234724   6.594   3.033  17.044  0.2414 -0.5440 -1.6555
 4437TIP3   OH234725   2.009   2.978  13.416  0.0573 -0.3067  0.3336
 4437TIP3    H134726   1.951   3.033  13.469  1.5621  1.7746 -0.0747
 4437TIP3    H234727   2.064   3.039  13.368  0.5334 -2.1576 -1.6724
 4438TIP3   OH234728   3.684   5.666  17.265 -0.0695  0.5637 -0.1090
 4438TIP3    H134729   3.753   5.721  17.228 -1.3205  2.4676  0.2873
 4438TIP3    H234730   3.668   5.702  17.352 -0.6511 -0.7174  0.3454
 4439TIP3   OH234731   1.663   3.772   5.226  0.2576 -0.6556 -0.1606
 4439TIP3    H134732   1.754   3.785   5.251  0.1809 -0.1610 -0.1242
 4439TIP3    H234733   1.625   3.859   5.230  0.6589 -0.1827 -3.6770
 4440TIP3   OH234734   4.195   2.680   3.951 -0.4610 -0.1962 -0.1326
 4440TIP3    H134735   4.160   2.769   3.951 -0.6733 -0.2439 -1.9016
 4440TIP3    H234736   4.279   2.687   3.907 -1.0453 -1.0489 -1.4567
 4441TIP3   OH234737   5.514   2.249   1.222  0.4292 -0.6876 -0.6775
 4441TIP3    H134738   5.432   2.241   1.271 -0.2160 -1.4686 -1.8636
 4441TIP3    H234739   5.488   2.273   1.134  1.4237 -1.6569 -1.2635
 4442TIP3   OH234740   4.128   3.348  10.444 -0.3774 -0.3687  0.3049
 4442TIP3    H134741   4.139   3.420  10.507 -1.5630  0.3963 -0.3162
 4442TIP3    H234742   4.103   3.273  10.497 -1.0260  0.1793  0.7916
 4443TIP3   OH234743   1.067   0.921   3.320  0.0196 -0.1788  0.1305
 4443TIP3    H134744   0.975   0.897   3.327  0.4143 -2.1438 -0.5934
 4443TIP3    H234745   1.067   1.004   3.272 -1.3506 -0.4901 -0.4605
 4444TIP3   OH234746   1.039   3.637  12.443  0.4038  0.3214 -0.1689
 4444TIP3    H134747   1.078   3.696  12.507  0.5753 -0.1104  0.1309
 4444TIP3    H234748   0.973   3.690  12.398  0.9252  0.8946 -0.2775
 4445TIP3   OH234749   1.438   5.830  11.842  0.2824  0.4047 -0.5316
 4445TIP3    H134750   1.460   5.780  11.921 -1.5461 -0.6250 -0.5986
 4445TIP3    H234751   1.412   5.916  11.874 -2.4319 -0.6225  0.2934
 4446TIP3   OH234752   5.931   4.738   3.368 -0.4168 -0.4110 -0.2024
 4446TIP3    H134753   5.928   4.697   3.454 -0.8460 -0.3565 -0.1896
 4446TIP3    H234754   5.853   4.794   3.365  0.7841  1.3928  0.2701
 4447TIP3   OH234755   0.250   1.507  16.033  0.4985  0.4287  0.2107
 4447TIP3    H134756   0.330   1.462  16.007  0.2328  0.4247 -0.6346
 4447TIP3    H234757   0.206   1.528  15.950 -0.7149 -0.1993  0.6690
 4448TIP3   OH234758   2.849   4.472  16.705 -0.2466 -0.7399  0.2752
 4448TIP3    H134759   2.886   4.482  16.617  2.4079  2.0108  1.5438
 4448TIP3    H234760   2.756   4.493  16.694 -0.3935 -2.1574 -2.0752
 4449TIP3   OH234761   5.671   3.226   0.236  0.1026 -0.1914 -0.4994
 4449TIP3    H134762   5.680   3.131   0.232  0.8442 -0.2412  1.4621
 4449TIP3    H234763   5.653   3.245   0.328  0.0224  1.5816 -0.8399
 4450TIP3   OH234764   5.009   2.114  16.608 -0.2449  0.1911 -0.3842
 4450TIP3    H134765   5.101   2.124  16.582 -0.2926 -0.3410 -0.7835
 4450TIP3    H234766   4.982   2.202  16.635  0.5514  0.2386  0.3016
 4451TIP3   OH234767   1.525   3.335  17.015 -0.2760  0.2144 -0.1371
 4451TIP3    H134768   1.494   3.246  17.031 -1.7464  0.7362  0.1018
 4451TIP3    H234769   1.467   3.368  16.946 -0.0184  1.1270  0.0676
 4452TIP3   OH234770   0.210   6.591   1.847  0.6701 -0.3381 -0.1627
 4452TIP3    H134771   0.281   6.639   1.891  0.4372 -0.6071  0.5171
 4452TIP3    H234772   0.180   6.651   1.778  2.0467 -0.5216 -0.9506
 4453TIP3   OH234773   3.491   2.506   0.618  0.3571 -0.2405  0.1252
 4453TIP3    H134774   3.494   2.453   0.538  0.8056  1.6012 -1.1282
 4453TIP3    H234775   3.577   2.494   0.658  0.8557  0.3778 -0.7370
 4454TIP3   OH234776   3.688   3.226   4.702 -0.0167 -0.2299 -0.4062
 4454TIP3    H134777   3.749   3.288   4.742  0.3582 -1.0650  0.3461
 4454TIP3    H234778   3.623   3.282   4.658 -0.0449  0.7083  0.7623
 4455TIP3   OH234779   0.332   3.764  14.531 -0.3420 -0.3625  0.0132
 4455TIP3    H134780   0.258   3.815  14.497 -0.9854 -1.1319  0.2445
 4455TIP3    H234781   0.408   3.800  14.485 -0.7815  0.7684  0.1177
 4456TIP3   OH234782   2.057   5.589  16.028 -0.0439 -0.3014  0.3928
 4456TIP3    H134783   1.964   5.567  16.029  0.0886 -0.8758  0.9763
 4456TIP3    H234784   2.101   5.507  16.051  0.6688 -0.3140 -0.9070
 4457TIP3   OH234785   6.718   5.721   6.610 -0.3709 -0.1651  0.0913
 4457TIP3    H134786   6.722   5.636   6.566 -1.3673 -0.0920 -0.1486
 4457TIP3    H234787   6.652   5.771   6.562 -0.3429  0.4756  0.6972
 4458TIP3   OH234788   0.268   2.670  14.064  0.0041 -0.2380  0.0715
 4458TIP3    H134789   0.250   2.697  13.974 -0.1297 -1.8417 -0.4138
 4458TIP3    H234790   0.363   2.665  14.069  0.3537  3.7288  1.2769
 4459TIP3   OH234791   1.975   4.051  12.582  0.0175 -0.2115  0.5700
 4459TIP3    H134792   1.957   4.041  12.675 -0.7721 -0.8587  0.3660
 4459TIP3    H234793   1.920   4.125  12.555  1.9199  1.4428  1.0387
 4460TIP3   OH234794   0.886   6.581  13.394  0.1624 -0.2822  0.3203
 4460TIP3    H134795   0.895   6.590  13.489  0.2718 -0.6129  0.3429
 4460TIP3    H234796   0.976   6.582  13.361  0.0913  0.6846  0.1389
 4461TIP3   OH234797   0.413   0.368   6.338 -0.1983  0.0740  0.4110
 4461TIP3    H134798   0.453   0.331   6.416  1.0387 -0.3938 -0.4103
 4461TIP3    H234799   0.359   0.296   6.302  1.9711 -0.9548 -1.0215
 4462TIP3   OH234800   1.273   5.827   3.837 -0.5145  0.2040  0.2039
 4462TIP3    H134801   1.179   5.825   3.817 -0.4393  0.2977 -0.1685
 4462TIP3    H234802   1.314   5.781   3.763 -0.0929  1.8996 -0.6562
 4463TIP3   OH234803   3.060   5.306  13.959  0.2802  1.3829  0.1429
 4463TIP3    H134804   2.988   5.252  13.926  0.5591  1.7024 -1.0473
 4463TIP3    H234805   3.077   5.272  14.047  1.2003 -1.2839 -0.9442
 4464TIP3   OH234806   1.499   1.763  16.274 -0.4350  0.4182 -0.4135
 4464TIP3    H134807   1.427   1.752  16.212 -1.2052 -1.6540  0.7442
 4464TIP3    H234808   1.458   1.755  16.360  0.8671  1.4890  0.3324
 4465TIP3   OH234809   1.149   6.426   5.176  0.2427 -0.7638 -0.7165
 4465TIP3    H134810   1.229   6.388   5.212  0.2335 -0.7319 -0.6629
 4465TIP3    H234811   1.079   6.379   5.219  0.2032  0.3967  0.5351
 4466TIP3   OH234812   0.566   0.492  12.161  0.2325 -0.1092 -0.3336
 4466TIP3    H134813   0.486   0.539  12.184  0.6133  1.0288 -1.2722
 4466TIP3    H234814   0.573   0.424  12.228 -2.2333 -1.1035 -0.9574
 4467TIP3   OH234815   1.676   6.228  13.919 -0.6067  0.1865  0.1015
 4467TIP3    H134816   1.614   6.234  13.847 -1.2545  1.7739  0.7550
 4467TIP3    H234817   1.659   6.142  13.959 -0.6640 -0.4324 -1.2169
 4468TIP3   OH234818   5.340   5.467   3.204  0.0869 -0.5759  0.1149
 4468TIP3    H134819   5.292   5.535   3.250 -1.2778 -1.5298  0.1510
 4468TIP3    H234820   5.367   5.405   3.272 -1.3987 -1.6638 -0.2200
 4469TIP3   OH234821   6.493   3.085   3.858  0.1477 -0.0577  0.2531
 4469TIP3    H134822   6.458   3.167   3.893 -0.1516 -0.0899  0.0394
 4469TIP3    H234823   6.585   3.085   3.881 -0.1531 -0.3295  1.5013
 4470TIP3   OH234824   1.845   4.834   4.716  0.7191  0.1654 -0.0500
 4470TIP3    H134825   1.894   4.853   4.636 -0.9949  0.3710 -1.1023
 4470TIP3    H234826   1.816   4.744   4.705  1.6149 -0.2743  1.0011
 4471TIP3   OH234827   1.486   4.712  11.070  0.1290  0.0497  0.4283
 4471TIP3    H134828   1.512   4.658  10.995 -0.3060 -0.5128  0.6779
 4471TIP3    H234829   1.569   4.741  11.108  0.3825  1.7804 -1.2618
 4472TIP3   OH234830   4.679   0.782  13.004  0.3356  0.2617  0.4211
 4472TIP3    H134831   4.672   0.760  12.912  0.2227  0.1872  0.4472
 4472TIP3    H234832   4.592   0.812  13.029  0.3418  0.1966  0.5249
 4473TIP3   OH234833   0.194   0.153  13.165  0.5160 -0.4279  0.1889
 4473TIP3    H134834   0.172   0.243  13.189  0.8217 -0.8162  2.1206
 4473TIP3    H234835   0.150   0.139  13.081  1.7889  2.0054 -0.9691
 4474TIP3   OH234836   3.057   3.034   5.135  0.2806  0.2196 -0.5701
 4474TIP3    H134837   3.068   2.959   5.076  1.1008  0.3788 -0.6393
 4474TIP3    H234838   3.146   3.069   5.145  0.4905 -0.8887  2.2029
 4475TIP3   OH234839   3.089   6.320  16.706 -0.3770  0.1751 -0.1361
 4475TIP3    H134840   3.174   6.337  16.746 -0.3098 -0.1203 -0.1511
 4475TIP3    H234841   3.050   6.407  16.694  0.0664  0.3339 -0.4434
 4476TIP3   OH234842   1.798   4.860  16.223 -0.5766 -0.1781 -0.2773
 4476TIP3    H134843   1.883   4.899  16.201  0.0346 -1.4717 -0.2718
 4476TIP3    H234844   1.808   4.831  16.314 -1.3088  0.3822 -0.0057
 4477TIP3   OH234845   1.021   1.565  11.177 -0.1335  0.0945  0.1070
 4477TIP3    H134846   1.114   1.556  11.197 -0.4490  0.8922  2.1902
 4477TIP3    H234847   0.984   1.478  11.191  0.4005 -0.4082 -1.4796
 4478TIP3   OH234848   3.132   0.315   1.091  0.1662  0.1033 -0.5688
 4478TIP3    H134849   3.200   0.342   1.029  0.4214  1.0435  0.0969
 4478TIP3    H234850   3.061   0.377   1.077 -1.0501 -1.5105 -2.0096
 4479TIP3   OH234851   2.022   3.926   4.817 -0.3960  0.5516  0.2270
 4479TIP3    H134852   2.019   3.855   4.881  0.0979  1.2661  1.0679
 4479TIP3    H234853   1.953   3.986   4.844 -0.5251  0.6043 -0.2153
 4480TIP3   OH234854   1.415   6.058  11.309  0.1580  0.3515  0.8069
 4480TIP3    H134855   1.344   6.121  11.321 -0.2170 -0.0289  0.6173
 4480TIP3    H234856   1.494   6.105  11.337 -0.0802  0.9821  0.4602
 4481TIP3   OH234857   0.650   1.848  12.349  0.6265 -0.8165  0.4557
 4481TIP3    H134858   0.612   1.839  12.437 -1.4364  0.9241 -0.1616
 4481TIP3    H234859   0.666   1.942  12.340  2.9698 -1.2253 -0.2489
 4482TIP3   OH234860   5.707   0.059  14.360 -0.5951 -0.5454  0.4031
 4482TIP3    H134861   5.756   0.008  14.295 -0.8702 -0.6473  0.2714
 4482TIP3    H234862   5.773   0.091  14.421 -0.2506  0.0639 -0.2758
 4483TIP3   OH234863   5.481   3.792  15.303 -0.9200  0.2969 -0.6807
 4483TIP3    H134864   5.552   3.815  15.363 -0.0951  0.8559 -1.8429
 4483TIP3    H234865   5.439   3.716  15.344 -0.6941  0.9667  0.8374
 4484TIP3   OH234866   0.150   6.661  11.179  0.2192  0.0301  0.2828
 4484TIP3    H134867   0.143   6.719  11.103 -0.4467 -0.2679  0.1140
 4484TIP3    H234868   0.202   6.711  11.242  0.4650  0.4262 -0.2258
 4485TIP3   OH234869   2.322   0.223  16.513 -0.3892  0.4920 -0.0205
 4485TIP3    H134870   2.317   0.132  16.542 -0.0084 -0.0633 -1.5657
 4485TIP3    H234871   2.289   0.221  16.423  0.0847  1.7911 -0.2496
 4486TIP3   OH234872   1.453   0.145  14.316 -0.0308 -0.2176 -0.0927
 4486TIP3    H134873   1.367   0.128  14.353  0.2871 -1.7867 -0.0188
 4486TIP3    H234874   1.493   0.209  14.375 -1.4122  1.1379 -0.5592
 4487TIP3   OH234875   3.306   2.221  13.469 -0.4909 -0.8965 -0.0082
 4487TIP3    H134876   3.318   2.222  13.564  2.9418 -0.5479 -0.3242
 4487TIP3    H234877   3.278   2.311  13.447  0.8849 -0.3307  0.4900
 4488TIP3   OH234878   2.647   3.459  14.490 -0.4980  0.3041 -0.1129
 4488TIP3    H134879   2.615   3.526  14.429 -0.0581  1.0776  0.4877
 4488TIP3    H234880   2.700   3.401  14.435 -0.4894  0.7232 -0.5619
 4489TIP3   OH234881   1.554   5.394   6.102  0.5548  0.3124 -0.1538
 4489TIP3    H134882   1.491   5.367   6.170 -0.0188  1.3710 -0.2491
 4489TIP3    H234883   1.564   5.488   6.114  0.5509  0.4993 -1.4557
 4490TIP3   OH234884   6.752   3.853   5.326 -0.1165 -0.2601  0.0060
 4490TIP3    H134885   6.818   3.851   5.257  1.4086 -0.1261  1.3758
 4490TIP3    H234886   6.767   3.772   5.375 -1.3203 -0.4693  0.0583
 4491TIP3   OH234887   3.770   2.226   3.344 -0.4299  0.1436  0.3400
 4491TIP3    H134888   3.692   2.275   3.370  0.4704  1.8023  0.0603
 4491TIP3    H234889   3.839   2.258   3.401  0.7560  1.1478 -1.5494
 4492TIP3   OH234890   5.558   1.104   5.511 -0.0817  0.0580 -0.0693
 4492TIP3    H134891   5.501   1.155   5.453  0.0540  0.5034  0.1863
 4492TIP3    H234892   5.642   1.149   5.508 -0.8243  1.8527  2.7353
 4493TIP3   OH234893   4.024   4.483   2.892  0.6872 -0.1530  0.4176
 4493TIP3    H134894   4.087   4.551   2.867 -1.6077  1.9060 -0.0526
 4493TIP3    H234895   4.034   4.475   2.987  2.4225 -0.7518  0.2313
 4494TIP3   OH234896   4.169   2.821  16.217 -0.1258  0.5450 -0.0788
 4494TIP3    H134897   4.130   2.852  16.298 -0.5251  0.6684 -0.3156
 4494TIP3    H234898   4.095   2.795  16.162  0.0867  1.1136 -0.6636
 4495TIP3   OH234899   2.008   5.359  13.826 -0.1650  0.0885 -0.1985
 4495TIP3    H134900   1.941   5.310  13.875 -0.9246  1.2946  0.0060
 4495TIP3    H234901   2.082   5.365  13.887 -0.4127 -0.0213  0.1195
 4496TIP3   OH234902   1.969   2.784  11.234 -0.3071  0.0226  0.1731
 4496TIP3    H134903   2.045   2.772  11.291 -0.4600 -0.3978  0.2938
 4496TIP3    H234904   1.991   2.736  11.154 -1.5572 -2.5450  1.2384
 4497TIP3   OH234905   1.369   0.305  15.386 -0.2368  0.0371  0.4087
 4497TIP3    H134906   1.413   0.362  15.323 -0.5394  1.7028  1.6189
 4497TIP3    H234907   1.290   0.277  15.342 -0.0535  0.5205 -0.2465
 4498TIP3   OH234908   5.235   5.995   6.041 -0.1603  0.0205 -0.0076
 4498TIP3    H134909   5.252   5.931   6.111 -0.6320  0.5891  0.6405
 4498TIP3    H234910   5.249   6.080   6.083 -1.9233  0.4262 -0.1867
 4499TIP3   OH234911   5.663   0.337   0.946  0.5014  0.3507  0.1777
 4499TIP3    H134912   5.692   0.424   0.976 -1.0358  0.7390  0.6180
 4499TIP3    H234913   5.649   0.288   1.027  2.6237 -0.7816 -0.0816
 4500TIP3   OH234914   0.671   2.128  15.173  0.5852 -0.0159  0.1082
 4500TIP3    H134915   0.670   2.203  15.232  2.2140  1.2145 -1.3273
 4500TIP3    H234916   0.619   2.155  15.098  1.8048  0.0064 -0.7543
 4501TIP3   OH234917   2.783   3.942   4.216 -0.1021 -0.0249  0.6656
 4501TIP3    H134918   2.838   4.019   4.228 -0.2283 -0.0109  1.1637
 4501TIP3    H234919   2.765   3.940   4.122  0.2321  0.3223  0.5915
 4502TIP3   OH234920   3.382   5.269   2.632  0.2567 -0.4034  0.7349
 4502TIP3    H134921   3.332   5.350   2.642  0.5634 -0.0478 -0.4772
 4502TIP3    H234922   3.338   5.207   2.690 -0.5218  0.3791  1.0135
 4503TIP3   OH234923   2.473   2.376  13.167 -1.5340 -0.1966 -0.2838
 4503TIP3    H134924   2.401   2.402  13.224 -0.8697  1.4201 -0.1027
 4503TIP3    H234925   2.479   2.448  13.104  0.8846  0.5379  0.6681
 4504TIP3   OH234926   5.339   3.645   2.494  0.1120 -0.1232 -0.2242
 4504TIP3    H134927   5.357   3.724   2.443  0.0760 -0.5086 -0.8413
 4504TIP3    H234928   5.353   3.672   2.585  3.1229 -0.1888 -0.5731
 4505TIP3   OH234929   0.694   2.543   4.856 -0.6414 -0.9952  0.0881
 4505TIP3    H134930   0.600   2.539   4.839 -0.3749 -0.5675 -1.6093
 4505TIP3    H234931   0.729   2.462   4.821 -0.2726 -0.8086  0.0203
 4506TIP3   OH234932   5.891   1.834  13.176  0.1172  0.1269  0.1711
 4506TIP3    H134933   5.796   1.823  13.179 -0.0267  0.4421 -1.9217
 4506TIP3    H234934   5.919   1.777  13.105  1.2816  1.3918 -0.4175
 4507TIP3   OH234935   6.153   4.600   5.298 -0.1628  0.3895 -0.0032
 4507TIP3    H134936   6.124   4.598   5.207  1.0611  0.2568 -0.4112
 4507TIP3    H234937   6.237   4.645   5.295 -0.1401  0.4407  1.0762
 4508TIP3   OH234938   0.049   0.066   1.921 -0.4407 -0.0169 -0.4542
 4508TIP3    H134939   0.013   0.067   2.009  0.4889  2.6101 -0.0106
 4508TIP3    H234940   0.143   0.077   1.933 -0.5001  2.9549 -1.7053
 4509TIP3   OH234941   2.579   1.757  17.286  0.0389  0.7739  0.1543
 4509TIP3    H134942   2.489   1.739  17.258 -0.3981  1.2143  1.2244
 4509TIP3    H234943   2.620   1.796  17.209  0.0386 -1.5664 -1.1350
 4510TIP3   OH234944   3.302   3.077  12.021 -0.1719 -0.2616  0.4571
 4510TIP3    H134945   3.210   3.104  12.016  0.2316  1.0257 -0.8218
 4510TIP3    H234946   3.339   3.134  12.089 -0.3220 -0.8102  1.0020
 4511TIP3   OH234947   3.098   6.351   2.776 -0.1021  0.0107  0.1790
 4511TIP3    H134948   3.076   6.298   2.700  0.3371  1.0993 -0.7477
 4511TIP3    H234949   3.147   6.293   2.833 -0.7187 -0.9182 -0.2145
 4512TIP3   OH234950   2.151   5.692   6.225 -0.4555 -0.3516  0.2464
 4512TIP3    H134951   2.095   5.641   6.282 -1.6337 -0.4000 -0.8996
 4512TIP3    H234952   2.126   5.783   6.242 -0.9452 -0.3762 -0.3062
 4513TIP3   OH234953   3.850   4.184  12.443 -0.9181  0.2232 -0.5671
 4513TIP3    H134954   3.818   4.115  12.502  2.3584 -1.6196 -0.6521
 4513TIP3    H234955   3.911   4.235  12.496  0.0783  0.1978 -1.6356
 4514TIP3   OH234956   5.541   5.336   0.612 -0.2125  0.0542 -0.3156
 4514TIP3    H134957   5.510   5.263   0.666 -0.0141  1.3700  1.7132
 4514TIP3    H234958   5.496   5.412   0.648  1.5475  1.2927 -0.6159
 4515TIP3   OH234959   5.192   1.597  12.288  0.0116 -0.1770  0.1737
 4515TIP3    H134960   5.147   1.574  12.369 -0.9515 -1.9305 -0.8063
 4515TIP3    H234961   5.125   1.639  12.234 -1.5156 -5.0172 -2.2988
 4516TIP3   OH234962   4.514   2.989  15.539  0.1693  0.4275 -0.0416
 4516TIP3    H134963   4.457   2.959  15.469 -0.5332  3.2850 -0.8327
 4516TIP3    H234964   4.602   2.963  15.511 -0.2336  0.3683 -1.3299
 4517TIP3   OH234965   2.854   0.183   3.224  1.0853 -0.0071  0.6470
 4517TIP3    H134966   2.869   0.088   3.223  1.9145  0.1167  0.7940
 4517TIP3    H234967   2.775   0.195   3.277  0.7201 -0.6454  0.2623
 4518TIP3   OH234968   1.019   2.219  17.072  0.0586 -0.4167  0.3698
 4518TIP3    H134969   1.096   2.236  17.018 -1.9253  1.4517 -2.0831
 4518TIP3    H234970   1.045   2.249  17.159  2.0546  0.2939 -0.4022
 4519TIP3   OH234971   5.850   3.448   2.631  0.1997  0.2931  0.0455
 4519TIP3    H134972   5.789   3.374   2.640  1.7427 -1.2060 -1.2039
 4519TIP3    H234973   5.829   3.487   2.547  0.7814 -0.0611 -0.2664
 4520TIP3   OH234974   1.534   5.505   2.367 -0.3389 -0.0702 -0.0387
 4520TIP3    H134975   1.487   5.464   2.440 -1.9676  0.0710 -0.9559
 4520TIP3    H234976   1.622   5.468   2.372 -0.5768 -0.5208  1.6215
 4521TIP3   OH234977   0.703   3.320   1.697  0.4057 -0.2771 -0.6545
 4521TIP3    H134978   0.649   3.304   1.620 -0.3528 -2.4307  0.2399
 4521TIP3    H234979   0.700   3.238   1.746 -0.0673  1.3026  2.2321
 4522TIP3   OH234980   1.215   3.281   2.792  0.0833 -0.4405 -0.3870
 4522TIP3    H134981   1.284   3.336   2.828 -0.8874  0.5584  0.0196
 4522TIP3    H234982   1.242   3.263   2.702  0.4733  0.6156 -0.4916
 4523TIP3   OH234983   1.203   5.602  14.851  0.3329  0.4199 -0.3616
 4523TIP3    H134984   1.256   5.525  14.828 -0.9347 -0.6801  0.2460
 4523TIP3    H234985   1.189   5.594  14.945  0.2008  1.4216 -0.2887
 4524TIP3   OH234986   1.694   1.318  17.114  0.3435 -0.3069 -0.2116
 4524TIP3    H134987   1.668   1.342  17.203  0.4385  0.2604 -0.3318
 4524TIP3    H234988   1.641   1.376  17.057  0.2414 -0.7023 -0.5248
 4525TIP3   OH234989   6.372   3.237  10.954 -0.4346 -0.1947  0.0395
 4525TIP3    H134990   6.282   3.254  10.926  0.2990  1.2810 -1.6437
 4525TIP3    H234991   6.369   3.150  10.994 -2.8877  0.4818  1.4981
 4526TIP3   OH234992   3.686   3.345  11.586 -0.5781 -0.3361 -0.2494
 4526TIP3    H134993   3.714   3.372  11.674  0.3495 -0.1334 -0.6019
 4526TIP3    H234994   3.666   3.252  11.596  0.1873 -0.4794  0.0312
 4527TIP3   OH234995   4.374   5.318  14.400 -0.7719  0.4747 -0.0982
 4527TIP3    H134996   4.297   5.277  14.360 -0.9387 -0.4812  1.1433
 4527TIP3    H234997   4.397   5.259  14.472  0.9487  0.8989 -0.2629
 4528TIP3   OH234998   0.664   2.155  14.447  0.4940 -0.3496  0.1630
 4528TIP3    H134999   0.595   2.207  14.489  0.4079 -0.4595  0.1577
 4528TIP3    H235000   0.617   2.094  14.390  0.6462  1.0055 -1.5039
 4529TIP3   OH235001   1.614   2.655  16.646 -0.2994 -0.0295 -0.1336
 4529TIP3    H135002   1.635   2.585  16.584  0.3302  0.7361 -0.7905
 4529TIP3    H235003   1.532   2.626  16.687  0.9093 -2.0867  1.0157
 4530TIP3   OH235004   2.485   0.328   0.193 -0.0519  0.1761  0.5673
 4530TIP3    H135005   2.419   0.274   0.237  0.7691 -1.7148 -0.4068
 4530TIP3    H235006   2.562   0.271   0.187  0.7417  1.3391 -0.8604
 4531TIP3   OH235007   5.142   3.278  15.833  0.8024 -0.1401  0.2505
 4531TIP3    H135008   5.174   3.224  15.905  1.9343  0.2546  0.0493
 4531TIP3    H235009   5.193   3.251  15.757  1.5758  1.3507  0.1902
 4532TIP3   OH235010   5.961   2.232   0.429 -0.9512  0.6461  0.1222
 4532TIP3    H135011   5.904   2.175   0.378 -1.4796  0.7913  0.5422
 4532TIP3    H235012   6.050   2.210   0.401 -1.1376 -0.4981  0.4076
 4533TIP3   OH235013   3.998   1.983   0.108  0.2828 -0.4848  0.2050
 4533TIP3    H135014   4.091   1.988   0.086  0.3356  2.8501  0.6296
 4533TIP3    H235015   3.967   2.073   0.099 -3.1376 -1.6391 -0.7340
 4534TIP3   OH235016   2.588   3.629   5.587 -0.1646  0.8841 -0.1969
 4534TIP3    H135017   2.550   3.711   5.620 -0.6838  0.4584  0.2996
 4534TIP3    H235018   2.608   3.647   5.495  1.0524  2.0118  0.2542
 4535TIP3   OH235019   0.392   1.659  11.251  0.1028  0.2384  0.6759
 4535TIP3    H135020   0.315   1.606  11.230 -0.1997  0.6240  0.8090
 4535TIP3    H235021   0.387   1.734  11.191  1.1809 -0.4742 -0.3698
 4536TIP3   OH235022   1.404   4.643  16.338 -0.1121 -0.0284  0.0085
 4536TIP3    H135023   1.438   4.553  16.337  2.2324  0.7440  1.1547
 4536TIP3    H235024   1.329   4.642  16.278  0.1796 -2.6082 -0.4071
 4537TIP3   OH235025   6.567   3.318  15.878  0.3614 -0.6751 -0.5525
 4537TIP3    H135026   6.501   3.369  15.925 -0.5730 -2.6288  0.3526
 4537TIP3    H235027   6.634   3.300  15.944 -0.1492 -2.0068 -0.3579
 4538TIP3   OH235028   1.164   6.238  17.266 -0.0201  0.3073 -0.2091
 4538TIP3    H135029   1.083   6.289  17.264  0.8069  1.7262 -2.9685
 4538TIP3    H235030   1.229   6.298  17.304  0.5550  0.6902 -1.7329
 4539TIP3   OH235031   0.359   4.446   6.140  0.6496 -0.4599  0.2048
 4539TIP3    H135032   0.348   4.374   6.201  1.3624  0.6464  1.6994
 4539TIP3    H235033   0.383   4.521   6.195  0.4469  0.7957 -1.3387
 4540TIP3   OH235034   5.122   2.952   1.280 -0.3363 -0.4983 -0.5565
 4540TIP3    H135035   5.203   2.987   1.243  0.2226  0.2632  1.2744
 4540TIP3    H235036   5.151   2.888   1.345 -1.0027  1.7441  2.1363
 4541TIP3   OH235037   2.039   6.005  13.508 -0.1173  0.5159 -0.3898
 4541TIP3    H135038   2.075   5.920  13.535  0.9805  0.5255 -1.7056
 4541TIP3    H235039   2.018   6.050  13.590 -0.3782 -0.8739  0.3365
 4542TIP3   OH235040   4.823   1.180   2.834 -0.2168  0.1147  0.3872
 4542TIP3    H135041   4.731   1.198   2.854 -0.0110  1.3008  0.3582
 4542TIP3    H235042   4.821   1.103   2.778 -1.1678 -0.0745  0.6554
 4543TIP3   OH235043   3.019   6.182  12.129 -0.1386 -0.0189  0.0229
 4543TIP3    H135044   3.040   6.095  12.097 -2.5026 -1.0992  1.1635
 4543TIP3    H235045   3.101   6.232  12.119  2.6210 -3.4174  3.0154
 4544TIP3   OH235046   3.761   1.969   0.482 -0.0159 -0.2273  0.2887
 4544TIP3    H135047   3.817   1.902   0.442 -0.4622 -1.2329  1.2597
 4544TIP3    H235048   3.783   1.965   0.575 -1.4368 -0.4196  0.6465
 4545TIP3   OH235049   0.176   0.841  12.951  0.2543  0.2954  0.2511
 4545TIP3    H135050   0.179   0.910  12.885 -0.9275  0.8291  0.7157
 4545TIP3    H235051   0.189   0.887  13.034 -0.6944 -0.0020  0.5743
 4546TIP3   OH235052   5.746   3.040   2.684 -0.6132  0.2142 -0.5233
 4546TIP3    H135053   5.696   3.122   2.682  0.5063  0.9436 -0.0509
 4546TIP3    H235054   5.680   2.971   2.686 -1.6758  0.9203 -4.1763
 4547TIP3   OH235055   2.681   1.641  13.487  0.3599  0.4430  0.5419
 4547TIP3    H135056   2.644   1.633  13.399  0.4363  0.1151  0.5388
 4547TIP3    H235057   2.748   1.708  13.478  2.0962 -1.2945 -0.2375
 4548TIP3   OH235058   4.586   5.987  12.421 -0.0521  0.3471  0.5732
 4548TIP3    H135059   4.645   5.957  12.352 -2.8807 -0.4974 -1.6615
 4548TIP3    H235060   4.611   6.079  12.435 -0.1598  0.9528 -2.5512
 4549TIP3   OH235061   1.459   1.957  12.177  0.0639  0.2072  0.3161
 4549TIP3    H135062   1.471   1.868  12.145 -2.7314 -0.2803  0.3824
 4549TIP3    H235063   1.521   1.965  12.250  1.6856 -0.9833 -0.8672
 4550TIP3   OH235064   4.454   5.557   2.566 -0.2066 -0.0101 -0.2715
 4550TIP3    H135065   4.542   5.593   2.553  0.3441 -1.2386 -0.1925
 4550TIP3    H235066   4.412   5.565   2.481 -1.2904  3.6346  0.4405
 4551TIP3   OH235067   3.409   3.467   1.497  0.1517  0.3180 -0.3594
 4551TIP3    H135068   3.377   3.379   1.478 -1.0578  1.1747 -2.6398
 4551TIP3    H235069   3.387   3.518   1.419  1.8085  2.4000  0.4412
 4552TIP3   OH235070   2.346   4.372  12.254  0.0194 -0.4117  0.3350
 4552TIP3    H135071   2.405   4.339  12.321  0.4933  1.2646  0.7983
 4552TIP3    H235072   2.384   4.343  12.172  0.3139 -1.1332  0.7166
 4553TIP3   OH235073   4.431   3.247   0.057  0.0097 -1.0601 -0.0768
 4553TIP3    H135074   4.336   3.253   0.056 -0.0589 -2.0077 -0.0295
 4553TIP3    H235075   4.456   3.244  -0.035  0.1209  0.7007 -0.1391
 4554TIP3   OH235076   5.395   2.419   1.595 -0.4234  0.3571 -0.3007
 4554TIP3    H135077   5.454   2.455   1.529  0.2256  1.9891  1.0912
 4554TIP3    H235078   5.354   2.495   1.635  0.7996 -0.3704  2.5921
 4555TIP3   OH235079   0.731   4.333  14.393  0.1999  0.4967 -0.6484
 4555TIP3    H135080   0.766   4.422  14.379  0.1535  0.9188  1.5448
 4555TIP3    H235081   0.807   4.276  14.384  0.9086  1.1140  1.1171
 4556TIP3   OH235082   4.128   2.997   2.197  0.1115  0.0231  0.0032
 4556TIP3    H135083   4.038   3.031   2.194 -0.7272 -1.9037  1.4962
 4556TIP3    H235084   4.181   3.072   2.225 -1.0799  1.0511 -0.3711
 4557TIP3   OH235085   0.227   3.140   6.126 -0.3471 -0.1861  0.5515
 4557TIP3    H135086   0.201   3.170   6.212  1.3517  0.4795  0.8726
 4557TIP3    H235087   0.199   3.048   6.123  0.6715 -0.5955  2.3156
 4558TIP3   OH235088   6.096   6.653   2.737 -0.0534  0.2486  0.0382
 4558TIP3    H135089   6.148   6.722   2.778  0.3443  0.0832 -0.1812
 4558TIP3    H235090   6.159   6.584   2.718  0.0738  0.9446 -2.3061
 4559TIP3   OH235091   2.159   6.209   5.051 -0.2145  0.2716  0.2111
 4559TIP3    H135092   2.237   6.233   5.000 -2.1294  1.5164 -2.3712
 4559TIP3    H235093   2.157   6.114   5.048  1.4642  0.1826  0.8101
 4560TIP3   OH235094   2.447   4.673  15.107  0.1681 -0.0651 -0.6485
 4560TIP3    H135095   2.442   4.663  15.202  0.1409 -0.1767 -0.6620
 4560TIP3    H235096   2.463   4.767  15.094 -2.5832  0.4814 -0.6416
 4561TIP3   OH235097   5.009   3.902   1.423  0.2370  0.4170 -0.2130
 4561TIP3    H135098   4.981   3.837   1.486  1.5930  1.3668  1.4776
 4561TIP3    H235099   5.087   3.864   1.382 -0.5465 -0.1293 -1.2376
 4562TIP3   OH235100   5.242   6.710  11.500  0.4317  0.3596 -0.5132
 4562TIP3    H135101   5.256   6.717  11.405  0.2931 -1.6203 -0.7255
 4562TIP3    H235102   5.179   6.780  11.520  0.6652  0.9760 -1.8283
 4563TIP3   OH235103   3.233   3.496   6.588 -0.0098  0.2210  0.7953
 4563TIP3    H135104   3.178   3.481   6.666  0.2293 -0.9832  0.7510
 4563TIP3    H235105   3.277   3.579   6.606 -1.3723  0.9070  1.1086
 4564TIP3   OH235106   4.647   0.782   2.836 -0.8230 -0.7458  0.6940
 4564TIP3    H135107   4.563   0.766   2.794 -1.0686 -2.7817  1.8286
 4564TIP3    H235108   4.702   0.709   2.807  0.0680 -0.2910  1.1956
 4565TIP3   OH235109   1.663   3.642   4.974  1.2520  0.7945  0.1485
 4565TIP3    H135110   1.685   3.727   4.935 -0.2467  1.0266 -0.2432
 4565TIP3    H235111   1.636   3.663   5.063 -2.3053  1.2381 -0.8878
 4566TIP3   OH235112   5.732   4.690  15.091 -0.0185  0.0123 -0.2075
 4566TIP3    H135113   5.790   4.759  15.057  0.3277 -0.6279 -0.9382
 4566TIP3    H235114   5.645   4.728  15.083  0.2666  0.8995  0.6902
 4567TIP3   OH235115   2.660   6.404  14.459 -0.9987  0.3901 -0.2548
 4567TIP3    H135116   2.752   6.424  14.441 -1.1914  1.6829  0.0758
 4567TIP3    H235117   2.631   6.352  14.385  0.0841 -0.2816 -0.2190
 4568TIP3   OH235118   4.609   6.541  11.334 -0.2533 -0.0755 -0.2063
 4568TIP3    H135119   4.515   6.558  11.344 -0.3328  0.1644 -1.2003
 4568TIP3    H235120   4.638   6.514  11.421 -0.8383  1.7153  0.5885
 4569TIP3   OH235121   6.535   2.170  16.315  0.1359  0.4638  0.0647
 4569TIP3    H135122   6.523   2.170  16.220 -1.7289  0.6015  0.2736
 4569TIP3    H235123   6.507   2.257  16.343  0.2706  0.2770  0.8024
 4570TIP3   OH235124   0.486   2.104  16.457  0.0639  0.0341  0.6691
 4570TIP3    H135125   0.397   2.079  16.435 -0.8225  2.5805  1.0364
 4570TIP3    H235126   0.481   2.137  16.547  1.3197  0.4252  0.6234
 4571TIP3   OH235127   5.791   2.664   5.801  0.6175 -0.6016  0.3380
 4571TIP3    H135128   5.710   2.675   5.850  0.2967  0.8337 -0.4636
 4571TIP3    H235129   5.860   2.686   5.863  0.2529  0.5428  0.3456
 4572TIP3   OH235130   5.211   3.597   4.620 -0.6861 -0.2250 -0.4027
 4572TIP3    H135131   5.141   3.648   4.660 -0.2351 -0.1057  0.2520
 4572TIP3    H235132   5.263   3.566   4.694  0.8359  0.9507 -0.9098
 4573TIP3   OH235133   5.917   2.253  15.420  0.4017 -0.6736  0.5087
 4573TIP3    H135134   5.919   2.180  15.358 -2.6943 -0.4094 -0.0624
 4573TIP3    H235135   5.858   2.225  15.490 -2.7920  1.9001 -0.8444
 4574TIP3   OH235136   4.889   3.414  11.304 -0.1012 -0.2215  0.8789
 4574TIP3    H135137   4.919   3.468  11.231  2.6159 -0.7278  1.5071
 4574TIP3    H235138   4.851   3.336  11.262  1.3511 -0.4777 -0.0304
 4575TIP3   OH235139   0.834   2.548   3.358 -0.0096 -0.0718  0.4012
 4575TIP3    H135140   0.811   2.602   3.282 -1.1710  2.4433  2.3590
 4575TIP3    H235141   0.911   2.592   3.396  0.1656 -0.8977  1.0251
 4576TIP3   OH235142   6.424   0.214  12.530 -0.4715  0.6341 -0.7049
 4576TIP3    H135143   6.405   0.222  12.624 -1.6241  1.6623 -0.9929
 4576TIP3    H235144   6.515   0.241  12.521  0.0076 -0.5636  0.2455
 4577TIP3   OH235145   2.100   3.127  16.238 -0.5059  0.4579  0.2400
 4577TIP3    H135146   2.138   3.073  16.306  0.0432  0.2001 -0.2645
 4577TIP3    H235147   2.010   3.143  16.267 -0.3658  0.1050  0.8711
 4578TIP3   OH235148   5.582   6.608  11.241 -0.1579  0.1789  0.2050
 4578TIP3    H135149   5.515   6.580  11.304  0.9500 -1.2380  0.8105
 4578TIP3    H235150   5.576   6.544  11.170 -0.2738  0.7852 -0.3411
 4579TIP3   OH235151   1.576   4.745   0.409  0.8599 -0.2526  0.0565
 4579TIP3    H135152   1.496   4.785   0.441  2.1772  1.3206  1.6151
 4579TIP3    H235153   1.642   4.768   0.474  2.9427  0.0208 -1.9989
 4580TIP3   OH235154   4.028   5.782   4.732  0.4630  0.3151 -0.3996
 4580TIP3    H135155   3.987   5.821   4.810  1.8345  1.1722 -0.0758
 4580TIP3    H235156   4.092   5.720   4.767  1.9197  1.5423 -0.7662
 4581TIP3   OH235157   0.423   4.603   1.840 -0.1226  0.2199  0.1936
 4581TIP3    H135158   0.486   4.557   1.785  1.6432  1.9466  0.6455
 4581TIP3    H235159   0.367   4.649   1.777  0.9365  0.9830 -0.2333
 4582TIP3   OH235160   5.293   5.717  14.939  0.4165 -0.3455 -0.4633
 4582TIP3    H135161   5.219   5.716  14.880 -1.0289  3.8022  0.9195
 4582TIP3    H235162   5.257   5.694  15.024  1.4985 -1.6950 -0.3332
 4583TIP3   OH235163   2.934   4.127  14.389 -0.1887 -0.1501  0.2078
 4583TIP3    H135164   2.855   4.095  14.347 -0.2300 -3.3651  2.3420
 4583TIP3    H235165   2.905   4.155  14.476  0.8965 -1.2290  0.9630
 4584TIP3   OH235166   5.383   1.522  13.732 -0.4134  0.0366  0.1612
 4584TIP3    H135167   5.305   1.561  13.694 -0.6483  0.8281  1.3788
 4584TIP3    H235168   5.440   1.505  13.657 -1.3778  0.2978 -0.6555
 4585TIP3   OH235169   6.280   3.351  17.039  0.6017  0.3639 -0.3757
 4585TIP3    H135170   6.252   3.296  16.965  1.0549 -1.1685  0.5521
 4585TIP3    H235171   6.274   3.294  17.115 -1.0253  2.2563  1.0133
 4586TIP3   OH235172   4.610   4.873  11.848 -0.3453  0.4894  0.2898
 4586TIP3    H135173   4.565   4.796  11.884 -0.5217  0.5150  0.1211
 4586TIP3    H235174   4.548   4.911  11.787  0.5777 -0.5128 -1.3437
 4587TIP3   OH235175   0.642   0.994   4.182 -0.3592  0.5911 -0.4492
 4587TIP3    H135176   0.593   1.076   4.190 -2.3422 -0.6580  1.1467
 4587TIP3    H235177   0.589   0.929   4.229  0.9709 -1.7061 -1.9071
 4588TIP3   OH235178   5.043   2.911  13.974 -0.5804  0.9659  0.1774
 4588TIP3    H135179   5.037   2.832  13.921 -0.7865  1.3218 -0.3437
 4588TIP3    H235180   5.104   2.967  13.926  0.7569  0.5479  1.3072
 4589TIP3   OH235181   4.105   4.821   5.324  0.4082  0.1327  0.4322
 4589TIP3    H135182   4.190   4.805   5.365  0.4347 -0.7633  0.0381
 4589TIP3    H235183   4.041   4.780   5.382  0.4251 -0.9184 -0.2653
 4590TIP3   OH235184   6.242   4.163  17.371  0.0115  0.1327 -0.0808
 4590TIP3    H135185   6.302   4.174  17.297 -0.5300  0.7706 -0.4353
 4590TIP3    H235186   6.166   4.117  17.335 -0.2840  0.5016  0.0579
 4591TIP3   OH235187   3.009   0.726  15.003 -0.3652 -0.2756 -0.8102
 4591TIP3    H135188   3.019   0.796  14.939  0.2305  0.9556  0.5851
 4591TIP3    H235189   3.091   0.727  15.054 -0.6292 -1.5216 -0.3111
 4592TIP3   OH235190   6.063   0.564  13.049  0.7326  0.4239  0.0137
 4592TIP3    H135191   6.134   0.618  13.086  1.3334  0.5647 -1.2931
 4592TIP3    H235192   5.983   0.604  13.083  1.2607  0.3768  1.3736
 4593TIP3   OH235193   5.330   0.240   2.739 -0.3932  0.2482  0.3600
 4593TIP3    H135194   5.327   0.149   2.770  2.2141  0.2059  0.7188
 4593TIP3    H235195   5.275   0.288   2.801  0.1213 -0.7217  1.6077
 4594TIP3   OH235196   0.538   0.960   2.211 -0.3433 -0.2086 -0.4552
 4594TIP3    H135197   0.444   0.949   2.197 -0.3912  0.7631 -0.9909
 4594TIP3    H235198   0.573   0.979   2.124  0.1257  0.9248 -0.0375
 4595TIP3   OH235199   5.602   1.633  11.968  0.0876  0.3326  0.1133
 4595TIP3    H135200   5.675   1.635  12.030  0.8798  1.7178 -0.7957
 4595TIP3    H235201   5.619   1.555  11.914  0.8397  0.5523  0.0100
 4596TIP3   OH235202   3.470   1.053   5.204  0.0759  0.3544  0.0698
 4596TIP3    H135203   3.394   1.109   5.192 -0.0752  0.1408  0.0416
 4596TIP3    H235204   3.435   0.965   5.209  0.1326  0.3931  1.8739
 4597TIP3   OH235205   5.157   2.869   0.670 -0.2806  0.4319 -0.0779
 4597TIP3    H135206   5.071   2.908   0.653  0.0218  0.6898 -1.0930
 4597TIP3    H235207   5.144   2.775   0.658 -0.3869  0.4835 -0.3632
 4598TIP3   OH235208   6.120   3.468  11.239 -1.0210  0.4699 -0.5852
 4598TIP3    H135209   6.062   3.540  11.265 -1.7795 -1.0671  2.5539
 4598TIP3    H235210   6.062   3.407  11.193 -1.8056 -0.5750  1.6250
 4599TIP3   OH235211   1.636   0.671  14.414  0.2845  0.3555 -0.0746
 4599TIP3    H135212   1.564   0.734  14.417 -0.4640 -0.4017 -1.3997
 4599TIP3    H235213   1.695   0.705  14.346 -1.1516 -1.3464 -2.3229
 4600TIP3   OH235214   2.984   5.111  13.448 -0.2612 -0.2061 -0.2237
 4600TIP3    H135215   3.000   5.071  13.362 -3.2344 -0.9554 -0.5372
 4600TIP3    H235216   2.954   5.199  13.427  1.3826  0.4865  0.2228
 4601TIP3   OH235217   6.308   3.525  11.568 -1.0619 -0.5518 -0.0551
 4601TIP3    H135218   6.252   3.469  11.515 -0.0235 -0.5429 -1.2064
 4601TIP3    H235219   6.283   3.614  11.544  0.4291 -0.5280 -1.7439
 4602TIP3   OH235220   6.450   5.775   4.878 -0.0334  0.2301 -0.8739
 4602TIP3    H135221   6.417   5.861   4.902 -0.2231  0.2300 -1.1220
 4602TIP3    H235222   6.438   5.721   4.956  0.3541  0.5033 -0.6283
 4603TIP3   OH235223   5.178   3.740  15.422  0.3041 -0.8311 -0.2780
 4603TIP3    H135224   5.243   3.752  15.492 -0.3903 -1.9053  0.5801
 4603TIP3    H235225   5.101   3.789  15.452 -0.0308 -1.3780 -0.2255
 4604TIP3   OH235226   2.230   4.102  14.792  0.1384 -0.2425 -0.0489
 4604TIP3    H135227   2.143   4.076  14.762 -0.5208 -1.3193  2.5487
 4604TIP3    H235228   2.216   4.182  14.841  0.6092 -0.3902  0.3358
 4605TIP3   OH235229   0.557   3.805   0.320  0.0973  0.1328 -0.2057
 4605TIP3    H135230   0.645   3.787   0.288 -0.3119 -0.8326 -0.8255
 4605TIP3    H235231   0.518   3.719   0.333 -0.4444  0.5282  0.9749
 4606TIP3   OH235232   1.009   3.503  14.487 -0.3356 -0.5285 -0.2252
 4606TIP3    H135233   0.992   3.410  14.499  1.2453 -0.7278  0.7172
 4606TIP3    H235234   0.928   3.546  14.515 -0.5350 -1.5573  0.8363
 4607TIP3   OH235235   3.309   0.271  15.673  0.2653  0.3447 -0.0180
 4607TIP3    H135236   3.277   0.181  15.684  0.4480  0.3685  0.7893
 4607TIP3    H235237   3.242   0.325  15.715  1.5642  0.3606  2.1788
 4608TIP3   OH235238   2.210   6.256   0.242 -0.5311 -0.2717 -0.2011
 4608TIP3    H135239   2.194   6.193   0.172 -0.1444  0.1667 -0.6951
 4608TIP3    H235240   2.212   6.341   0.198  0.9796 -0.0995  0.1255
 4609TIP3   OH235241   1.312   5.409  10.693  0.0246 -0.1465 -0.3899
 4609TIP3    H135242   1.285   5.493  10.655  0.0682 -0.4943 -1.2093
 4609TIP3    H235243   1.346   5.432  10.780 -0.5793  0.6000 -0.3357
 4610TIP3   OH235244   5.524   4.236   0.009  0.5731  0.6161 -0.3004
 4610TIP3    H135245   5.547   4.172  -0.058  1.9064 -0.0240  0.7355
 4610TIP3    H235246   5.594   4.302   0.006  2.4302 -1.0118  2.4380
 4611TIP3   OH235247   5.130   2.650  12.882  0.0461 -0.7231 -0.7180
 4611TIP3    H135248   5.082   2.713  12.935  0.6646 -1.2507  0.5117
 4611TIP3    H235249   5.093   2.565  12.907  0.0787 -0.9608 -1.4377
 4612TIP3   OH235250   1.790   1.264   0.567  0.6874  0.4580 -0.2187
 4612TIP3    H135251   1.710   1.249   0.617  1.0779 -1.0700  0.0260
 4612TIP3    H235252   1.762   1.313   0.490 -0.1462  1.6648  0.8102
 4613TIP3   OH235253   6.236   1.844  14.555  0.0648  0.0520  0.0644
 4613TIP3    H135254   6.170   1.900  14.515 -1.1693 -0.8628  0.7463
 4613TIP3    H235255   6.235   1.869  14.648  0.6506  0.0064  0.0851
 4614TIP3   OH235256   2.210   4.844  13.004 -0.5308 -0.3163  0.0915
 4614TIP3    H135257   2.286   4.901  12.989  0.1702 -1.6126 -1.5723
 4614TIP3    H235258   2.243   4.755  12.990 -2.0121 -1.0240  0.8801
 4615TIP3   OH235259   0.495   6.212   3.073  0.1557 -0.3156  0.4563
 4615TIP3    H135260   0.557   6.175   3.010 -0.7242  0.1603 -0.7232
 4615TIP3    H235261   0.514   6.306   3.074  0.3379 -0.3479  1.1263
 4616TIP3   OH235262   2.428   4.926   5.290  0.0098  0.3457  0.9481
 4616TIP3    H135263   2.410   4.938   5.383  1.3812  0.1173  1.2655
 4616TIP3    H235264   2.439   4.831   5.280 -1.5904  0.1839  0.2381
 4617TIP3   OH235265   2.895   6.649   0.754  0.3517  0.4277 -0.2689
 4617TIP3    H135266   2.921   6.612   0.838  0.5853  0.2959 -0.4012
 4617TIP3    H235267   2.825   6.711   0.776  1.7303  1.8683  0.2599
 4618TIP3   OH235268   5.570   5.506   3.864 -0.1459  0.0801 -0.4051
 4618TIP3    H135269   5.560   5.452   3.943  0.7610  0.8543  0.2569
 4618TIP3    H235270   5.579   5.442   3.793 -0.8770 -0.6301  0.1103
 4619TIP3   OH235271   0.589   4.785   3.015 -0.3366  0.1843 -0.0821
 4619TIP3    H135272   0.653   4.806   2.947 -1.0989  0.2406 -0.8006
 4619TIP3    H235273   0.636   4.728   3.076 -0.1685 -1.5197 -1.7045
 4620TIP3   OH235274   4.055   6.523  16.851 -0.8484 -0.0162  0.2303
 4620TIP3    H135275   4.045   6.597  16.792  0.8824  0.1124  0.0578
 4620TIP3    H235276   3.978   6.468  16.834 -1.1949  0.8144 -0.9761
 4621TIP3   OH235277   5.362   3.051   1.999  0.6288 -0.0479 -0.0608
 4621TIP3    H135278   5.400   3.034   1.912 -0.2293  0.7390 -0.6005
 4621TIP3    H235279   5.272   3.020   1.993  0.5292  0.1160  0.5199
 4622TIP3   OH235280   1.766   6.045  12.603 -0.2031  0.5534  0.4007
 4622TIP3    H135281   1.782   6.118  12.544  1.0498 -0.9726 -1.2647
 4622TIP3    H235282   1.850   6.029  12.646  0.3140 -1.4322 -1.1717
 4623TIP3   OH235283   5.116   1.004  14.422  0.6193 -0.3497  0.5096
 4623TIP3    H135284   5.177   1.076  14.405 -1.0391  1.0212  0.0517
 4623TIP3    H235285   5.070   1.030  14.502 -0.6059 -0.4464 -0.1375
 4624TIP3   OH235286   5.979   3.587   3.286  0.2125 -0.3313  0.0272
 4624TIP3    H135287   6.033   3.514   3.318  1.1296 -0.3049 -1.3998
 4624TIP3    H235288   6.041   3.658   3.270 -0.5653  0.4807  0.5593
 4625TIP3   OH235289   4.268   3.120   4.935 -0.1071 -0.1677  0.4323
 4625TIP3    H135290   4.288   3.186   5.001  0.5474 -0.3086  0.3777
 4625TIP3    H235291   4.204   3.063   4.978 -0.0671  0.0327  0.7650
 4626TIP3   OH235292   4.240   0.576  15.585  0.1093  0.3333  0.2847
 4626TIP3    H135293   4.282   0.552  15.502 -0.0034  0.1611  0.2786
 4626TIP3    H235294   4.305   0.631  15.629  0.3227  0.1070  0.2527
 4627TIP3   OH235295   5.144   1.907   6.009  0.1856  0.9115 -0.7204
 4627TIP3    H135296   5.071   1.928   6.068  0.1159 -2.8818  0.7809
 4627TIP3    H235297   5.104   1.853   5.940  1.0769  1.5525 -1.7708
 4628TIP3   OH235298   6.487   4.867  13.700  0.3506 -0.6417 -0.4207
 4628TIP3    H135299   6.423   4.933  13.725 -0.2479 -1.3965  0.0746
 4628TIP3    H235300   6.569   4.916  13.690 -0.4401  0.4763 -1.8766
 4629TIP3   OH235301   5.209   3.689   0.223 -0.7929  0.6931  0.2290
 4629TIP3    H135302   5.236   3.609   0.268 -2.6042  1.1697  2.3936
 4629TIP3    H235303   5.263   3.693   0.145 -0.9926 -2.9202 -0.2608
 4630TIP3   OH235304   3.036   6.563   4.405 -0.2068 -0.4950 -0.6834
 4630TIP3    H135305   2.956   6.550   4.354 -1.9022 -0.5259  1.7951
 4630TIP3    H235306   3.029   6.500   4.476  2.1672 -0.6264 -0.5031
 4631TIP3   OH235307   4.214   6.056  16.675  0.4998 -0.1003  0.5126
 4631TIP3    H135308   4.187   6.072  16.766  1.5969 -2.0005  1.2338
 4631TIP3    H235309   4.145   6.096  16.622 -0.8286 -0.0522  2.1962
 4632TIP3   OH235310   5.887   3.101  17.357  0.0994  0.3364  0.2145
 4632TIP3    H135311   5.838   3.019  17.348 -0.1514  0.0628  3.0040
 4632TIP3    H235312   5.822   3.164  17.389  0.7013  1.1271 -0.0854
 4633TIP3   OH235313   5.853   5.807   5.529  0.2548 -0.0624 -0.2700
 4633TIP3    H135314   5.857   5.855   5.446 -1.9275  1.8047  0.5638
 4633TIP3    H235315   5.763   5.820   5.558  1.0206 -0.4392  2.5051
 4634TIP3   OH235316   6.051   4.923   0.963  0.2573 -0.3123  0.1296
 4634TIP3    H135317   6.000   4.860   1.015  0.7263 -1.3611 -0.6357
 4634TIP3    H235318   6.077   4.990   1.026 -0.7846 -0.5511  0.8474
 4635TIP3   OH235319   2.905   5.247   0.836 -0.7276  0.2963  0.3232
 4635TIP3    H135320   2.927   5.319   0.778  0.0762 -0.7628 -0.7256
 4635TIP3    H235321   2.952   5.171   0.801 -0.8665 -0.5641  1.8806
 4636TIP3   OH235322   1.451   4.592   3.734 -0.3857  0.0011  0.2526
 4636TIP3    H135323   1.518   4.658   3.757  1.2161 -1.5239  0.1796
 4636TIP3    H235324   1.468   4.520   3.794 -1.8157 -0.5395  0.0247
 4637TIP3   OH235325   4.892   3.416   5.413 -0.0604  0.1925  0.4901
 4637TIP3    H135326   4.973   3.435   5.366 -0.0720 -0.4022  0.2212
 4637TIP3    H235327   4.870   3.498   5.456  1.8167 -0.1595  2.2939
 4638TIP3   OH235328   0.512   0.384   6.646 -0.7631  0.2212 -0.0474
 4638TIP3    H135329   0.517   0.292   6.672 -2.8120 -0.3924 -1.6100
 4638TIP3    H235330   0.421   0.408   6.659 -0.6950  1.4386 -1.5440
 4639TIP3   OH235331   3.441   3.600   3.430 -0.5001 -0.6321  0.4676
 4639TIP3    H135332   3.513   3.607   3.368 -0.8283  1.1713  0.2145
 4639TIP3    H235333   3.363   3.598   3.375 -0.7049 -1.0560  0.7731
 4640TIP3   OH235334   5.644   1.471   0.159 -0.1289 -0.1418 -0.8494
 4640TIP3    H135335   5.610   1.555   0.188  0.8869  0.5960 -1.7346
 4640TIP3    H235336   5.727   1.461   0.206  0.0188 -0.3951 -1.1598
 4641TIP3   OH235337   5.653   5.418   4.863  0.5292  0.0533  0.0527
 4641TIP3    H135338   5.745   5.422   4.837  0.1619 -0.1086 -1.3577
 4641TIP3    H235339   5.649   5.347   4.927  1.1655 -0.8717 -0.8987
 4642TIP3   OH235340   1.958   4.679  13.939  0.4893 -0.2523  0.4875
 4642TIP3    H135341   2.014   4.606  13.911  2.1707  1.1071  0.1026
 4642TIP3    H235342   2.017   4.736  13.988  0.0230  2.2551 -1.6313
 4643TIP3   OH235343   4.618   5.866  16.317 -0.3014 -0.3409 -0.3243
 4643TIP3    H135344   4.595   5.912  16.398 -0.0696  0.3892 -0.6641
 4643TIP3    H235345   4.536   5.826  16.288 -0.3420 -0.7979  0.3825
 4644TIP3   OH235346   3.501   4.520  14.378  0.5229  0.3550 -0.1909
 4644TIP3    H135347   3.528   4.468  14.454 -0.6880  0.0541  0.0582
 4644TIP3    H235348   3.409   4.497  14.365  0.8777 -0.0801 -2.1589
 4645TIP3   OH235349   5.250   0.697   2.540 -0.1914 -0.2731  0.2002
 4645TIP3    H135350   5.262   0.789   2.515  0.0455 -0.4265 -0.2559
 4645TIP3    H235351   5.318   0.650   2.493  0.9463 -0.4590  1.9443
 4646TIP3   OH235352   6.463   4.427  13.747 -0.1017 -0.0676 -0.7065
 4646TIP3    H135353   6.511   4.494  13.795 -0.9499  0.5373 -0.6864
 4646TIP3    H235354   6.531   4.369  13.713  0.5453 -0.4965  1.1727
 4647TIP3   OH235355   6.032   5.890  11.257  0.4654 -0.0407  0.7814
 4647TIP3    H135356   5.992   5.976  11.244 -0.8869 -0.8693 -0.9864
 4647TIP3    H235357   6.046   5.856  11.168  0.7621 -1.7391  1.4316
 4648TIP3   OH235358   0.119   5.190   3.711 -0.4549 -0.0018 -0.1895
 4648TIP3    H135359   0.085   5.255   3.772 -0.5456  1.1068 -1.3772
 4648TIP3    H235360   0.052   5.185   3.642  0.8064  0.6897 -1.5123
 4649TIP3   OH235361   6.608   1.625   5.120  0.1041  0.1335  0.2704
 4649TIP3    H135362   6.661   1.596   5.194  2.4415  1.4498 -0.7709
 4649TIP3    H235363   6.522   1.642   5.157  0.9947  0.0696  2.5317
 4650TIP3   OH235364   5.541   2.786   0.770 -0.1333 -0.3677 -0.5969
 4650TIP3    H135365   5.566   2.854   0.707 -0.4022 -0.5108 -0.8562
 4650TIP3    H235366   5.544   2.830   0.855  1.1541 -0.4132 -0.5987
 4651TIP3   OH235367   3.403   2.815   6.150 -0.7443  0.0568  0.3708
 4651TIP3    H135368   3.383   2.743   6.090 -0.0804  0.4080 -0.2983
 4651TIP3    H235369   3.433   2.772   6.230  0.9299 -0.4426 -0.4753
 4652TIP3   OH235370   4.476   4.128  12.290  0.2919 -0.6183 -0.0615
 4652TIP3    H135371   4.568   4.115  12.267  1.1442 -0.7047  2.9059
 4652TIP3    H235372   4.461   4.065  12.361 -2.3670 -1.2456 -1.1008
 4653TIP3   OH235373   3.721   2.330   5.706  0.0284 -0.1554  0.3231
 4653TIP3    H135374   3.768   2.402   5.749 -0.2475  0.5220 -0.4876
 4653TIP3    H235375   3.635   2.329   5.749  0.0565 -0.0479  0.3812
 4654TIP3   OH235376   3.973   6.358   4.439 -0.0972  0.5651  0.4125
 4654TIP3    H135377   4.063   6.362   4.407 -1.1755 -0.1001 -3.1179
 4654TIP3    H235378   3.954   6.448   4.465  1.6965  0.6149  1.7874
 4655TIP3   OH235379   4.430   5.691   4.388 -0.2258  0.1388  0.3676
 4655TIP3    H135380   4.429   5.595   4.379  2.9061 -0.0888  1.1453
 4655TIP3    H235381   4.465   5.706   4.475 -0.6914  2.0324  0.2657
 4656TIP3   OH235382   0.043   0.366  15.482  0.3017 -0.6604 -0.4471
 4656TIP3    H135383  -0.032   0.355  15.540 -0.7381  1.6380 -1.2496
 4656TIP3    H235384   0.108   0.412  15.534  0.3092 -0.7255 -0.3984
 4657TIP3   OH235385   6.080   2.194  16.241 -0.0492  0.7729 -0.6998
 4657TIP3    H135386   6.155   2.252  16.249 -0.4041  1.4089 -1.8160
 4657TIP3    H235387   6.027   2.213  16.319  2.1003 -1.5089  1.5277
 4658TIP3   OH235388   1.499   2.011   1.506 -0.0627 -0.0259 -0.3988
 4658TIP3    H135389   1.518   1.980   1.594  3.6754  1.7351 -0.3735
 4658TIP3    H235390   1.539   1.945   1.449  0.0712  0.2616 -0.6436
 4659TIP3   OH235391   0.989   4.711   3.641 -0.1258 -0.8910  0.3197
 4659TIP3    H135392   1.072   4.730   3.686 -0.5783  0.0104  0.7944
 4659TIP3    H235393   0.923   4.754   3.695 -0.8436 -1.0905 -0.3958
 4660TIP3   OH235394   2.300   5.691  12.168 -0.3203 -0.0322 -0.4701
 4660TIP3    H135395   2.297   5.769  12.112 -1.0039  0.0912 -0.2713
 4660TIP3    H235396   2.390   5.660  12.161  0.1809  1.2289  0.0677
 4661TIP3   OH235397   6.234   6.316  10.755  0.2514 -0.1528  0.5557
 4661TIP3    H135398   6.167   6.350  10.695  1.5876 -0.8092 -1.4365
 4661TIP3    H235399   6.204   6.341  10.842 -2.6335 -0.5205 -0.2276
 4662TIP3   OH235400   3.457   0.115   1.985  0.1517 -0.6935  0.2612
 4662TIP3    H135401   3.390   0.053   1.956  1.1501 -1.0992 -1.2954
 4662TIP3    H235402   3.437   0.130   2.078 -2.2195 -0.6101 -0.1853
 4663TIP3   OH235403   5.114   1.832  17.078  0.1064  0.1715 -0.1056
 4663TIP3    H135404   5.034   1.852  17.030 -0.1229  0.9989  0.5844
 4663TIP3    H235405   5.156   1.917  17.091 -0.1518  0.0733  1.6575
 4664TIP3   OH235406   0.944   2.158  16.648  0.2932  0.5675  0.9123
 4664TIP3    H135407   0.931   2.240  16.601 -2.1156 -0.1281  0.2420
 4664TIP3    H235408   0.894   2.169  16.729  1.8672  0.5801  1.9369
 4665TIP3   OH235409   3.565   0.827  12.955  0.1006  0.1169  0.1977
 4665TIP3    H135410   3.607   0.743  12.940 -1.2897 -0.4167 -0.9190
 4665TIP3    H235411   3.616   0.889  12.902  0.5580 -0.1875  0.2788
 4666TIP3   OH235412   2.072   2.047  16.870 -0.1715 -0.2832 -0.0848
 4666TIP3    H135413   2.099   2.052  16.961 -0.7220 -0.2748  0.0838
 4666TIP3    H235414   2.099   2.131  16.832 -2.4416  0.9131  0.7817
 4667TIP3   OH235415   0.471   6.581  11.264 -0.0526 -0.2492  0.5148
 4667TIP3    H135416   0.409   6.614  11.330 -1.1469 -0.4501 -0.3803
 4667TIP3    H235417   0.478   6.652  11.200  1.0642 -0.0244  0.8601
 4668TIP3   OH235418   6.257   4.907  16.405 -0.0991 -0.6433  0.5613
 4668TIP3    H135419   6.341   4.904  16.451 -0.1886 -2.4124  0.6652
 4668TIP3    H235420   6.233   4.815  16.392 -1.2080 -0.1759 -0.9692
 4669TIP3   OH235421   2.805   3.140   5.141 -0.2105  0.2439 -0.1150
 4669TIP3    H135422   2.828   3.226   5.177 -2.2164  0.5346  0.6109
 4669TIP3    H235423   2.889   3.095   5.133  0.8410  2.0503  0.0353
 4670TIP3   OH235424   2.795   5.659   5.915 -0.2610  0.1110 -0.4621
 4670TIP3    H135425   2.806   5.615   5.831  1.3497  0.6121 -0.5366
 4670TIP3    H235426   2.862   5.621   5.971 -1.1673 -0.0544  0.5578
 4671TIP3   OH235427   2.999   3.498   2.016 -0.1683 -0.6093 -0.1304
 4671TIP3    H135428   3.015   3.592   2.002  0.5555 -0.3058  2.3268
 4671TIP3    H235429   2.923   3.479   1.961 -0.1947  1.3569 -0.8703
 4672TIP3   OH235430   5.731   2.719   4.463  0.1965 -0.0594 -0.5437
 4672TIP3    H135431   5.742   2.773   4.541 -0.5917 -0.5864 -0.0492
 4672TIP3    H235432   5.809   2.736   4.410  0.0119  1.4617 -0.3509
 4673TIP3   OH235433   1.732   4.405  10.855 -0.6784 -0.4130 -0.4877
 4673TIP3    H135434   1.771   4.323  10.824  3.6651  0.4972  1.6894
 4673TIP3    H235435   1.760   4.411  10.947 -1.8894  2.9084 -0.2149
 4674TIP3   OH235436   6.025   3.630  13.837 -0.0292  0.5698 -0.1926
 4674TIP3    H135437   5.966   3.702  13.857 -0.7089  0.2429 -0.9817
 4674TIP3    H235438   6.053   3.645  13.747 -1.2475 -0.8392 -0.8620
 4675TIP3   OH235439   0.307   3.698  16.450 -0.1294  0.2026  0.1858
 4675TIP3    H135440   0.400   3.721  16.448  0.0945 -0.6641 -0.0826
 4675TIP3    H235441   0.307   3.602  16.460 -0.9921  0.1950  0.1634
 4676TIP3   OH235442   0.984   4.132  14.987 -0.1438  0.2680  0.5451
 4676TIP3    H135443   1.005   4.212  15.036  0.3019  0.8508 -0.5526
 4676TIP3    H235444   1.041   4.065  15.024 -0.1804  0.5697  1.1596
 4677TIP3   OH235445   1.297   0.405  16.328 -0.6438 -0.6877 -0.2702
 4677TIP3    H135446   1.273   0.468  16.396  0.7259 -0.2746 -0.1482
 4677TIP3    H235447   1.213   0.364  16.303 -1.0871 -1.8001  2.5646
 4678TIP3   OH235448   6.683   2.840  11.907  0.1068  0.0724  0.5842
 4678TIP3    H135449   6.682   2.934  11.892 -0.2953 -0.2706 -2.0531
 4678TIP3    H235450   6.654   2.802  11.824  0.7040 -2.4013  1.4132
 4679TIP3   OH235451   1.423   1.627   2.685 -0.1715 -0.0229 -0.7584
 4679TIP3    H135452   1.400   1.577   2.763 -0.6878  1.7328  0.2671
 4679TIP3    H235453   1.383   1.578   2.613 -1.7470 -0.4328  0.3309
 4680TIP3   OH235454   1.848   4.329  13.771  0.3778 -0.4241 -0.1119
 4680TIP3    H135455   1.914   4.388  13.734 -0.1818 -0.4452 -1.1809
 4680TIP3    H235456   1.897   4.253  13.801  0.8088 -0.6225 -1.2720
 4681TIP3   OH235457   0.280   6.342  16.585 -0.3984 -0.5738 -0.3408
 4681TIP3    H135458   0.360   6.288  16.587 -0.0656 -0.0746  0.1940
 4681TIP3    H235459   0.261   6.361  16.677 -0.1221  0.7722 -0.5358
 4682TIP3   OH235460   6.445   2.420  15.894 -0.2428 -0.0076 -0.9354
 4682TIP3    H135461   6.430   2.338  15.847 -0.3876 -1.1878  1.0540
 4682TIP3    H235462   6.421   2.488  15.832  0.5911 -1.4178 -2.9257
 4683TIP3   OH235463   6.559   2.273   6.193  0.3832 -0.2409  0.2669
 4683TIP3    H135464   6.645   2.313   6.200  1.1323 -1.1162 -2.4352
 4683TIP3    H235465   6.558   2.205   6.261  2.3170 -0.9495 -0.3433
 4684TIP3   OH235466   6.209   5.590  12.110  0.3265 -0.7672 -0.3941
 4684TIP3    H135467   6.248   5.537  12.041  0.4039 -0.4059 -0.6318
 4684TIP3    H235468   6.272   5.586  12.182  1.8592  1.4573 -1.4774
 4685TIP3   OH235469   2.850   3.758   0.167 -0.6513  0.3213 -0.7477
 4685TIP3    H135470   2.862   3.736   0.075 -1.3106 -0.4470 -0.6561
 4685TIP3    H235471   2.881   3.848   0.174  0.1959  0.1004 -1.5422
 4686TIP3   OH235472   6.276   5.978   4.861  0.0183 -0.1701 -0.0810
 4686TIP3    H135473   6.264   6.064   4.822  1.6617 -0.1067 -0.5303
 4686TIP3    H235474   6.235   5.918   4.799 -0.2466  0.2023 -0.2690
 4687TIP3   OH235475   0.404   1.004  11.568  0.1383 -0.1819 -0.6137
 4687TIP3    H135476   0.436   1.021  11.480  0.7655  2.0668 -0.0117
 4687TIP3    H235477   0.467   1.047  11.626  0.1212 -2.1635  1.0080
 4688TIP3   OH235478   3.565   5.703  11.522  0.2306  0.4260 -0.2678
 4688TIP3    H135479   3.476   5.706  11.556  0.1111 -1.4272 -0.3461
 4688TIP3    H235480   3.555   5.693  11.428  0.5420  1.3609 -0.4097
 4689TIP3   OH235481   5.371   1.137   2.525 -0.0764 -0.1075  0.2390
 4689TIP3    H135482   5.406   1.219   2.560 -1.4185 -0.0708  1.5878
 4689TIP3    H235483   5.441   1.103   2.469  0.9757  1.3413  0.6150
 4690TIP3   OH235484   2.066   2.424   0.157  0.5316 -0.2802 -0.1253
 4690TIP3    H135485   2.101   2.339   0.131 -2.4145 -2.2326  1.6567
 4690TIP3    H235486   2.103   2.439   0.244  0.2084 -0.2992  0.0171
 4691TIP3   OH235487   4.498   5.506   4.090  0.0347  0.3195 -0.5802
 4691TIP3    H135488   4.472   5.598   4.095  0.9954  0.6333 -1.1747
 4691TIP3    H235489   4.453   5.473   4.012  0.3474  0.5139 -0.8477
 4692TIP3   OH235490   4.582   4.104  13.599 -0.3328  0.0815 -0.7922
 4692TIP3    H135491   4.655   4.069  13.651 -2.2428 -0.3389  1.8378
 4692TIP3    H235492   4.521   4.030  13.590 -2.2265  1.3609  0.6447
 4693TIP3   OH235493   0.464   3.326   2.161 -0.1927  0.0805 -0.3540
 4693TIP3    H135494   0.490   3.375   2.239 -1.2376  1.9421 -1.1023
 4693TIP3    H235495   0.547   3.298   2.121  0.3650 -0.4261  1.0932
 4694TIP3   OH235496   0.684   0.591   1.172 -0.3971  0.5099  0.3331
 4694TIP3    H135497   0.624   0.522   1.145 -0.3460  0.9301 -0.9228
 4694TIP3    H235498   0.771   0.553   1.160 -0.3698  0.0751  1.6806
 4695TIP3   OH235499   1.311   4.767  11.496  0.3646 -0.1197  0.1848
 4695TIP3    H135500   1.318   4.755  11.401 -0.6461 -0.9235  0.1887
 4695TIP3    H235501   1.311   4.678  11.531 -0.4974  0.1247  0.8267
 4696TIP3   OH235502   3.346   4.704  17.161  0.3245 -0.3076 -0.4722
 4696TIP3    H135503   3.285   4.630  17.163 -1.8909  1.3725  3.5145
 4696TIP3    H235504   3.422   4.673  17.211 -0.6190  0.0254  1.2349
 4697TIP3   OH235505   5.361   1.487   2.411 -0.5751  0.4072 -0.6124
 4697TIP3    H135506   5.282   1.476   2.357 -0.9428 -0.2584  0.0378
 4697TIP3    H235507   5.399   1.399   2.414 -1.7746 -0.1090  2.0278
 4698TIP3   OH235508   6.745   4.603   0.503  0.2134  0.1774 -0.1182
 4698TIP3    H135509   6.750   4.662   0.578 -0.7468  1.1195 -0.7692
 4698TIP3    H235510   6.653   4.574   0.502  0.4969 -0.7424 -0.2531
 4699TIP3   OH235511   1.280   6.131  14.723 -0.3361  0.3414  0.0945
 4699TIP3    H135512   1.339   6.090  14.660 -0.0439  1.0820 -0.1330
 4699TIP3    H235513   1.198   6.083  14.714 -0.2438  0.3207 -0.7271
 4700TIP3   OH235514   5.993   2.233   6.571  0.2235 -0.2537 -0.1772
 4700TIP3    H135515   5.997   2.153   6.623 -1.6569  0.3016  0.9101
 4700TIP3    H235516   6.072   2.281   6.594 -0.6275  0.0509  2.3510
 4701TIP3   OH235517   3.466   2.564  12.208  0.1916  0.2479  0.6284
 4701TIP3    H135518   3.544   2.614  12.182 -0.2702  0.4737 -0.3730
 4701TIP3    H235519   3.442   2.601  12.293 -0.1439  1.7635 -0.0968
 4702TIP3   OH235520   0.057   0.542  11.730  0.4298 -0.1683 -0.5263
 4702TIP3    H135521   0.015   0.627  11.715  0.4848 -0.0268  0.0731
 4702TIP3    H235522   0.146   0.553  11.697  0.5355  0.1198 -0.1654
 4703TIP3   OH235523   1.520   0.996   4.698  0.0538 -0.1290 -0.6120
 4703TIP3    H135524   1.600   1.012   4.748 -1.0877  0.4240  1.1280
 4703TIP3    H235525   1.507   0.901   4.704 -0.5466  0.0222  0.9878
 4704TIP3   OH235526   1.359   6.244  14.135  0.3202 -0.6607  0.1971
 4704TIP3    H135527   1.356   6.182  14.063  1.5851 -1.6993  0.9991
 4704TIP3    H235528   1.282   6.225  14.187  0.3120 -1.0704  0.0370
 4705TIP3   OH235529   1.843   1.450   2.990 -0.1969  0.0535  0.1599
 4705TIP3    H135530   1.904   1.438   3.063 -0.2247  1.6395  0.4885
 4705TIP3    H235531   1.757   1.446   3.031 -0.2168  0.7279  0.2062
 4706TIP3   OH235532   3.809   5.453   0.030  0.3878  0.1368  0.4585
 4706TIP3    H135533   3.770   5.528  -0.014  0.2617 -0.1777  0.0261
 4706TIP3    H235534   3.902   5.457   0.007  0.3683  0.1165  0.3776
 4707TIP3   OH235535   1.736   3.146  13.952 -0.2179  0.4107  0.1862
 4707TIP3    H135536   1.826   3.171  13.968  0.1546 -1.6093  1.6837
 4707TIP3    H235537   1.701   3.214  13.894  1.9899  1.6718  0.2571
 4708TIP3   OH235538   6.312   2.283   2.166 -0.0918  0.4038 -0.1114
 4708TIP3    H135539   6.220   2.310   2.165  0.8676  4.4592  0.9473
 4708TIP3    H235540   6.326   2.248   2.254 -0.3398  1.1571  0.2384
 4709TIP3   OH235541   0.119   6.519   2.868  0.0456 -0.3604 -0.0213
 4709TIP3    H135542   0.166   6.511   2.951 -2.1191 -0.5569  1.2558
 4709TIP3    H235543   0.065   6.597   2.879  1.4483  1.0141 -2.2068
 4710TIP3   OH235544   3.058   3.739  15.082  0.1944  0.2829  0.3953
 4710TIP3    H135545   3.121   3.671  15.061 -0.5152  0.1929 -1.5805
 4710TIP3    H235546   3.112   3.816  15.102  0.9565 -0.4596  1.2990
 4711TIP3   OH235547   3.133   4.849  16.770  0.4336 -0.1049 -0.0964
 4711TIP3    H135548   3.181   4.790  16.827  0.2745  0.0075  0.1556
 4711TIP3    H235549   3.200   4.892  16.717  0.6350  0.2399  0.4324
 4712TIP3   OH235550   5.368   2.836   0.530 -0.0769  0.2656  0.1690
 4712TIP3    H135551   5.412   2.768   0.582  0.1627  1.3556  1.4481
 4712TIP3    H235552   5.293   2.862   0.583  0.9972  2.4377  0.7343
 4713TIP3   OH235553   3.091   6.205  10.948  0.2200 -0.3984  0.6745
 4713TIP3    H135554   3.139   6.148  10.888 -1.1922 -0.3567 -0.5491
 4713TIP3    H235555   3.003   6.167  10.952  0.0243  0.1300  2.0340
 4714TIP3   OH235556   1.558   4.920   5.118 -0.0241 -0.0824 -0.6340
 4714TIP3    H135557   1.589   5.008   5.141  1.4559 -0.7411  0.0357
 4714TIP3    H235558   1.530   4.927   5.027  0.2542  1.0383 -0.6452
 4715TIP3   OH235559   4.952   0.820  13.940 -0.4508  0.0188  0.1989
 4715TIP3    H135560   4.942   0.730  13.972  0.1967  0.1382  0.7559
 4715TIP3    H235561   4.863   0.856  13.943 -0.5969 -0.3651  0.7114
 4716TIP3   OH235562   0.704   2.854  13.164 -0.2652  0.0105  0.2635
 4716TIP3    H135563   0.667   2.922  13.108 -1.0310  0.7168  1.5919
 4716TIP3    H235564   0.743   2.792  13.102 -0.7872  0.9224 -1.0380
 4717TIP3   OH235565   4.556   4.203  15.209 -0.2691  0.4759  0.1975
 4717TIP3    H135566   4.527   4.114  15.190  0.7040  0.1785  0.0347
 4717TIP3    H235567   4.644   4.208  15.172 -0.7032  1.8404 -0.7182
 4718TIP3   OH235568   2.528   3.660   3.576  0.1279  0.2776 -0.0827
 4718TIP3    H135569   2.549   3.573   3.542  2.6041  0.8800 -0.3403
 4718TIP3    H235570   2.585   3.719   3.526 -0.7628  1.9311  0.7649
 4719TIP3   OH235571   6.738   5.027  11.207 -0.0100  0.0944  0.3304
 4719TIP3    H135572   6.656   5.023  11.256 -0.8659  0.7872 -0.9814
 4719TIP3    H235573   6.711   5.021  11.115  1.2739  1.7275 -0.2085
 4720TIP3   OH235574   5.016   4.759   4.913  0.2855  0.3830  0.5781
 4720TIP3    H135575   4.927   4.768   4.881 -0.1334  2.2557  2.0792
 4720TIP3    H235576   5.062   4.712   4.844 -1.4890  0.7423 -0.9102
 4721TIP3   OH235577   5.970   1.165  13.594 -0.4638 -0.0445 -0.3742
 4721TIP3    H135578   5.935   1.075  13.588 -2.1482  0.5809 -0.6066
 4721TIP3    H235579   5.893   1.218  13.615  0.0014  1.6958 -2.6821
 4722TIP3   OH235580   6.246   0.442  13.970 -0.1621  0.0330  0.0386
 4722TIP3    H135581   6.325   0.473  13.926  0.5216  1.8480  2.3822
 4722TIP3    H235582   6.278   0.389  14.043 -1.2475 -1.8209 -0.7570
 4723TIP3   OH235583   5.913   5.588  12.325  0.2948 -0.1747 -0.5864
 4723TIP3    H135584   5.840   5.603  12.264 -0.3403 -1.0514 -0.0656
 4723TIP3    H235585   5.918   5.493  12.333  0.2795 -0.0721  0.8293
 4724TIP3   OH235586   3.161   1.652   2.095  0.7263  0.1332 -0.1516
 4724TIP3    H135587   3.069   1.666   2.114  1.1054  1.5156  0.7941
 4724TIP3    H235588   3.177   1.562   2.123  0.6476  1.2099  4.0877
 4725TIP3   OH235589   1.357   0.724   4.156 -0.1590  0.0269  0.1144
 4725TIP3    H135590   1.374   0.658   4.223 -2.6444 -1.6947 -0.8032
 4725TIP3    H235591   1.317   0.797   4.203 -0.5901 -0.5720  0.6895
 4726TIP3   OH235592   1.933   1.987   0.796 -0.0110 -0.1295  0.7326
 4726TIP3    H135593   1.962   2.077   0.780 -0.7910 -0.0727 -0.4836
 4726TIP3    H235594   1.947   1.943   0.713 -0.7036 -0.8397  0.9844
 4727TIP3   OH235595   6.181   0.611  11.087 -0.3937 -0.5610  0.1838
 4727TIP3    H135596   6.097   0.571  11.110 -0.0827 -0.4959  1.5414
 4727TIP3    H235597   6.171   0.703  11.110 -0.0525 -0.4908  0.0611
 4728TIP3   OH235598   6.315   5.870  13.936 -0.0900 -0.0613  0.2644
 4728TIP3    H135599   6.356   5.784  13.935  2.1535  0.9445  0.0655
 4728TIP3    H235600   6.363   5.919  14.002 -0.7515  1.3079 -0.2184
 4729TIP3   OH235601   2.827   0.550  12.081  0.2671  0.1225 -0.1068
 4729TIP3    H135602   2.763   0.535  12.150  0.2383 -0.1015 -0.1816
 4729TIP3    H235603   2.842   0.644  12.082 -1.6121  0.4790 -1.4680
 4730TIP3   OH235604   1.747   6.518   5.116 -0.0340  0.2334 -0.5273
 4730TIP3    H135605   1.679   6.483   5.058 -1.2303 -0.2707  1.0950
 4730TIP3    H235606   1.829   6.497   5.072 -0.8891 -0.2264 -1.9741
 4731TIP3   OH235607   1.633   4.607   4.037 -0.0546  0.4938 -0.2246
 4731TIP3    H135608   1.680   4.611   3.953 -1.4985  1.6113 -1.0199
 4731TIP3    H235609   1.628   4.514   4.057  0.5292  0.2249 -1.2479
 4732TIP3   OH235610   0.896   4.039  16.653  0.5171  0.7869 -0.3956
 4732TIP3    H135611   0.906   4.107  16.720 -1.4135  0.6558  0.1112
 4732TIP3    H235612   0.816   3.992  16.679  1.6898 -1.6026 -0.8054
 4733TIP3   OH235613   2.718   6.356   4.767 -0.8874  0.4420 -0.3827
 4733TIP3    H135614   2.714   6.302   4.688  1.3492  1.2439 -1.1178
 4733TIP3    H235615   2.674   6.438   4.742  0.8819  1.1780 -1.2965
 4734TIP3   OH235616   2.566   6.425   3.265 -0.1865 -0.0233 -0.6296
 4734TIP3    H135617   2.637   6.472   3.221  1.0786 -2.3373 -1.2841
 4734TIP3    H235618   2.488   6.444   3.214  0.6440 -0.0653 -1.9627
 4735TIP3   OH235619   5.226   1.556  11.735  0.6791 -0.3838 -0.2288
 4735TIP3    H135620   5.288   1.484  11.738 -0.7904 -1.6834  1.4520
 4735TIP3    H235621   5.241   1.605  11.816 -0.9432 -1.2042  0.6276
 4736TIP3   OH235622   0.906   5.167  16.191 -0.5446 -0.3549  0.6034
 4736TIP3    H135623   0.880   5.081  16.158  0.5795 -0.4197 -0.1694
 4736TIP3    H235624   0.931   5.150  16.282 -3.2581 -0.2512  1.4555
 4737TIP3   OH235625   3.524   2.839  14.458 -0.2867  1.0087  0.5684
 4737TIP3    H135626   3.471   2.873  14.387  0.7696 -0.1628 -0.8440
 4737TIP3    H235627   3.463   2.787  14.511 -0.9321  1.2687  0.0875
 4738TIP3   OH235628   2.180   0.879   6.213  0.0194  0.4874  0.1453
 4738TIP3    H135629   2.222   0.857   6.297  1.5302 -0.1883 -0.7348
 4738TIP3    H235630   2.160   0.972   6.219 -1.5613  0.0966  1.9246
 4739TIP3   OH235631   2.449   3.440   5.186 -0.4215  0.3229  0.0786
 4739TIP3    H135632   2.506   3.474   5.254  0.0207 -0.5982  0.1751
 4739TIP3    H235633   2.427   3.517   5.133 -1.0751  1.1226  1.4590
 4740TIP3   OH235634   2.737   5.004   5.429  0.0412 -0.0567 -0.5277
 4740TIP3    H135635   2.771   5.019   5.341 -2.2588 -1.4228 -1.7685
 4740TIP3    H235636   2.701   5.088   5.456  1.5197  0.5897 -0.4879
 4741TIP3   OH235637   6.203   2.146   0.346  0.1440  0.1283 -0.4477
 4741TIP3    H135638   6.271   2.199   0.304  0.8097 -0.5609 -0.2758
 4741TIP3    H235639   6.178   2.082   0.279 -0.8107  0.7806 -0.7294
 4742TIP3   OH235640   0.925   1.908   3.607  0.5243 -0.2256  0.5910
 4742TIP3    H135641   0.842   1.871   3.578  0.5418 -2.0325  2.5780
 4742TIP3    H235642   0.902   1.966   3.679  0.9920 -1.2045  1.5564
 4743TIP3   OH235643   2.227   4.463   4.432  0.0060 -0.5318 -0.1455
 4743TIP3    H135644   2.252   4.371   4.439 -2.4070 -1.1504  3.9450
 4743TIP3    H235645   2.131   4.462   4.436 -0.2007  2.1487 -1.8460
 4744TIP3   OH235646   2.833   5.945  16.257 -0.1799 -0.6445  0.0972
 4744TIP3    H135647   2.898   5.926  16.325 -0.5245 -1.4182  0.2166
 4744TIP3    H235648   2.749   5.922  16.297 -0.3991 -0.9823 -0.5509
 4745TIP3   OH235649   0.589   5.848  16.079  0.2972  0.3792  0.7478
 4745TIP3    H135650   0.678   5.820  16.059 -0.1874 -0.8149  0.1384
 4745TIP3    H235651   0.596   5.941  16.100  0.9801  1.7965 -4.5445
 4746TIP3   OH235652   3.705   5.123   2.742  0.0067  0.0397 -0.2594
 4746TIP3    H135653   3.733   5.212   2.720 -1.7900  0.6489 -0.2537
 4746TIP3    H235654   3.752   5.067   2.682 -0.1710  1.1618 -1.4910
 4747TIP3   OH235655   6.534   3.460  17.123 -0.1645 -0.7485 -0.2565
 4747TIP3    H135656   6.580   3.397  17.179 -0.0745 -1.2607 -0.8929
 4747TIP3    H235657   6.456   3.413  17.093 -2.2987  0.7851  2.4744
 4748TIP3   OH235658   6.215   0.870  12.722  0.0015  0.4263 -0.0649
 4748TIP3    H135659   6.203   0.788  12.673 -0.7706 -0.0522  0.8863
 4748TIP3    H235660   6.302   0.863  12.759 -0.2083 -0.1527  0.3342
 4749TIP3   OH235661   2.735   0.551   2.714  0.2328 -0.4270  0.4224
 4749TIP3    H135662   2.645   0.521   2.724 -0.1261  0.2575 -0.5384
 4749TIP3    H235663   2.743   0.625   2.774 -0.3907  0.5962 -0.7288
 4750TIP3   OH235664   0.055   4.191   4.956  0.5802  0.0266  0.4298
 4750TIP3    H135665   0.023   4.277   4.929  2.3320 -0.4061 -3.9326
 4750TIP3    H235666  -0.024   4.141   4.978 -0.8189  1.7267 -0.5155
 4751TIP3   OH235667   2.870   2.803   1.345  0.6035  0.1927 -0.3418
 4751TIP3    H135668   2.828   2.770   1.425  0.2462  0.8760 -0.2408
 4751TIP3    H235669   2.911   2.885   1.372  0.7542  0.2652 -0.7881
 4752TIP3   OH235670   5.604   0.831   3.510 -0.0709  0.3904 -0.1366
 4752TIP3    H135671   5.610   0.852   3.417 -0.0663 -2.7274 -0.9496
 4752TIP3    H235672   5.685   0.783   3.529  0.4112  1.8396  1.7851
 4753TIP3   OH235673   2.566   2.116   1.298  0.0974  0.9380  0.0588
 4753TIP3    H135674   2.606   2.187   1.248 -0.0357  1.3057  0.4701
 4753TIP3    H235675   2.629   2.097   1.368  1.9290 -1.8597 -2.1102
 4754TIP3   OH235676   4.793   2.941  10.690  0.7550  0.1875  0.1140
 4754TIP3    H135677   4.720   2.895  10.648  0.1977 -0.1131  1.3593
 4754TIP3    H235678   4.842   2.980  10.617  1.3209 -2.4237 -1.0459
 4755TIP3   OH235679   0.249   4.811   3.180  0.3125  0.0368  0.2479
 4755TIP3    H135680   0.299   4.731   3.199  1.7695  0.4135 -1.7139
 4755TIP3    H235681   0.296   4.881   3.226 -0.7177 -0.1056  1.6055
 4756TIP3   OH235682   0.503   5.267   4.039  0.3426 -0.0851 -0.3068
 4756TIP3    H135683   0.492   5.351   4.084 -1.5844 -0.6865  0.4472
 4756TIP3    H235684   0.532   5.290   3.951  0.3175  1.3356  0.0346
 4757TIP3   OH235685   5.023   4.126  11.001 -0.2131  0.3624 -0.9415
 4757TIP3    H135686   4.998   4.160  11.088  0.2651 -0.7736 -0.3434
 4757TIP3    H235687   5.082   4.193  10.966  0.2492  0.4418 -0.0344
 4758TIP3   OH235688   4.981   3.716  15.008  0.2349  0.1871 -0.1528
 4758TIP3    H135689   5.012   3.673  14.929  2.0944  1.1538 -0.0128
 4758TIP3    H235690   5.059   3.757  15.046 -0.7953  0.6795  1.5957
 4759TIP3   OH235691   6.375   4.282   1.463 -0.2478  0.2380  0.6383
 4759TIP3    H135692   6.449   4.221   1.453 -0.0932  0.5914 -0.5355
 4759TIP3    H235693   6.298   4.226   1.468  0.1293 -0.1910  2.8475
 4760TIP3   OH235694   0.150   0.795   1.508 -0.0213  0.3223 -0.1639
 4760TIP3    H135695   0.217   0.729   1.489 -0.3551  0.0203 -0.3070
 4760TIP3    H235696   0.089   0.789   1.435 -1.4325 -0.9910  1.0430
 4761TIP3   OH235697   2.625   3.466  16.898 -0.3866  0.3949  0.0416
 4761TIP3    H135698   2.638   3.471  16.803 -0.3408  1.4143  0.0984
 4761TIP3    H235699   2.631   3.556  16.928  0.7431 -0.0238  1.1695
 4762TIP3   OH235700   2.462   2.840   0.758  0.1713 -0.0847  0.1910
 4762TIP3    H135701   2.452   2.750   0.727  0.7746  0.5293 -1.8890
 4762TIP3    H235702   2.373   2.866   0.785 -0.5728 -0.4073 -1.8150
 4763TIP3   OH235703   4.218   1.454   2.156  0.5619 -0.1235 -0.2992
 4763TIP3    H135704   4.136   1.494   2.185 -0.0768 -0.0046 -2.0812
 4763TIP3    H235705   4.274   1.452   2.233 -0.3160  1.8562  0.4529
 4764TIP3   OH235706   5.975   1.972   1.365 -0.1039  0.3156 -0.3155
 4764TIP3    H135707   6.007   1.888   1.331 -0.4711 -0.2706  0.7293
 4764TIP3    H235708   6.055   2.023   1.380  0.3285 -0.7566  1.2963
 4765TIP3   OH235709   1.257   5.991   4.378  0.3096  0.6314  0.4396
 4765TIP3    H135710   1.238   5.921   4.315 -0.6431  0.6277  0.7156
 4765TIP3    H235711   1.307   5.949   4.448 -1.2802 -0.0585  1.1976
 4766TIP3   OH235712   4.997   2.466  15.559 -0.2186  0.1272  0.0797
 4766TIP3    H135713   4.919   2.427  15.597 -1.4803  2.4900  0.0861
 4766TIP3    H235714   4.965   2.522  15.489  1.5897  0.3276 -0.6666
 4767TIP3   OH235715   4.479   6.673   5.267  0.1056  0.3600  0.2916
 4767TIP3    H135716   4.568   6.639   5.273 -0.2330 -0.4928  0.7184
 4767TIP3    H235717   4.487   6.753   5.215  1.2371  0.7641  1.0515
 4768TIP3   OH235718   0.901   4.184   4.256 -0.4203 -0.3736 -0.3341
 4768TIP3    H135719   0.891   4.226   4.341 -0.8251  0.1334 -0.6232
 4768TIP3    H235720   0.983   4.219   4.221  0.0750 -1.0723  0.1156
 4769TIP3   OH235721   5.288   3.846   3.006 -0.1593  0.1765 -0.8987
 4769TIP3    H135722   5.304   3.754   2.986  1.7740  0.5917 -1.5196
 4769TIP3    H235723   5.228   3.845   3.080  0.4635 -1.5919 -0.3655
 4770TIP3   OH235724   4.938   4.171  14.258  0.6204 -0.3058 -0.4132
 4770TIP3    H135725   4.979   4.088  14.281  1.3141  0.4726  1.2748
 4770TIP3    H235726   5.005   4.219  14.210  1.4723  0.5990  1.5596
 4771TIP3   OH235727   2.074   1.577  11.868 -0.5164 -0.6215 -0.0005
 4771TIP3    H135728   2.148   1.539  11.821 -0.1134 -1.0362  0.9540
 4771TIP3    H235729   2.045   1.650  11.812  0.1801 -0.8699 -0.7039
 4772TIP3   OH235730   4.593   6.355   4.488  0.2925 -0.0085  0.0035
 4772TIP3    H135731   4.513   6.382   4.534 -0.0272  0.5073 -0.8208
 4772TIP3    H235732   4.578   6.263   4.466  0.2949 -0.1539  0.6083
 4773TIP3   OH235733   0.490   4.538   4.099  0.6294 -0.0062  0.0230
 4773TIP3    H135734   0.486   4.493   4.184  0.7704 -0.2257 -0.0866
 4773TIP3    H235735   0.445   4.478   4.039  2.2316 -0.7587 -0.4579
 4774TIP3   OH235736   4.818   5.809  13.734  0.5720  0.2035  0.7745
 4774TIP3    H135737   4.801   5.737  13.674 -0.2946  1.9346 -1.2044
 4774TIP3    H235738   4.853   5.768  13.813  0.9285 -2.2682 -0.5832
 4775TIP3   OH235739   0.950   0.155  12.508  0.1244  0.5846 -0.2667
 4775TIP3    H135740   0.914   0.067  12.500 -0.1684  0.7756 -1.2568
 4775TIP3    H235741   1.018   0.148  12.575 -0.0654 -0.3335 -0.1598
 4776TIP3   OH235742   4.693   3.810   4.992  0.0093  0.0684  0.2512
 4776TIP3    H135743   4.634   3.792   5.065  0.4724 -0.0531  0.6056
 4776TIP3    H235744   4.637   3.843   4.923 -0.4510  0.1030  0.6362
 4777TIP3   OH235745   3.137   6.357  16.034 -0.4841 -0.4810  0.1963
 4777TIP3    H135746   3.073   6.414  15.992  1.2015 -0.5602 -2.7077
 4777TIP3    H235747   3.144   6.281  15.976  0.1386 -1.8576  1.9706
 4778TIP3   OH235748   5.529   1.715   0.195 -0.0673  0.0040  0.0240
 4778TIP3    H135749   5.519   1.787   0.258  0.2459 -0.3141  0.4436
 4778TIP3    H235750   5.490   1.749   0.114  1.9211  1.4464 -0.4011
 4779TIP3   OH235751   3.065   0.940  14.821 -0.3350 -0.0136  0.3645
 4779TIP3    H135752   3.020   1.018  14.787 -0.3621  0.7482  2.0259
 4779TIP3    H235753   3.141   0.929  14.764 -0.8576  0.6421 -0.4920
 4780TIP3   OH235754   1.863   2.373  14.980  0.3954 -0.3630  0.1663
 4780TIP3    H135755   1.890   2.422  15.057 -1.7737  0.0855  0.7164
 4780TIP3    H235756   1.866   2.437  14.909 -1.8564  0.4945  0.7688
 4781TIP3   OH235757   5.561   6.373   5.803 -0.3076  0.5024 -0.3755
 4781TIP3    H135758   5.581   6.284   5.831 -0.8381  0.1998 -0.9510
 4781TIP3    H235759   5.617   6.387   5.726 -1.5933 -0.0178 -1.4326
 4782TIP3   OH235760   5.954   3.507  13.163  0.3349 -0.3142 -0.5672
 4782TIP3    H135761   6.018   3.451  13.208  0.0598  0.5389  0.9414
 4782TIP3    H235762   5.938   3.579  13.224 -0.8494  0.3430 -1.6159
 4783TIP3   OH235763   5.548   5.084  16.819 -0.1650 -0.1686 -0.9759
 4783TIP3    H135764   5.488   5.017  16.785 -0.1574 -1.4888  1.3886
 4783TIP3    H235765   5.496   5.132  16.883  0.6070  0.3218 -0.7096
 4784TIP3   OH235766   3.585   0.366  14.931  0.1771 -0.0662 -0.4581
 4784TIP3    H135767   3.522   0.295  14.916 -0.2030  0.3020 -0.6426
 4784TIP3    H235768   3.559   0.434  14.868  0.5426  0.2283 -0.2904
 4785TIP3   OH235769   3.698   5.266  13.591 -0.3007  0.7292 -0.6417
 4785TIP3    H135770   3.714   5.172  13.581 -1.5458  0.3469  0.5599
 4785TIP3    H235771   3.786   5.305  13.598  0.2385 -0.6988  1.4868
 4786TIP3   OH235772   3.836   6.182   1.727 -0.0834 -0.3080  0.7159
 4786TIP3    H135773   3.893   6.121   1.682  0.2173  0.1924  0.4090
 4786TIP3    H235774   3.882   6.266   1.723 -1.7738  0.6300 -1.4727
 4787TIP3   OH235775   6.069   0.683  14.032 -0.4131 -0.3152 -0.4258
 4787TIP3    H135776   6.085   0.755  13.971  0.8552  0.4768  0.8028
 4787TIP3    H235777   6.148   0.629  14.028 -1.2122 -1.4892 -1.0807
 4788TIP3   OH235778   4.441   6.728   4.832  0.2334  0.0712  0.2113
 4788TIP3    H135779   4.461   6.782   4.909 -1.0214 -0.3001  0.8289
 4788TIP3    H235780   4.350   6.701   4.845 -0.0910  0.2004 -1.5438
 4789TIP3   OH235781   4.902   4.788  16.854 -0.2942  0.1258 -0.5599
 4789TIP3    H135782   4.863   4.816  16.771  0.5238  0.4862 -0.8250
 4789TIP3    H235783   4.829   4.746  16.901 -0.6791 -0.4307 -1.6087
 4790TIP3   OH235784   5.309   4.259  12.645  1.0071  0.5816 -0.0692
 4790TIP3    H135785   5.390   4.209  12.633  0.2035 -0.4708 -1.4543
 4790TIP3    H235786   5.278   4.276  12.556 -0.3781  0.8138  0.4371
 4791TIP3   OH235787   3.485   1.308  13.944  0.2096 -0.3602  0.1570
 4791TIP3    H135788   3.481   1.404  13.943  0.2360 -0.3586  0.2013
 4791TIP3    H235789   3.445   1.282  13.861  1.8281 -0.2545 -0.7068
 4792TIP3   OH235790   6.650   5.804   3.596 -0.6434 -0.0652 -0.0773
 4792TIP3    H135791   6.615   5.884   3.636  1.4518  0.2270  1.3804
 4792TIP3    H235792   6.599   5.733   3.635 -1.8329  0.4907 -0.5922
 4793TIP3   OH235793   3.202   3.607   3.261 -0.3149  0.1355 -0.1080
 4793TIP3    H135794   3.171   3.549   3.191  0.2872 -0.1692 -0.1347
 4793TIP3    H235795   3.129   3.665   3.279 -0.7824 -0.3611 -0.3815
 4794TIP3   OH235796   2.441   0.877  13.543  0.0095 -0.3898 -0.2537
 4794TIP3    H135797   2.526   0.868  13.588 -1.1559 -1.5121  1.8814
 4794TIP3    H235798   2.394   0.942  13.595 -0.9111 -0.7350 -0.6476
 4795TIP3   OH235799   5.154   2.922   4.535  0.0085 -0.0878  0.5484
 4795TIP3    H135800   5.190   2.867   4.465 -0.8795  3.0088 -2.6116
 4795TIP3    H235801   5.060   2.912   4.527 -0.1861  2.1619 -0.4317
 4796TIP3   OH235802   0.890   1.802   0.566 -0.4037 -0.2810  0.3712
 4796TIP3    H135803   0.940   1.865   0.617  0.9748  0.9322 -2.2653
 4796TIP3    H235804   0.928   1.717   0.588 -1.4090 -0.1442  2.9857
 4797TIP3   OH235805   5.142   6.151  16.679 -0.3605  0.5802 -0.1176
 4797TIP3    H135806   5.167   6.243  16.680 -3.3103  1.5601 -2.3782
 4797TIP3    H235807   5.192   6.113  16.608  0.1309  0.6777  0.1754
 4798TIP3   OH235808   4.312   6.141   3.047  0.2980 -0.2003 -0.3034
 4798TIP3    H135809   4.362   6.204   2.994  0.7301 -0.0262  0.3068
 4798TIP3    H235810   4.333   6.163   3.137  1.5679 -2.1216 -0.0875
 4799TIP3   OH235811   6.056   5.624  11.072  0.9384 -0.1265  0.1221
 4799TIP3    H135812   6.067   5.530  11.087 -1.3698 -0.2657  1.3229
 4799TIP3    H235813   5.992   5.630  11.001  1.8433  0.5861 -0.6705
 4800TIP3   OH235814   1.994   3.937   5.097  0.5442 -0.0163 -0.1163
 4800TIP3    H135815   2.058   4.004   5.072 -0.0221 -0.3859 -2.8375
 4800TIP3    H235816   1.956   3.970   5.179  2.0761  1.6935 -0.0325
 4801TIP3   OH235817   2.869   2.788   5.215 -0.0772  0.3689  0.6824
 4801TIP3    H135818   2.825   2.801   5.131  1.1693  1.1411  0.1205
 4801TIP3    H235819   2.799   2.792   5.280 -0.8581  1.3867 -0.1931
 4802TIP3   OH235820   0.136   5.367   1.175 -0.0231 -0.2354 -0.0977
 4802TIP3    H135821   0.047   5.395   1.196  0.0645 -0.9540  1.3450
 4802TIP3    H235822   0.145   5.385   1.081 -1.8696 -0.6397 -0.3983
 4803TIP3   OH235823   1.664   0.414   2.689 -0.9283 -0.5391 -0.7474
 4803TIP3    H135824   1.662   0.410   2.785 -2.0912 -2.0368 -0.8025
 4803TIP3    H235825   1.687   0.326   2.662 -1.2945 -0.3033 -1.8689
 4804TIP3   OH235826   3.045   5.165   3.094  0.1992  0.3661  0.2214
 4804TIP3    H135827   3.063   5.111   3.171 -0.6557  0.0199  0.1864
 4804TIP3    H235828   3.120   5.150   3.037  0.3521 -0.1594  0.5539
 4805TIP3   OH235829   2.305   2.808   4.946 -0.7263 -0.6530  0.0085
 4805TIP3    H135830   2.306   2.808   4.850 -0.3966 -2.2639 -0.0095
 4805TIP3    H235831   2.397   2.801   4.971 -0.9099 -1.7153  0.4200
 4806TIP3   OH235832   4.961   1.063   2.382  0.4081 -0.3605 -0.3354
 4806TIP3    H135833   5.000   0.997   2.324  0.3616 -0.8168  0.1450
 4806TIP3    H235834   4.969   1.145   2.334 -0.0964 -0.8107 -1.2157
 4807TIP3   OH235835   6.145   4.326  12.805  0.1778  0.1958  0.3689
 4807TIP3    H135836   6.235   4.353  12.785  1.3413 -2.1594  1.9784
 4807TIP3    H235837   6.143   4.318  12.900 -1.4027 -0.9178  0.2745
 4808TIP3   OH235838   2.974   1.255  11.769 -0.5336 -0.0040  1.0851
 4808TIP3    H135839   2.897   1.299  11.804  0.9826  2.4446  1.6102
 4808TIP3    H235840   3.011   1.317  11.706  0.6007 -1.4199  0.2806
 4809TIP3   OH235841   0.814   3.808  11.414  1.1238  0.7828 -0.0467
 4809TIP3    H135842   0.743   3.801  11.350 -0.7816 -1.1248  2.0670
 4809TIP3    H235843   0.894   3.806  11.362 -0.3167  0.6109 -2.4064
 4810TIP3   OH235844   3.621   3.786  15.862 -0.1467 -0.1062  0.0552
 4810TIP3    H135845   3.567   3.826  15.930  0.9413  0.9897  0.3349
 4810TIP3    H235846   3.577   3.809  15.780 -1.2533 -1.0955  0.3550
 4811TIP3   OH235847   0.647   2.634  12.999 -0.2252  0.0105  0.1510
 4811TIP3    H135848   0.706   2.586  13.058  0.5565  0.0027 -0.6209
 4811TIP3    H235849   0.690   2.631  12.914 -1.5186 -0.2887 -0.5205
 4812TIP3   OH235850   5.814   5.809   2.203 -0.4893 -1.2116  0.0419
 4812TIP3    H135851   5.862   5.889   2.180 -2.0984 -0.5029 -1.0312
 4812TIP3    H235852   5.763   5.833   2.281 -0.5954 -1.3425  0.0139
 4813TIP3   OH235853   2.575   1.792  14.715 -0.7086  0.3137  0.0327
 4813TIP3    H135854   2.609   1.833  14.635 -0.7965 -0.2451 -0.2966
 4813TIP3    H235855   2.481   1.805  14.711 -0.7612 -0.1166 -0.1887
 4814TIP3   OH235856   0.318   4.805   5.577  0.5076 -0.2562 -0.2294
 4814TIP3    H135857   0.237   4.856   5.579  0.9562  0.4509  0.6247
 4814TIP3    H235858   0.290   4.716   5.552 -0.3425  0.2772 -1.2556
 4815TIP3   OH235859   3.075   0.476  11.350  0.2536 -0.2611 -1.3409
 4815TIP3    H135860   3.098   0.451  11.261 -1.0683 -2.3289 -1.1445
 4815TIP3    H235861   2.986   0.444  11.363  0.3417  0.1698  0.6727
 4816TIP3   OH235862   2.220   1.335  15.064 -0.2818  0.1935  0.4550
 4816TIP3    H135863   2.297   1.298  15.021 -1.0532  0.3127 -1.0761
 4816TIP3    H235864   2.146   1.286  15.028 -1.0055  0.6692  1.2559
 4817TIP3   OH235865   3.794   0.112  17.003  0.3303  0.1820  0.9394
 4817TIP3    H135866   3.796   0.186  16.942 -1.1042 -1.2167 -0.9084
 4817TIP3    H235867   3.862   0.133  17.068  2.6407  1.3460 -1.6237
 4818TIP3   OH235868   0.876   4.640  15.848  0.0120 -0.1276 -0.3079
 4818TIP3    H135869   0.905   4.634  15.757 -0.4525 -0.1172 -0.4598
 4818TIP3    H235870   0.837   4.727  15.855  2.4915  1.0152  0.6451
 4819TIP3   OH235871   5.421   2.031   4.537 -0.2061 -0.1809 -0.2400
 4819TIP3    H135872   5.413   2.115   4.583 -1.2694  0.3554 -1.3582
 4819TIP3    H235873   5.400   1.966   4.603  1.6622  0.3303  0.9360
 4820TIP3   OH235874   4.141   3.503   2.044 -0.1968 -0.0462  0.3765
 4820TIP3    H135875   4.154   3.596   2.058  0.6394  0.0640 -0.9518
 4820TIP3    H235876   4.222   3.462   2.074  0.4096 -0.0798 -1.1912
 4821TIP3   OH235877   1.450   2.850  11.994 -0.2519  0.3394 -0.8311
 4821TIP3    H135878   1.369   2.798  11.995 -0.4867  0.6831  0.7888
 4821TIP3    H235879   1.477   2.854  12.085  1.1102  1.0143 -1.2403
 4822TIP3   OH235880   5.960   4.157  13.769 -0.4391  0.1135  0.3370
 4822TIP3    H135881   5.893   4.180  13.704  1.0000 -0.9976 -1.6681
 4822TIP3    H235882   5.979   4.239  13.814 -2.2841  0.7001  0.1574
 4823TIP3   OH235883   0.626   2.196   2.979  0.0489  0.3646  0.1072
 4823TIP3    H135884   0.704   2.140   2.985 -2.1563 -2.8406  1.6333
 4823TIP3    H235885   0.633   2.253   3.055  1.3621  0.8655 -0.3490
 4824TIP3   OH235886   5.833   2.994   5.199  0.2068  0.1234 -0.2934
 4824TIP3    H135887   5.883   3.032   5.272  1.1151  0.1458 -0.9013
 4824TIP3    H235888   5.767   2.940   5.241  0.1469  0.8325  0.5620
 4825TIP3   OH235889   3.400   5.108  11.728  0.0091 -0.1541 -0.1166
 4825TIP3    H135890   3.355   5.146  11.653 -1.0537  1.1132  1.1233
 4825TIP3    H235891   3.447   5.181  11.768  2.2210 -1.1873 -0.6357
 4826TIP3   OH235892   0.230   0.709  17.350 -0.3577  0.2631 -0.1108
 4826TIP3    H135893   0.271   0.671  17.273  0.6369 -1.8114  1.3540
 4826TIP3    H235894   0.284   0.785  17.370  1.3285 -0.9819  0.3113
 4827TIP3   OH235895   6.432   4.154   4.312  0.1930 -0.0267  0.2862
 4827TIP3    H135896   6.341   4.183   4.318  0.3187  0.2639  0.8064
 4827TIP3    H235897   6.453   4.161   4.219  0.3673  2.0593  0.4395
 4828TIP3   OH235898   0.714   3.165  12.696  0.8143 -0.2739  0.7489
 4828TIP3    H135899   0.710   3.139  12.604  1.4873  0.9249  0.3611
 4828TIP3    H235900   0.807   3.177  12.713  0.7843 -1.4815  1.8973
 4829TIP3   OH235901   4.196   1.506  11.070  0.1545 -0.9538  0.1946
 4829TIP3    H135902   4.273   1.544  11.112  0.8086  1.9748 -3.1451
 4829TIP3    H235903   4.122   1.546  11.114  0.7703  1.1223 -0.5465
 4830TIP3   OH235904   0.849   5.982   4.296 -0.5071 -0.2822 -0.4362
 4830TIP3    H135905   0.794   6.050   4.334  1.5332  1.1439  0.1002
 4830TIP3    H235906   0.869   6.013   4.208 -0.2176 -0.5864 -0.4799
 4831TIP3   OH235907   5.221   3.720  11.382 -0.6435  0.4826  0.0770
 4831TIP3    H135908   5.127   3.727  11.402 -0.3742  0.1288  1.6077
 4831TIP3    H235909   5.226   3.732  11.287 -2.3091 -0.1255 -0.1352
 4832TIP3   OH235910   2.812   3.561   0.731 -0.2210  0.0613  0.6985
 4832TIP3    H135911   2.802   3.582   0.638  1.4016 -0.8999  0.2661
 4832TIP3    H235912   2.786   3.469   0.738 -0.0687  0.0479  1.1423
 4833TIP3   OH235913   1.199   2.176   5.624  0.7898  0.0322 -0.0767
 4833TIP3    H135914   1.144   2.100   5.642 -0.7633  0.9136 -0.9280
 4833TIP3    H235915   1.271   2.168   5.687 -0.0791 -1.3722  0.8038
 4834TIP3   OH235916   6.023   4.515   0.872 -0.0874 -0.2975 -0.5215
 4834TIP3    H135917   5.932   4.499   0.895  0.2332  0.0280  1.1316
 4834TIP3    H235918   6.034   4.474   0.786 -1.8939  0.0726 -0.9677
 4835TIP3   OH235919   5.201   6.526   5.017  0.4571 -0.0174  0.1011
 4835TIP3    H135920   5.232   6.575   5.093  2.0314  0.0610 -0.5493
 4835TIP3    H235921   5.194   6.436   5.047  0.2185  0.1469  0.5553
 4836TIP3   OH235922   5.388   6.581   0.989  0.2631  0.3342  0.5617
 4836TIP3    H135923   5.406   6.606   0.899 -0.5849  0.1490  0.3347
 4836TIP3    H235924   5.411   6.488   0.994  0.9426  0.5034  0.7217
 4837TIP3   OH235925   4.422   1.593   6.110 -0.0559 -0.4456 -0.4122
 4837TIP3    H135926   4.393   1.611   6.200 -1.7962 -1.9132 -0.6170
 4837TIP3    H235927   4.517   1.602   6.113 -0.1269  0.0626  1.4468
 4838TIP3   OH235928   2.212   1.218   4.260 -0.4655  0.5649 -1.0028
 4838TIP3    H135929   2.240   1.274   4.187 -0.8674 -0.8495 -2.3029
 4838TIP3    H235930   2.125   1.187   4.234 -0.7308  0.2288  0.2109
 4839TIP3   OH235931   4.901   0.071  16.747  0.2306 -0.4805 -0.5149
 4839TIP3    H135932   4.936  -0.016  16.728  0.9161 -0.2918 -0.1456
 4839TIP3    H235933   4.945   0.129  16.684  2.2129  0.0842  1.2732
 4840TIP3   OH235934   6.423   2.305  16.594  0.1904  0.1705 -0.7534
 4840TIP3    H135935   6.337   2.269  16.570  0.6106 -1.1945 -0.2831
 4840TIP3    H235936   6.484   2.233  16.579  1.1215  0.8105 -0.1228
 4841TIP3   OH235937   5.010   1.802  14.133  0.2767  0.3648 -0.1272
 4841TIP3    H135938   4.997   1.799  14.228 -0.3196 -2.0850 -0.2163
 4841TIP3    H235939   5.096   1.761  14.120  0.8435  1.6469 -0.6216
 4842TIP3   OH235940   3.919   3.567   1.261  0.3962  0.0042 -0.0495
 4842TIP3    H135941   3.890   3.622   1.334  1.9111  1.4784 -0.4853
 4842TIP3    H235942   4.010   3.546   1.283  0.5217 -0.4588 -0.9905
 4843TIP3   OH235943   4.092   5.274   3.179  0.7143 -0.3277 -0.5200
 4843TIP3    H135944   4.024   5.249   3.117  1.0273 -2.4083 -0.0814
 4843TIP3    H235945   4.167   5.298   3.125  1.4280 -3.3526 -1.0565
 4844TIP3   OH235946   0.943   0.365   2.383 -0.0404 -0.0100  0.6127
 4844TIP3    H135947   0.881   0.424   2.341  0.4551  0.4244  0.4739
 4844TIP3    H235948   1.024   0.416   2.389  0.5226 -0.8109  0.1188
 4845TIP3   OH235949   4.789   0.923   5.542  0.1511 -1.0348  0.2765
 4845TIP3    H135950   4.830   0.893   5.624 -2.9860 -1.2090  1.9523
 4845TIP3    H235951   4.782   1.018   5.553  0.8994 -0.9008 -0.3963
 4846TIP3   OH235952   2.068   4.419  16.493 -0.1657 -0.0078  0.8081
 4846TIP3    H135953   2.033   4.409  16.405  0.9354 -0.4719  0.4150
 4846TIP3    H235954   2.114   4.337  16.511 -0.7681 -0.1128  2.0040
 4847TIP3   OH235955   6.250   4.752   6.616  0.6945 -0.1259 -0.3749
 4847TIP3    H135956   6.176   4.714   6.569  0.9814  0.5500 -1.4169
 4847TIP3    H235957   6.263   4.837   6.575  1.2555  0.2974  0.6476
 4848TIP3   OH235958   1.276   0.436   2.086  0.3577 -0.8167 -0.1305
 4848TIP3    H135959   1.296   0.511   2.141 -0.8999 -0.9719  0.5897
 4848TIP3    H235960   1.229   0.473   2.011 -0.9615 -0.9218  0.6069
 4849TIP3   OH235961   3.795   4.559   0.250 -0.0274  0.5338  0.0433
 4849TIP3    H135962   3.847   4.531   0.326  0.7697  1.0503 -0.2953
 4849TIP3    H235963   3.793   4.655   0.256  1.4542  0.7135 -1.4533
 4850TIP3   OH235964   0.087   0.871  16.863  0.2173 -0.1646 -0.5645
 4850TIP3    H135965  -0.005   0.879  16.891 -0.2158 -0.8253 -1.7422
 4850TIP3    H235966   0.085   0.886  16.769  1.4161  0.3327 -0.5349
 4851TIP3   OH235967   6.728   6.221   5.292  0.0347  0.6905 -0.3931
 4851TIP3    H135968   6.689   6.275   5.223 -0.9622 -0.4290 -0.7361
 4851TIP3    H235969   6.695   6.258   5.374 -1.8181 -0.2545 -0.6825
 4852TIP3   OH235970   3.251   4.851   0.149 -0.3555  0.1950  0.4507
 4852TIP3    H135971   3.258   4.927   0.091 -0.1102  0.0268  0.2599
 4852TIP3    H235972   3.339   4.840   0.184 -0.2343 -0.4236 -0.0494
 4853TIP3   OH235973   4.881   5.619   3.811  0.1674 -0.6379  0.0373
 4853TIP3    H135974   4.850   5.649   3.726  0.5337 -0.5863 -0.0831
 4853TIP3    H235975   4.885   5.523   3.802  2.1624 -0.5414 -0.7250
 4854TIP3   OH235976   6.716   4.703   2.239 -0.3418 -0.7414 -0.7235
 4854TIP3    H135977   6.774   4.765   2.283 -0.6054  0.0502 -1.4718
 4854TIP3    H235978   6.702   4.634   2.303 -0.2799  0.1174  0.2315
 4855TIP3   OH235979   1.641   5.173   5.079 -0.3929 -0.2248  0.4420
 4855TIP3    H135980   1.570   5.236   5.089 -0.5843 -0.3203 -0.2552
 4855TIP3    H235981   1.692   5.206   5.005  0.3313 -0.1271  0.9634
 4856TIP3   OH235982   4.911   5.914   4.836 -0.0613  0.2569  0.0593
 4856TIP3    H135983   4.933   5.998   4.796 -1.5584  0.2390 -0.8759
 4856TIP3    H235984   4.848   5.936   4.905 -0.3026 -0.0664 -0.0534
 4857TIP3   OH235985   2.317   4.954   0.704 -0.0476 -0.3952  0.6381
 4857TIP3    H135986   2.355   4.866   0.697 -1.5062 -1.1237  1.3253
 4857TIP3    H235987   2.387   5.007   0.743  1.6553 -0.6488 -1.8806
 4858TIP3   OH235988   1.811   5.345  12.028  0.2899  0.2388  0.3232
 4858TIP3    H135989   1.881   5.410  12.025  1.0494 -0.4573  1.8077
 4858TIP3    H235990   1.857   5.261  12.027 -0.6971 -0.3575 -2.4519
 4859TIP3   OH235991   2.834   5.386  12.448  0.4624 -0.6764 -0.6636
 4859TIP3    H135992   2.848   5.292  12.455  0.6268 -0.6020  0.2175
 4859TIP3    H235993   2.811   5.413  12.537  0.8608  0.1823 -0.8098
 4860TIP3   OH235994   1.538   3.282   0.175 -0.3093  0.5024 -0.0532
 4860TIP3    H135995   1.589   3.203   0.158 -0.3172  0.3587  0.5981
 4860TIP3    H235996   1.545   3.332   0.093  0.3152  0.1788 -0.2036
 4861TIP3   OH235997   5.742   1.287   6.133 -0.1581  0.7527 -0.9911
 4861TIP3    H135998   5.803   1.278   6.206  0.0111 -1.7504 -1.3668
 4861TIP3    H235999   5.657   1.302   6.174  0.1595  0.7776 -0.3329
 4862TIP3   OH236000   3.737   2.833   1.000 -0.0785 -0.1346  0.0592
 4862TIP3    H136001   3.787   2.909   0.971  0.1040 -0.7750 -1.3899
 4862TIP3    H236002   3.689   2.864   1.078 -2.5149  2.4540 -2.2305
 4863TIP3   OH236003   2.256   5.755   4.285 -0.2693  0.0543 -0.4522
 4863TIP3    H136004   2.313   5.689   4.245  2.0470  1.1775  0.7870
 4863TIP3    H236005   2.237   5.720   4.372  3.0572  1.9241  1.2217
 4864TIP3   OH236006   4.336   5.261   5.192 -0.0318  0.8568 -0.2836
 4864TIP3    H136007   4.414   5.257   5.247 -0.0895 -0.1602 -0.2616
 4864TIP3    H236008   4.319   5.170   5.169 -0.2871  1.2229 -1.5934
 4865TIP3   OH236009   1.765   2.806   4.385 -0.1503 -0.0173 -0.1314
 4865TIP3    H136010   1.727   2.719   4.371  0.8625 -0.2053 -2.0043
 4865TIP3    H236011   1.852   2.789   4.420 -0.8080  0.3494  1.8007
 4866TIP3   OH236012   1.549   4.824  11.769 -0.2338  0.0544  0.5046
 4866TIP3    H136013   1.546   4.897  11.831 -2.3099  0.2406  0.2598
 4866TIP3    H236014   1.615   4.764  11.806  0.2405  1.2214  1.6401
 4867TIP3   OH236015   0.352   3.647   5.147  0.4196 -0.0519  0.3990
 4867TIP3    H136016   0.422   3.645   5.082 -0.2950  0.4439 -0.4077
 4867TIP3    H236017   0.288   3.583   5.116 -0.9770  1.7387 -0.6534
 4868TIP3   OH236018   6.474   4.924   4.315 -0.2085 -0.0772 -0.0731
 4868TIP3    H136019   6.499   4.928   4.223  1.1389 -1.0919  0.2068
 4868TIP3    H236020   6.388   4.883   4.315 -0.3455  0.1932 -0.8953
 4869TIP3   OH236021   6.680   5.972  16.887 -0.6126  0.3006 -0.7315
 4869TIP3    H136022   6.743   5.986  16.816  1.5922 -1.6424  0.6951
 4869TIP3    H236023   6.693   6.046  16.946  1.3707 -0.7329  0.2018
 4870TIP3   OH236024   2.334   3.880  11.520  0.0338 -0.1663  0.1603
 4870TIP3    H136025   2.427   3.888  11.544  0.8486 -1.1816 -2.3056
 4870TIP3    H236026   2.302   3.970  11.521  1.2734  0.3018  0.3111
 4871TIP3   OH236027   0.577   1.254   3.320 -0.2036 -0.7788  0.2387
 4871TIP3    H136028   0.612   1.227   3.235  0.5690  1.1781 -0.1050
 4871TIP3    H236029   0.483   1.235   3.314 -0.3376  0.2227 -1.4546
 4872TIP3   OH236030   2.236   4.150   6.299 -0.0552  0.1904  0.6774
 4872TIP3    H136031   2.248   4.095   6.222 -0.1785  0.6873  0.3011
 4872TIP3    H236032   2.306   4.216   6.293  0.4810 -0.2838  1.4511
 4873TIP3   OH236033   1.743   0.160   2.717 -0.2875 -0.1436 -0.4565
 4873TIP3    H136034   1.661   0.111   2.718 -1.2233  1.2026 -2.8482
 4873TIP3    H236035   1.772   0.160   2.808 -2.9658 -0.6128  0.4880
 4874TIP3   OH236036   4.307   1.273  11.956 -0.1522 -0.2193  0.5157
 4874TIP3    H136037   4.392   1.306  11.984  0.2002  0.7076 -1.5103
 4874TIP3    H236038   4.322   1.179  11.940  1.9097  0.6362 -4.3070
 4875TIP3   OH236039   2.518   5.172  11.585 -0.4811 -0.3106  0.5828
 4875TIP3    H136040   2.450   5.196  11.649 -0.9319 -0.3593  0.1306
 4875TIP3    H236041   2.596   5.156  11.638 -0.7231  0.1081  1.0803
 4876TIP3   OH236042   0.774   3.379  15.909  0.7812 -0.3640 -0.0427
 4876TIP3    H136043   0.846   3.371  15.846  2.7100  0.6222  1.8837
 4876TIP3    H236044   0.812   3.430  15.981 -2.1575  1.0021  0.6757
 4877TIP3   OH236045   1.941   3.227   4.355 -0.0391 -0.1366  0.0418
 4877TIP3    H136046   1.955   3.171   4.431  2.0442 -1.0540 -0.9394
 4877TIP3    H236047   2.029   3.259   4.332 -0.9222  2.0571 -0.5616
 4878TIP3   OH236048   3.638   3.625  13.125  0.2941  0.1507 -0.4305
 4878TIP3    H136049   3.715   3.599  13.176  0.9816  0.5723 -1.2162
 4878TIP3    H236050   3.660   3.599  13.035 -0.7846 -0.3586 -0.5625
 4879TIP3   OH236051   2.639   2.295   2.908 -0.1700  0.6379  0.1986
 4879TIP3    H136052   2.654   2.221   2.849 -0.6882  1.5535 -1.1486
 4879TIP3    H236053   2.694   2.365   2.873  0.3848  0.8793  1.5063
 4880TIP3   OH236054   3.241   1.092  10.808 -0.3518  0.1689  0.3664
 4880TIP3    H136055   3.162   1.122  10.763 -1.8320 -2.8095  0.7732
 4880TIP3    H236056   3.304   1.076  10.738 -0.6787  0.9306 -0.1152
 4881TIP3   OH236057   1.507   3.524   4.184 -0.3792 -0.2024 -0.5165
 4881TIP3    H136058   1.434   3.543   4.243  0.3099 -0.5904  0.4726
 4881TIP3    H236059   1.476   3.451   4.129 -0.9997  0.1281 -0.6075
 4882TIP3   OH236060   4.140   1.110  15.689 -0.3626  0.1976  0.8954
 4882TIP3    H136061   4.146   1.034  15.630  2.3624 -0.3844  1.7690
 4882TIP3    H236062   4.098   1.178  15.636  0.1392 -0.9103 -1.0306
 4883TIP3   OH236063   2.990   4.351   4.062 -0.0896 -0.4071 -0.0690
 4883TIP3    H136064   3.018   4.411   4.130 -2.8981  0.4359  0.4790
 4883TIP3    H236065   2.946   4.280   4.109 -1.8787  0.0789 -0.9122
 4884TIP3   OH236066   0.447   2.418   1.277  0.5370 -0.0609  0.2311
 4884TIP3    H136067   0.397   2.488   1.234  0.1466 -0.8112 -0.5802
 4884TIP3    H236068   0.395   2.396   1.355 -0.1037 -0.4160 -0.2822
 4885TIP3   OH236069   1.607   6.264   5.141  0.0564 -0.1101  0.1884
 4885TIP3    H136070   1.581   6.225   5.058  0.5329 -0.9688  0.4302
 4885TIP3    H236071   1.673   6.204   5.176 -1.0827 -0.4724  1.8048
 4886TIP3   OH236072   0.572   0.205  11.472 -0.4009  0.3336  0.1409
 4886TIP3    H136073   0.499   0.148  11.446  0.1071  0.4970 -1.7889
 4886TIP3    H236074   0.551   0.290  11.434  0.3019  0.6511  0.4508
 4887TIP3   OH236075   3.484   1.942   1.329 -0.5694  0.2975 -0.0002
 4887TIP3    H136076   3.479   2.038   1.338 -1.0172  0.2926 -0.1714
 4887TIP3    H236077   3.442   1.909   1.408 -1.2180  0.2448 -0.3673
 4888TIP3   OH236078   1.333   5.668  15.661 -0.4816 -0.4799  0.5650
 4888TIP3    H136079   1.297   5.755  15.642 -0.9563 -0.7980 -0.0305
 4888TIP3    H236080   1.344   5.628  15.575  0.6912 -0.6397  0.7787
 4889TIP3   OH236081   4.719   1.387   3.817  0.1059 -0.4316  0.3584
 4889TIP3    H136082   4.671   1.433   3.886  1.0727  2.8485 -0.9455
 4889TIP3    H236083   4.653   1.368   3.750  0.1847  2.7202 -0.7747
 4890TIP3   OH236084   6.211   5.480  12.553 -0.0886  0.0259 -0.2902
 4890TIP3    H136085   6.159   5.520  12.624  0.9376  0.4435  0.2468
 4890TIP3    H236086   6.277   5.428  12.598  1.2719  1.1655 -0.8730
 4891TIP3   OH236087   6.750   4.322  16.920 -0.3180 -0.1718 -0.1037
 4891TIP3    H136088   6.714   4.409  16.904  0.9006  0.4806  0.5806
 4891TIP3    H236089   6.762   4.319  17.015  0.1938 -0.8663 -0.1880
 4892TIP3   OH236090   2.727   5.963   2.713  0.0060 -0.2575  0.2045
 4892TIP3    H136091   2.650   5.925   2.756  0.2826 -1.6620 -0.4727
 4892TIP3    H236092   2.797   5.901   2.731  0.5242  0.0168 -0.7969
 4893TIP3   OH236093   4.764   5.071  11.743  0.2715  0.0153 -0.2058
 4893TIP3    H136094   4.701   5.007  11.777 -1.4357  1.3878 -0.6114
 4893TIP3    H236095   4.767   5.054  11.649  1.3872 -0.7421 -0.0550
 4894TIP3   OH236096   2.174   1.669  16.201 -0.7222 -0.0840  0.2476
 4894TIP3    H136097   2.090   1.709  16.222 -0.7328 -0.5760  1.1921
 4894TIP3    H236098   2.222   1.668  16.284  0.5961  1.0383 -0.4572
 4895TIP3   OH236099   0.794   0.337   0.646  0.2719 -0.0753 -0.2471
 4895TIP3    H136100   0.841   0.255   0.659 -1.8654 -1.5190 -1.1384
 4895TIP3    H236101   0.729   0.339   0.716 -0.0447  0.6135 -0.5445
 4896TIP3   OH236102   0.532   6.303   1.299  0.1636 -0.1977  0.7675
 4896TIP3    H136103   0.456   6.260   1.260  1.8054 -1.6106 -1.0184
 4896TIP3    H236104   0.503   6.394   1.311 -1.1315 -0.1368 -1.9522
 4897TIP3   OH236105   4.074   4.650  14.110  0.2334  0.2442 -0.6842
 4897TIP3    H136106   3.993   4.640  14.060  1.0471  1.5254 -2.3549
 4897TIP3    H236107   4.053   4.714  14.177  0.4135  2.3775 -2.5681
 4898TIP3   OH236108   4.699   6.074  14.175 -0.0408 -0.7377 -0.0532
 4898TIP3    H136109   4.762   6.049  14.107  0.5020  1.9319 -0.6184
 4898TIP3    H236110   4.754   6.107  14.246 -0.7417  0.9371 -0.2598
 4899TIP3   OH236111   0.837   5.510  16.343 -0.1537 -0.2473  0.0425
 4899TIP3    H136112   0.812   5.601  16.360 -0.4204  0.0693 -1.8243
 4899TIP3    H236113   0.913   5.495  16.400 -0.1107  1.1343  0.3902
 4900TIP3   OH236114   0.406   3.530  14.086  0.6319 -0.2088  0.0150
 4900TIP3    H136115   0.455   3.465  14.135 -0.7700 -0.5457  1.0184
 4900TIP3    H236116   0.321   3.489  14.069 -0.0647  1.1100  0.1376
 4901TIP3   OH236117   4.766   3.168   6.016  0.3359  0.5599  0.5759
 4901TIP3    H136118   4.780   3.138   6.105  0.6762  0.3983  0.4705
 4901TIP3    H236119   4.789   3.261   6.018 -3.0586  1.5113  1.4755
 4902TIP3   OH236120   0.291   6.179   1.250  0.1079  0.2828 -0.4530
 4902TIP3    H136121   0.297   6.085   1.265  2.2559  0.4291 -0.0636
 4902TIP3    H236122   0.252   6.214   1.330 -0.8564 -0.2828 -0.6695
 4903TIP3   OH236123   1.511   4.010   0.948 -0.1774  1.0562  0.4186
 4903TIP3    H136124   1.431   4.030   0.997 -0.6876  1.9189 -0.7209
 4903TIP3    H236125   1.558   3.947   1.004 -0.4068  2.4690  2.3091
 4904TIP3   OH236126   4.493   2.438   1.673 -0.8454  0.2433 -0.1006
 4904TIP3    H136127   4.571   2.400   1.715 -0.6030 -0.8364 -1.4331
 4904TIP3    H236128   4.518   2.446   1.580 -2.0318  0.6859 -0.3908
 4905TIP3   OH236129   6.022   1.900  17.318 -0.5854  0.2394 -0.4489
 4905TIP3    H136130   5.979   1.881  17.234 -1.1878 -0.9367  0.1016
 4905TIP3    H236131   5.975   1.846  17.381  0.9505 -0.1795  0.3702
 4906TIP3   OH236132   6.237   3.433   4.879  0.0704  0.0364 -0.5996
 4906TIP3    H136133   6.297   3.432   4.805  0.0854 -0.2437 -0.5874
 4906TIP3    H236134   6.200   3.521   4.880  1.5412  0.6772  0.2449
 4907TIP3   OH236135   1.606   1.673  10.770  0.2486 -0.3601  0.0412
 4907TIP3    H136136   1.685   1.684  10.718 -1.2049 -1.5372 -2.6327
 4907TIP3    H236137   1.638   1.653  10.858  2.8369  3.1461  0.1207
 4908TIP3   OH236138   1.577   6.525  16.385  0.5543 -0.2620  0.5583
 4908TIP3    H136139   1.488   6.510  16.417  0.0456  1.4723  0.0852
 4908TIP3    H236140   1.577   6.617  16.356  1.7584 -0.9409 -1.8718
 4909TIP3   OH236141   5.473   2.396  11.408  0.1218 -0.0057  0.0104
 4909TIP3    H136142   5.382   2.373  11.388 -0.1239  1.3543 -0.5152
 4909TIP3    H236143   5.514   2.407  11.322  0.7716 -0.5337  0.2477
 4910TIP3   OH236144   4.352   3.646  11.376  0.8139 -0.2569 -0.3391
 4910TIP3    H136145   4.311   3.561  11.392  0.4260 -0.0798 -0.3891
 4910TIP3    H236146   4.426   3.648  11.436  0.5535 -0.4381 -0.0107
 4911TIP3   OH236147   0.994   0.607   1.299  0.2603  0.3394  0.2231
 4911TIP3    H136148   1.086   0.610   1.273 -0.3974 -1.9875 -3.1280
 4911TIP3    H236149   0.975   0.514   1.309 -1.4947  0.8287  2.0385
 4912TIP3   OH236150   1.616   6.598  14.615 -0.3205 -0.0225 -0.2480
 4912TIP3    H136151   1.525   6.623  14.627 -0.9012 -0.6783 -2.7714
 4912TIP3    H236152   1.664   6.681  14.620 -0.8045  0.1917  2.3768
 4913TIP3   OH236153   3.528   1.610  11.786  0.3160 -0.1963 -0.0496
 4913TIP3    H136154   3.471   1.666  11.838 -0.9484 -1.7984  0.4022
 4913TIP3    H236155   3.476   1.530  11.773  2.2779 -1.5359 -0.0528
 4914TIP3   OH236156   5.354   6.662   6.168  0.1514 -0.1135 -0.1542
 4914TIP3    H136157   5.326   6.570   6.169 -0.0604 -0.0508  0.8163
 4914TIP3    H236158   5.450   6.657   6.176  0.1207 -0.2442  0.1447
 4915TIP3   OH236159   4.530   2.384  16.274  0.0210 -0.1443 -0.0984
 4915TIP3    H136160   4.507   2.294  16.295 -0.2578  0.2692  1.4754
 4915TIP3    H236161   4.446   2.426  16.254  0.2829 -0.5418 -2.2544
 4916TIP3   OH236162   4.090   3.619  13.072  0.1504  0.1515 -0.5473
 4916TIP3    H136163   4.051   3.532  13.067  1.8792 -0.5745 -2.7788
 4916TIP3    H236164   4.113   3.630  13.164 -1.0613 -1.2710 -0.0280
 4917TIP3   OH236165   5.278   4.616   2.239  0.2269  0.1719  0.2644
 4917TIP3    H136166   5.203   4.653   2.192 -0.0483  0.2259  0.7438
 4917TIP3    H236167   5.331   4.693   2.263  0.9377  0.0764 -0.8949
 4918TIP3   OH236168   1.719   2.609   3.024  0.1850  0.1710  0.5376
 4918TIP3    H136169   1.750   2.521   3.046  1.0789  1.0421  3.0752
 4918TIP3    H236170   1.797   2.654   2.990 -0.9681 -0.8798 -4.2276
 4919TIP3   OH236171   3.533   6.126   2.927 -0.2040 -0.1525 -0.5028
 4919TIP3    H136172   3.582   6.142   3.008 -0.7543 -0.3433 -0.1271
 4919TIP3    H236173   3.600   6.122   2.859  0.4470 -1.7029  0.1721
 4920TIP3   OH236174   2.763   5.400  16.038  0.5222 -0.3704 -0.1000
 4920TIP3    H136175   2.743   5.474  15.981 -1.2089 -1.2505 -0.7162
 4920TIP3    H236176   2.808   5.439  16.113 -0.8837  1.4159 -0.1122
 4921TIP3   OH236177   5.449   1.647  11.597  0.0391 -0.2689 -0.8481
 4921TIP3    H136178   5.414   1.621  11.511  0.9765 -0.4992 -1.1683
 4921TIP3    H236179   5.377   1.629  11.658 -0.2711 -1.1150 -1.4354
 4922TIP3   OH236180   5.514   1.251   3.388 -0.2959 -0.0205  0.8573
 4922TIP3    H136181   5.609   1.266   3.385 -0.2262 -0.2332  1.7503
 4922TIP3    H236182   5.488   1.245   3.296  0.7485 -1.1593  0.6079
 4923TIP3   OH236183   2.407   1.047  11.468  0.6389 -0.1502  0.7413
 4923TIP3    H136184   2.322   1.080  11.497  0.3356  2.2528 -2.3391
 4923TIP3    H236185   2.390   0.958  11.439 -0.5408 -0.0807  1.1749
 4924TIP3   OH236186   0.583   5.621   2.944 -0.3235 -0.1699  0.0047
 4924TIP3    H136187   0.519   5.681   2.982 -0.0413  0.1394  0.0055
 4924TIP3    H236188   0.617   5.571   3.019  1.6100  1.7424  0.5168
 4925TIP3   OH236189   4.742   4.896   0.096 -0.0997 -0.0753 -0.3029
 4925TIP3    H136190   4.721   4.989   0.089  0.6575  0.2629  1.3949
 4925TIP3    H236191   4.825   4.886   0.048  0.7625  0.5157  1.0150
 4926TIP3   OH236192   5.371   1.247  13.219 -0.1512  0.5851  0.5973
 4926TIP3    H136193   5.287   1.214  13.253  0.7957 -3.0002 -0.1525
 4926TIP3    H236194   5.437   1.200  13.269  1.3579  0.3854 -1.4662
 4927TIP3   OH236195   3.887   1.003   2.325  0.0826 -0.0514 -0.3124
 4927TIP3    H136196   3.873   1.023   2.232 -1.5912  0.3561  0.0033
 4927TIP3    H236197   3.880   0.908   2.331  2.4310 -0.3389 -0.9118
 4928TIP3   OH236198   0.100   3.093   2.526 -0.0092  0.4677 -0.2352
 4928TIP3    H136199   0.066   3.036   2.595 -1.3045  1.9938  0.4442
 4928TIP3    H236200   0.074   3.181   2.552  0.0568  1.1700 -2.3302
 4929TIP3   OH236201   4.412   5.579   2.849  0.5226  0.2485 -0.0769
 4929TIP3    H136202   4.474   5.509   2.833  1.9226  0.5728  3.2318
 4929TIP3    H236203   4.449   5.656   2.805  0.2496 -0.4530 -1.5975
 4930TIP3   OH236204   4.393   4.727   4.438 -0.6774 -0.5750 -0.6772
 4930TIP3    H136205   4.454   4.658   4.465 -1.5023 -1.1190 -0.1459
 4930TIP3    H236206   4.378   4.711   4.345 -0.0895 -0.4955 -0.7883
 4931TIP3   OH236207   4.832   1.328  17.230 -0.0501 -0.1972 -0.0479
 4931TIP3    H136208   4.793   1.414  17.215  0.8295 -0.1098 -2.1460
 4931TIP3    H236209   4.925   1.340  17.215  0.0714 -1.5390 -0.5317
 4932TIP3   OH236210   1.320   6.085  13.920 -0.0174 -0.0560  0.4479
 4932TIP3    H136211   1.375   6.098  13.843 -0.7282 -0.4042 -0.1367
 4932TIP3    H236212   1.311   5.989  13.928 -1.7099  0.0031 -0.3500
 4933TIP3   OH236213   6.069   5.601  13.893  0.2550  0.0388  0.6589
 4933TIP3    H136214   6.001   5.538  13.916 -1.0833  1.8526  2.0118
 4933TIP3    H236215   6.151   5.560  13.918 -0.3288 -2.0458 -0.6111
 4934TIP3   OH236216   6.528   3.139   1.264  0.3617 -0.0424 -0.0664
 4934TIP3    H136217   6.492   3.147   1.353  1.0610  1.0802  0.1347
 4934TIP3    H236218   6.456   3.106   1.212 -0.1223 -0.5290  0.8820
 4935TIP3   OH236219   0.760   1.911  15.931 -0.0246  0.5903 -0.0217
 4935TIP3    H136220   0.772   1.981  15.995  0.1173 -0.5185  1.2135
 4935TIP3    H236221   0.847   1.870  15.924 -0.4095 -0.2956  0.2886
 4936TIP3   OH236222   0.540   1.782   2.095  0.2389  0.0389  0.2505
 4936TIP3    H136223   0.547   1.830   2.178 -1.1656  2.2293 -0.7901
 4936TIP3    H236224   0.450   1.750   2.095 -0.3562  1.5651 -1.1111
 4937TIP3   OH236225   4.251   2.874   1.256  0.3032 -0.7205 -0.2012
 4937TIP3    H136226   4.338   2.844   1.283  0.5964  1.0116  0.9062
 4937TIP3    H236227   4.193   2.800   1.272  1.0663 -0.8845  2.0157
 4938TIP3   OH236228   2.600   4.881  11.088 -0.1085  0.4828 -0.0762
 4938TIP3    H136229   2.523   4.834  11.120 -0.1288 -0.5337 -1.5000
 4938TIP3    H236230   2.638   4.822  11.022  0.8286  1.7585 -0.7180
 4939TIP3   OH236231   5.432   5.304  13.389  0.1879  0.0127  0.0649
 4939TIP3    H136232   5.353   5.251  13.379  0.2188 -0.3342  1.4530
 4939TIP3    H236233   5.461   5.287  13.478  1.9270  0.0288 -0.4614
 4940TIP3   OH236234   4.614   2.328  15.492 -0.1266 -0.7134  0.3514
 4940TIP3    H136235   4.552   2.304  15.562 -1.2554 -0.2110 -0.4527
 4940TIP3    H236236   4.602   2.422  15.481  0.7331 -0.6253  0.1148
 4941TIP3   OH236237   5.290   5.829   2.934 -0.1474 -0.5244  0.4653
 4941TIP3    H136238   5.290   5.746   2.887 -0.2342 -0.7613  0.8845
 4941TIP3    H236239   5.345   5.814   3.010  1.0582  0.2410 -0.2188
 4942TIP3   OH236240   3.728   4.267   0.762 -0.4713  0.0181 -0.0977
 4942TIP3    H136241   3.764   4.349   0.796  1.4914 -0.8663  0.0650
 4942TIP3    H236242   3.739   4.274   0.667 -0.9915  0.2325 -0.1474
 4943TIP3   OH236243   6.196   6.166  15.161  0.0030  0.8006  0.2879
 4943TIP3    H136244   6.113   6.162  15.208  0.1007  1.2417  0.5106
 4943TIP3    H236245   6.238   6.081  15.176 -1.5741 -0.4957 -2.0505
 4944TIP3   OH236246   2.131   5.340   4.541  0.0996  0.1787  0.1536
 4944TIP3    H136247   2.045   5.328   4.582  0.2752 -3.1818 -0.1737
 4944TIP3    H236248   2.188   5.280   4.587  3.0354  3.9107  1.9240
 4945TIP3   OH236249   6.751   2.767  17.327 -0.1543  0.2836 -0.2755
 4945TIP3    H136250   6.792   2.822  17.261  0.0911  2.8206  1.8350
 4945TIP3    H236251   6.768   2.677  17.298  2.0158  1.2763 -2.3608
 4946TIP3   OH236252   2.873   1.047   1.293 -0.0253 -0.1781 -0.2053
 4946TIP3    H136253   2.850   0.973   1.237  2.6987 -0.5682 -0.9395
 4946TIP3    H236254   2.890   1.009   1.379  1.8034 -0.5534 -0.6873
 4947TIP3   OH236255   5.876   2.517  11.638  0.2947  0.2089 -0.3723
 4947TIP3    H136256   5.859   2.478  11.724 -0.1612  1.3244  0.0592
 4947TIP3    H236257   5.957   2.567  11.650  0.0665  0.6141 -0.5022
 4948TIP3   OH236258   1.527   0.849  15.286 -0.1598 -0.4971 -0.4060
 4948TIP3    H136259   1.510   0.920  15.225 -0.7462 -0.1699  0.1179
 4948TIP3    H236260   1.594   0.796  15.244  0.9983  0.9051 -0.3736
 4949TIP3   OH236261   5.639   2.514  13.299  0.2119 -0.0411 -0.4857
 4949TIP3    H136262   5.703   2.555  13.242  0.7226 -0.0480  0.0790
 4949TIP3    H236263   5.676   2.427  13.318 -1.6149 -1.5141 -3.0363
 4950TIP3   OH236264   5.487   5.882   0.895  0.6486  0.0387  0.3747
 4950TIP3    H136265   5.443   5.963   0.868 -0.3618 -0.7555 -0.4405
 4950TIP3    H236266   5.419   5.835   0.944  1.8697  0.6103  2.7942
 4951TIP3   OH236267   6.465   4.058   1.021  0.0491 -0.2307 -0.0884
 4951TIP3    H136268   6.506   4.013   0.947  1.5280 -1.1968  1.2450
 4951TIP3    H236269   6.458   4.149   0.993  1.7686 -0.3166 -0.9553
 4952TIP3   OH236270   4.054   5.161  14.464  0.0115 -0.0567  0.4237
 4952TIP3    H136271   4.097   5.096  14.409  0.4410  0.5365  0.0439
 4952TIP3    H236272   4.086   5.143  14.553 -0.0974 -0.5424  0.3641
 4953TIP3   OH236273   4.690   4.020   1.642 -0.2146 -0.2618 -0.1340
 4953TIP3    H136274   4.646   3.980   1.717  0.6334  0.5215  0.8165
 4953TIP3    H236275   4.752   3.953   1.613  0.1959 -0.1877  0.5490
 4954TIP3   OH236276   2.112   2.170   5.925  0.0846  0.0519 -0.3879
 4954TIP3    H136277   2.182   2.210   5.875  0.0745  0.8861  0.2360
 4954TIP3    H236278   2.126   2.200   6.015 -1.3213  0.6227 -0.3205
 4955TIP3   OH236279   6.650   5.562   1.530 -0.4543  0.4001  0.7592
 4955TIP3    H136280   6.596   5.620   1.477 -0.3739 -1.0196 -0.9834
 4955TIP3    H236281   6.658   5.606   1.615 -0.4610  2.8469 -0.4349
 4956TIP3   OH236282   6.418   5.130  15.770 -0.3750  0.8170 -0.5719
 4956TIP3    H136283   6.425   5.116  15.865  0.4310  0.2818 -0.7048
 4956TIP3    H236284   6.324   5.140  15.754 -0.4757  1.5350  0.3708
 4957TIP3   OH236285   6.724   5.015   0.729 -0.0120 -0.4064 -0.1654
 4957TIP3    H136286   6.648   5.020   0.670 -1.8368  3.0378  2.1284
 4957TIP3    H236287   6.741   5.106   0.754  2.2683 -1.4470  2.6684
 4958TIP3   OH236288   4.871   3.228   0.228 -0.2150  0.2569 -0.6793
 4958TIP3    H136289   4.857   3.271   0.144 -0.1284 -0.6743 -1.1767
 4958TIP3    H236290   4.783   3.207   0.260 -0.1893 -2.3445 -2.1072
 4959TIP3   OH236291   2.643   2.512   5.631  0.2735  0.8447  0.4587
 4959TIP3    H136292   2.649   2.433   5.578 -2.4372  0.4971  0.5050
 4959TIP3    H236293   2.700   2.496   5.706  1.6918  0.0287 -0.7372
 4960TIP3   OH236294   0.636   5.582   5.420  0.5491  0.0117  0.3744
 4960TIP3    H136295   0.605   5.603   5.508 -1.1912  0.8951 -0.4012
 4960TIP3    H236296   0.646   5.668   5.377 -1.0504 -0.4651 -1.0439
 4961TIP3   OH236297   3.047   2.245  11.427  0.7139  0.1467  0.3004
 4961TIP3    H136298   3.017   2.318  11.374  2.5403  1.2846  0.7427
 4961TIP3    H236299   3.137   2.229  11.398  0.0830 -2.5867 -0.4489
 4962TIP3   OH236300   6.437   5.562  16.379 -0.3256  0.6301 -0.6109
 4962TIP3    H136301   6.477   5.500  16.318  0.7454  1.3547 -0.6750
 4962TIP3    H236302   6.512   5.604  16.422 -1.0281  1.8605 -0.5490
 4963TIP3   OH236303   3.032   0.041  13.744  0.2117 -1.0027 -0.2444
 4963TIP3    H136304   3.081   0.080  13.816 -0.0992  2.7022 -1.8266
 4963TIP3    H236305   2.940   0.056  13.767  0.0729 -0.9839 -0.7920
 4964TIP3   OH236306   2.225   1.561   1.641  1.4309  0.8707 -0.6068
 4964TIP3    H136307   2.212   1.622   1.568 -0.6469 -1.2870 -2.1952
 4964TIP3    H236308   2.196   1.609   1.718 -0.8543  1.7077 -1.9011
 4965TIP3   OH236309   0.812   4.301   1.997  0.2541  0.1191 -0.2350
 4965TIP3    H136310   0.723   4.334   2.010  0.1380 -0.3704  0.2514
 4965TIP3    H236311   0.843   4.347   1.918 -0.1153  0.9264  0.0737
 4966TIP3   OH236312   2.118   0.416  13.273 -0.3257  0.3497  0.1951
 4966TIP3    H136313   2.024   0.421  13.290 -0.5317 -1.4772 -0.1495
 4966TIP3    H236314   2.124   0.379  13.185  0.7160  0.3079  0.2766
 4967TIP3   OH236315   1.213   5.516   0.291 -0.3855  0.5915  0.6709
 4967TIP3    H136316   1.303   5.490   0.274 -1.0327 -1.7426  0.4346
 4967TIP3    H236317   1.200   5.594   0.237  0.6154 -0.7789 -1.7252
 4968TIP3   OH236318   3.940   3.567  16.505 -0.6038 -0.7751 -0.7657
 4968TIP3    H136319   3.893   3.498  16.551 -2.3594  0.4662 -0.6014
 4968TIP3    H236320   3.968   3.526  16.423 -1.9065 -1.6213 -0.8277
 4969TIP3   OH236321   6.380   4.899   3.433  0.8001 -0.4117 -0.6440
 4969TIP3    H136322   6.360   4.817   3.478  0.7362 -1.0491 -1.8195
 4969TIP3    H236323   6.307   4.957   3.455 -0.8676 -1.7294 -2.4198
 4970TIP3   OH236324   5.947   1.152  14.491  0.4090 -0.4203  0.1596
 4970TIP3    H136325   5.961   1.074  14.546 -1.2622  0.6519  2.2663
 4970TIP3    H236326   5.870   1.131  14.439 -0.5168  0.0373  1.2898
 4971TIP3   OH236327   2.349   0.982   4.342 -0.1673  0.4677  0.7281
 4971TIP3    H136328   2.298   1.060   4.321  0.7075  0.4748 -1.6116
 4971TIP3    H236329   2.404   1.009   4.416 -2.2157  0.9838  2.1561
 4972TIP3   OH236330   1.490   4.101  16.411 -0.1194 -0.2706  0.2496
 4972TIP3    H136331   1.464   4.032  16.472  0.0805  1.6893  2.6821
 4972TIP3    H236332   1.561   4.061  16.359 -1.1978 -2.4310  0.3125
 4973TIP3   OH236333   1.017   2.602  13.957  0.7121 -0.5468 -0.4145
 4973TIP3    H136334   1.023   2.667  13.886 -0.6098 -0.7398 -0.7336
 4973TIP3    H236335   1.098   2.613  14.006  0.1951  1.9196  0.0283
 4974TIP3   OH236336   4.414   1.324   0.933 -0.4671 -0.2124 -0.3605
 4974TIP3    H136337   4.411   1.280   1.018  0.5585 -0.7738 -0.5938
 4974TIP3    H236338   4.393   1.415   0.952 -0.0591 -0.2936  0.5278
 4975TIP3   OH236339   6.219   1.527   4.633  0.4197  0.7881  0.2169
 4975TIP3    H136340   6.139   1.496   4.676  0.1555  0.2342 -0.6644
 4975TIP3    H236341   6.190   1.598   4.577  0.2331 -0.5595 -1.4592
 4976TIP3   OH236342   6.713   4.709  14.090 -0.0026  0.2039  0.4173
 4976TIP3    H136343   6.767   4.788  14.098  2.3233 -1.1853 -0.6950
 4976TIP3    H236344   6.772   4.637  14.110 -2.1752 -1.3079  1.8306
 4977TIP3   OH236345   2.266   3.718  13.103  0.0118  0.0931  0.1466
 4977TIP3    H136346   2.283   3.679  13.189  0.0607  0.9315  0.5286
 4977TIP3    H236347   2.350   3.755  13.077  0.5925 -2.0770 -1.3034
 4978TIP3   OH236348   4.812   0.641  11.739 -0.0417 -0.2594 -0.3753
 4978TIP3    H136349   4.774   0.554  11.735 -0.2486 -0.1548 -0.7891
 4978TIP3    H236350   4.761   0.692  11.676  0.4960 -0.0020 -0.6048
 4979TIP3   OH236351   4.971   1.726  11.403 -0.0912  0.2716  0.2198
 4979TIP3    H136352   5.007   1.710  11.316 -1.1311 -0.4268 -0.1021
 4979TIP3    H236353   4.956   1.639  11.439  0.8832  0.5474  1.3518
 4980TIP3   OH236354   2.456   4.707   1.396 -0.0782 -0.5570 -0.3299
 4980TIP3    H136355   2.369   4.701   1.356 -0.7643 -0.8010  1.1086
 4980TIP3    H236356   2.470   4.620   1.435  0.4995 -0.3063  0.0350
 4981TIP3   OH236357   1.414   4.173  17.013  0.0887 -0.7910  0.2892
 4981TIP3    H136358   1.501   4.161  16.976  0.0393 -0.9524  0.2249
 4981TIP3    H236359   1.354   4.166  16.939  0.0149 -0.7629  0.3456
 4982TIP3   OH236360   4.675   4.327   0.689  0.1909  0.0599  0.5402
 4982TIP3    H136361   4.682   4.408   0.638  0.0389  0.1250  0.6208
 4982TIP3    H236362   4.584   4.298   0.675  0.1902  0.0038  0.6627
 4983TIP3   OH236363   3.998   3.640  11.494  0.0032 -0.2923  0.6198
 4983TIP3    H136364   4.049   3.657  11.573  0.4033  1.1473  0.0855
 4983TIP3    H236365   3.940   3.716  11.486 -1.3882 -1.3262  0.5457
 4984TIP3   OH236366   5.342   0.476  16.636  0.2078  0.2579 -0.1095
 4984TIP3    H136367   5.337   0.446  16.727 -0.5390 -0.2773 -0.3163
 4984TIP3    H236368   5.296   0.560  16.635  0.5598  0.4534  0.0815
 4985TIP3   OH236369   6.095   5.049  15.656 -0.4599 -0.2009 -0.0625
 4985TIP3    H136370   6.029   4.988  15.687  1.0555 -1.0805  1.6252
 4985TIP3    H236371   6.046   5.116  15.607 -2.6033 -0.5854  1.4568
 4986TIP3   OH236372   5.606   2.098   3.147 -0.3417 -0.3467 -0.3909
 4986TIP3    H136373   5.543   2.031   3.175  1.0710 -1.6801 -0.2808
 4986TIP3    H236374   5.683   2.081   3.201  0.1344  1.2489 -0.5348
 4987TIP3   OH236375   0.487   2.762   2.615  0.2540  0.1138  0.0394
 4987TIP3    H136376   0.569   2.809   2.629  0.1842  0.5652 -1.0180
 4987TIP3    H236377   0.484   2.697   2.686  0.4511  1.5434  1.4220
 4988TIP3   OH236378   1.753   2.745   2.005 -0.3666 -0.2001  0.6907
 4988TIP3    H136379   1.799   2.738   1.921  0.2222  0.7924  0.9226
 4988TIP3    H236380   1.681   2.806   1.989 -0.2131  0.0433  0.9254
 4989TIP3   OH236381   2.149   1.377  17.008 -0.3931 -0.0319 -0.2019
 4989TIP3    H136382   2.084   1.351  16.942 -0.6195  0.0239 -0.0017
 4989TIP3    H236383   2.195   1.296  17.029 -1.2535 -0.3329  0.5871
 4990TIP3   OH236384   0.771   1.766   2.988  0.1834 -0.1389 -0.3416
 4990TIP3    H136385   0.781   1.688   3.043  0.5854 -0.5932 -1.0467
 4990TIP3    H236386   0.802   1.739   2.902 -2.4730 -0.1267 -1.4069
 4991TIP3   OH236387   4.213   5.461   2.654 -0.6535  0.1018 -0.5265
 4991TIP3    H136388   4.307   5.475   2.664 -0.2384 -2.1941 -0.6690
 4991TIP3    H236389   4.173   5.546   2.676  1.5345  2.0694 -3.4149
 4992TIP3   OH236390   3.374   4.548  12.862 -0.2643  0.4687 -0.2227
 4992TIP3    H136391   3.321   4.531  12.941 -1.5875  0.7677 -1.0066
 4992TIP3    H236392   3.458   4.507  12.880 -0.6246  0.3046  1.2433
 4993TIP3   OH236393   5.605   5.324  14.869  0.6637 -0.0606 -0.1551
 4993TIP3    H136394   5.684   5.378  14.869 -0.7056  2.2596 -3.5021
 4993TIP3    H236395   5.620   5.259  14.801 -0.1853  0.2124 -0.6148
 4994TIP3   OH236396   4.562   2.604   1.965  0.5567  0.7016  0.1570
 4994TIP3    H136397   4.653   2.631   1.974  0.2940  1.9790 -0.6983
 4994TIP3    H236398   4.553   2.528   2.022  2.3416  0.0949 -0.3069
 4995TIP3   OH236399   0.469   2.952  10.910 -0.0388 -0.5199  0.4431
 4995TIP3    H136400   0.394   2.971  10.853 -0.0079  1.4356  0.9608
 4995TIP3    H236401   0.537   3.012  10.880  0.2000  0.0703  2.0657
 4996TIP3   OH236402   2.451   2.287  13.758 -0.0893  0.2342 -0.1427
 4996TIP3    H136403   2.455   2.192  13.749  0.3930  0.3182 -0.8707
 4996TIP3    H236404   2.393   2.316  13.687 -0.6560  0.4440  0.3942
 4997TIP3   OH236405   5.471   5.899  14.596  0.0327 -0.1250 -0.0319
 4997TIP3    H136406   5.482   5.936  14.509  2.0429 -0.7837 -0.1036
 4997TIP3    H236407   5.560   5.888  14.630 -0.5867 -1.9922  1.1869
 4998TIP3   OH236408   1.657   4.358  12.662  1.1271 -0.3893 -0.5166
 4998TIP3    H136409   1.623   4.429  12.608  1.1654 -0.9509 -1.2951
 4998TIP3    H236410   1.724   4.317  12.608  2.4625  0.1641  0.6729
 4999TIP3   OH236411   4.774   0.832  13.234  0.0413  0.2170  0.3324
 4999TIP3    H136412   4.834   0.760  13.256  0.1599  0.0720 -0.4453
 4999TIP3    H236413   4.730   0.803  13.155 -0.9266  0.4111  0.7833
 5000TIP3   OH236414   6.609   6.209   4.672 -0.7900 -0.0572  0.0343
 5000TIP3    H136415   6.545   6.223   4.602 -0.3221 -0.9670 -0.6015
 5000TIP3    H236416   6.672   6.280   4.661 -2.3913  1.7239  1.5660
 5001TIP3   OH236417   6.579   1.626   4.805 -0.5837 -0.4893  0.0496
 5001TIP3    H136418   6.672   1.625   4.785 -0.5895  0.7388 -0.1341
 5001TIP3    H236419   6.571   1.686   4.880 -0.9454 -2.4885  1.7016
 5002TIP3   OH236420   1.248   4.706  15.467 -0.3419  0.7680  1.0731
 5002TIP3    H136421   1.313   4.776  15.458 -1.3425  1.6657  0.5475
 5002TIP3    H236422   1.260   4.674  15.556  1.8329 -0.1681  0.5282
 5003TIP3   OH236423   5.200   5.500   4.420 -0.0908 -0.2971  0.5636
 5003TIP3    H136424   5.186   5.584   4.375  3.3840 -0.3331 -0.9151
 5003TIP3    H236425   5.236   5.524   4.505  2.2525 -0.1539 -0.3856
 5004TIP3   OH236426   6.713   3.495   6.519  0.0093  0.5796  0.0079
 5004TIP3    H136427   6.683   3.489   6.429 -0.4353  0.6652  0.1472
 5004TIP3    H236428   6.745   3.407   6.540 -2.2410 -0.1727  0.5748
 5005TIP3   OH236429   6.470   6.128   2.357 -0.7057 -0.0250 -0.1820
 5005TIP3    H136430   6.476   6.105   2.264  1.9359 -0.7759  0.1006
 5005TIP3    H236431   6.457   6.044   2.401 -1.3185  0.2603  0.1932
 5006TIP3   OH236432   5.097   0.520   1.355  0.2844  0.2798 -0.2568
 5006TIP3    H136433   5.081   0.433   1.391  2.0527  0.7474  1.9153
 5006TIP3    H236434   5.066   0.515   1.265 -2.0008 -1.7993  0.5199
 5007TIP3   OH236435   4.179   4.356  14.011 -0.2852  0.4133  0.4239
 5007TIP3    H136436   4.143   4.329  13.927 -2.0006  0.3381  1.1458
 5007TIP3    H236437   4.104   4.388  14.061  0.4457 -0.7781  2.4168
 5008TIP3   OH236438   5.896   1.041  13.119 -0.3941  0.2593 -0.6512
 5008TIP3    H136439   5.983   1.003  13.125 -0.3109  0.4323 -0.7714
 5008TIP3    H236440   5.854   1.019  13.202  0.2791  1.4499  0.0341
 5009TIP3   OH236441   2.764   1.296   3.675 -0.3858  0.0323  0.4174
 5009TIP3    H136442   2.794   1.343   3.597  0.8255 -2.4709 -0.7668
 5009TIP3    H236443   2.823   1.324   3.745  0.7138 -0.1461 -0.4082
 5010TIP3   OH236444   1.870   3.477  11.026  0.1672 -0.1829  0.0070
 5010TIP3    H136445   1.959   3.452  11.001  0.0223 -0.6080 -0.0918
 5010TIP3    H236446   1.858   3.565  10.990  0.7565  0.1192  0.5315
 5011TIP3   OH236447   4.400   2.171   3.345  0.4142  0.6369 -0.2880
 5011TIP3    H136448   4.332   2.230   3.376 -0.0065  0.5769 -1.0625
 5011TIP3    H236449   4.455   2.155   3.421 -0.1361  1.1069  0.2161
 5012TIP3   OH236450   5.526   5.830  15.625 -0.3044  0.0708 -0.3125
 5012TIP3    H136451   5.443   5.874  15.606 -0.3443  0.1935  0.1264
 5012TIP3    H236452   5.528   5.824  15.721 -0.6052 -1.4593 -0.3613
 5013TIP3   OH236453   3.946   1.206  15.016  0.0773  0.0992 -0.2686
 5013TIP3    H136454   3.919   1.130  15.067 -1.1569 -0.9449 -2.3223
 5013TIP3    H236455   4.041   1.207  15.021  0.4416 -3.5209 -2.6191
 5014TIP3   OH236456   0.550   5.777   1.630  0.2769  0.0475 -0.4407
 5014TIP3    H136457   0.606   5.845   1.669 -0.2635  0.4207 -0.3154
 5014TIP3    H236458   0.539   5.804   1.539 -0.9451  0.8014 -0.0938
 5015TIP3   OH236459   0.252   2.820   4.322 -0.9324 -0.2357 -0.1336
 5015TIP3    H136460   0.288   2.848   4.238  1.0179  0.0181  0.7216
 5015TIP3    H236461   0.218   2.901   4.362  0.1717  0.0746  0.2284
 5016TIP3   OH236462   2.149   1.870   3.519  0.3935  0.1189 -0.4312
 5016TIP3    H136463   2.092   1.947   3.528  0.0073 -0.2745  0.6969
 5016TIP3    H236464   2.116   1.825   3.442 -0.7291 -0.0022  0.0891
 5017TIP3   OH236465   2.663   0.372  12.768 -0.0774  0.2842  0.5734
 5017TIP3    H136466   2.636   0.409  12.684  0.0888  0.6795  0.6933
 5017TIP3    H236467   2.608   0.294  12.778  0.8810 -0.5746 -0.5656
 5018TIP3   OH236468   3.324   1.946   6.140  0.1668 -0.3125  0.3613
 5018TIP3    H136469   3.291   1.919   6.226  0.0991 -0.1142  0.3978
 5018TIP3    H236470   3.385   2.017   6.159 -1.3764  1.1249  0.0954
 5019TIP3   OH236471   1.812   1.236   0.257 -0.0722 -0.2230  0.2639
 5019TIP3    H136472   1.719   1.218   0.259  0.2530 -2.0123  0.5652
 5019TIP3    H236473   1.851   1.169   0.314  1.1230  2.4059  2.8008
 5020TIP3   OH236474   6.705   0.566  14.743 -0.0267 -0.2239  0.2299
 5020TIP3    H136475   6.636   0.522  14.793  0.3031  0.5116  1.3704
 5020TIP3    H236476   6.705   0.522  14.658 -1.3224 -0.8009  0.5016
 5021TIP3   OH236477   5.311   5.725   5.092  0.2708 -0.0816 -0.0261
 5021TIP3    H136478   5.372   5.798   5.101 -1.5083  1.5436 -0.5957
 5021TIP3    H236479   5.361   5.658   5.045  1.9513  0.7083  0.5316
 5022TIP3   OH236480   3.871   3.918  13.723 -0.5831  0.4161 -0.4529
 5022TIP3    H136481   3.940   3.940  13.786 -0.8559 -2.4191  1.0143
 5022TIP3    H236482   3.789   3.937  13.769 -0.7698 -0.1977 -0.5178
 5023TIP3   OH236483   4.723   6.509   5.279 -0.3217  0.4733 -0.4363
 5023TIP3    H136484   4.687   6.438   5.331  1.1114  0.0225 -0.0194
 5023TIP3    H236485   4.818   6.499   5.286 -0.0832  2.0230 -0.9139
 5024TIP3   OH236486   1.399   5.748   2.845 -0.2659 -0.5010 -0.0464
 5024TIP3    H136487   1.422   5.693   2.920 -0.0810 -2.1376 -1.2424
 5024TIP3    H236488   1.315   5.788   2.870 -1.0376 -2.2921  0.4186
 5025TIP3   OH236489   2.932   5.798   2.763 -0.1042  0.1079  0.0353
 5025TIP3    H136490   2.985   5.769   2.838 -0.9029 -1.1950  0.1201
 5025TIP3    H236491   2.992   5.853   2.713  1.5748 -1.7706 -0.1822
 5026TIP3   OH236492   0.636   1.518   4.672  0.6289  0.3108  0.7052
 5026TIP3    H136493   0.582   1.505   4.595  0.1823  0.3694  1.0078
 5026TIP3    H236494   0.589   1.582   4.725 -0.2792 -1.4514  2.1452
 5027TIP3   OH236495   1.212   0.138  13.527 -0.8481 -0.1080  0.8203
 5027TIP3    H136496   1.278   0.175  13.586 -1.6542  0.7120  1.2246
 5027TIP3    H236497   1.231   0.044  13.527  0.4976  0.1413  0.6983
 5028TIP3   OH236498   4.207   5.773  13.538  0.3716  0.2629 -0.1804
 5028TIP3    H136499   4.261   5.795  13.614 -2.4592  0.7811  1.8323
 5028TIP3    H236500   4.194   5.856  13.493 -0.5545  0.5799  0.6371
 5029TIP3   OH236501   4.013   6.119  14.166  0.5034 -0.1550  0.2923
 5029TIP3    H136502   4.062   6.178  14.108  1.4686 -0.9475  0.2729
 5029TIP3    H236503   4.073   6.103  14.239  0.7202 -2.0144 -0.2585
 5030TIP3   OH236504   0.966   1.290  11.128 -0.5312 -0.3072 -0.6556
 5030TIP3    H136505   0.922   1.345  11.063 -2.3886 -0.5493  0.3546
 5030TIP3    H236506   0.909   1.214  11.138  0.7888 -1.2752 -0.2525
 5031TIP3   OH236507   3.464   2.169  15.458 -0.3415 -0.2056 -0.5484
 5031TIP3    H136508   3.424   2.159  15.544 -0.7843  0.9752 -0.5931
 5031TIP3    H236509   3.390   2.163  15.397 -0.1625 -0.0734 -0.7772
 5032TIP3   OH236510   2.700   3.964  12.983 -0.4011 -0.3576  0.2415
 5032TIP3    H136511   2.690   3.888  13.040  0.5695 -0.9403 -0.3483
 5032TIP3    H236512   2.763   4.020  13.028 -0.8448 -0.0520  0.4998
 5033TIP3   OH236513   6.269   1.569  17.239 -0.5272  0.2213  0.1666
 5033TIP3    H136514   6.215   1.489  17.244  0.6768 -0.6512 -0.3748
 5033TIP3    H236515   6.323   1.565  17.318  0.5166 -0.2505 -0.5474
 5034TIP3   OH236516   4.605   6.203  11.238  0.1232 -0.1365  0.4581
 5034TIP3    H136517   4.658   6.262  11.292 -3.5861  2.8579  1.2525
 5034TIP3    H236518   4.604   6.244  11.152 -0.5944 -0.3280  0.3703
 5035TIP3   OH236519   0.635   4.128  11.512 -0.4822  0.2495  0.8241
 5035TIP3    H136520   0.564   4.072  11.544 -0.0452 -0.4760  0.5328
 5035TIP3    H236521   0.637   4.201  11.573 -0.4192 -0.5396  1.7896
 5036TIP3   OH236522   3.327   2.821  11.893  0.0525 -0.0781  0.5120
 5036TIP3    H136523   3.308   2.894  11.952  0.6675  0.9112 -0.4621
 5036TIP3    H236524   3.287   2.745  11.935  0.2675  0.6266  2.0679
 5037TIP3   OH236525   5.730   2.888   4.713  0.0809 -0.3516 -0.2878
 5037TIP3    H136526   5.809   2.940   4.728 -0.2736  0.1175 -0.0138
 5037TIP3    H236527   5.696   2.869   4.801 -0.6317  0.2596 -0.4234
 5038TIP3   OH236528   0.200   1.357   4.698  0.2986  0.9428 -0.6504
 5038TIP3    H136529   0.144   1.425   4.662 -0.3983  0.5922 -0.2505
 5038TIP3    H236530   0.217   1.298   4.625 -1.2921  0.1124 -0.3925
 5039TIP3   OH236531   1.738   0.966   5.653  0.0870 -0.8826 -0.7861
 5039TIP3    H136532   1.823   0.970   5.696 -1.3700  1.6610  2.2615
 5039TIP3    H236533   1.683   0.913   5.710 -1.1340  0.0277 -1.0442
 5040TIP3   OH236534   6.403   0.391  16.049  0.5320 -1.0344  0.0954
 5040TIP3    H136535   6.401   0.403  15.954 -0.6993  0.2254  0.2531
 5040TIP3    H236536   6.476   0.330  16.064 -0.5326 -2.9104 -1.8150
 5041TIP3   OH236537   6.542   1.224  13.038  0.4616 -0.7072  0.8763
 5041TIP3    H136538   6.630   1.222  13.000 -0.7319  1.3805 -2.3730
 5041TIP3    H236539   6.536   1.310  13.079 -0.8561  0.3473 -1.3435
 5042TIP3   OH236540   1.161   1.960  11.628  0.1414  0.0169 -0.0841
 5042TIP3    H136541   1.091   1.941  11.566  0.1621 -0.3030 -0.0079
 5042TIP3    H236542   1.116   1.970  11.712  0.0473  0.9830 -0.2362
 5043TIP3   OH236543   4.031   0.800   4.494  0.0124  0.1427  0.1992
 5043TIP3    H136544   3.978   0.722   4.511  0.7627 -0.3415  0.3709
 5043TIP3    H236545   3.978   0.873   4.525 -0.6543 -0.3064  0.1338
 5044TIP3   OH236546   3.565   1.323  11.808 -0.2012 -0.4926 -0.6668
 5044TIP3    H136547   3.471   1.326  11.826  0.3639 -0.6507  3.3692
 5044TIP3    H236548   3.592   1.236  11.839  1.5508  0.4364  0.6154
 5045TIP3   OH236549   1.748   4.552   2.655  0.1834  0.2874 -0.0183
 5045TIP3    H136550   1.735   4.624   2.716 -0.8271 -0.5114  0.7509
 5045TIP3    H236551   1.734   4.473   2.708  0.3081 -0.4471 -1.0480
 5046TIP3   OH236552   5.757   3.607  13.956 -0.6727 -0.1130 -0.3070
 5046TIP3    H136553   5.736   3.617  13.864 -0.4864  2.5175 -0.1354
 5046TIP3    H236554   5.746   3.514  13.973 -1.3008 -0.5686 -2.8189
 5047TIP3   OH236555   0.324   6.627   0.680  0.4754  0.3740 -0.3268
 5047TIP3    H136556   0.292   6.588   0.761 -0.9397  2.0531 -0.0087
 5047TIP3    H236557   0.394   6.685   0.707 -0.0140  0.9533 -0.2863
 5048TIP3   OH236558   1.166   6.571   4.956 -0.5010  0.2098  0.8464
 5048TIP3    H136559   1.084   6.609   4.925 -0.7658 -1.1323 -0.2017
 5048TIP3    H236560   1.139   6.512   5.027 -1.0311 -2.9866 -1.7664
 5049TIP3   OH236561   3.096   6.132   3.381 -0.0372  0.1113  0.5926
 5049TIP3    H136562   3.023   6.164   3.434 -0.5791  0.1544 -0.1845
 5049TIP3    H236563   3.139   6.067   3.437 -2.4033 -2.1166 -0.0213
 5050TIP3   OH236564   1.458   4.005   2.782 -0.2474 -0.0742  0.0562
 5050TIP3    H136565   1.467   3.910   2.791 -2.4111 -0.3419 -0.0975
 5050TIP3    H236566   1.548   4.037   2.773  0.5174 -2.1084 -0.0097
 5051TIP3   OH236567   2.794   1.582  13.842  0.4085 -0.1644 -0.6960
 5051TIP3    H136568   2.701   1.565  13.824  0.5624 -1.3589 -0.4576
 5051TIP3    H236569   2.832   1.601  13.756  0.1014 -0.5116 -0.9137
 5052TIP3   OH236570   1.273   4.471   1.126 -0.2445  0.1892 -1.0658
 5052TIP3    H136571   1.252   4.563   1.141 -2.2132 -0.5257  1.2083
 5052TIP3    H236572   1.332   4.472   1.051 -0.2559  3.2763 -1.1684
 5053TIP3   OH236573   3.833   0.584  15.598 -0.0253  0.1954 -0.6418
 5053TIP3    H136574   3.753   0.634  15.617 -0.2602 -0.5230  0.3813
 5053TIP3    H236575   3.806   0.520  15.532 -0.1598  0.3173 -0.7055
 5054TIP3   OH236576   1.019   3.086  16.842  0.1159  0.2270  0.6386
 5054TIP3    H136577   1.092   3.075  16.781 -0.5091  0.2482 -0.1169
 5054TIP3    H236578   1.043   3.163  16.894  0.7715  0.0467  0.6104
 5055TIP3   OH236579   3.768   2.837  13.926  0.1514 -0.1262 -0.6308
 5055TIP3    H136580   3.833   2.839  13.856  1.1663  1.5979  0.2886
 5055TIP3    H236581   3.684   2.848  13.881  0.8736  2.2073 -1.5694
 5056TIP3   OH236582   4.731   5.715  12.683  0.1999  0.2356  0.3275
 5056TIP3    H136583   4.762   5.755  12.764  1.2338 -0.8134  0.4825
 5056TIP3    H236584   4.807   5.716  12.625  0.4733 -1.9960  0.5509
 5057TIP3   OH236585   4.747   0.971  16.402  0.5128 -0.1998 -0.5257
 5057TIP3    H136586   4.788   1.047  16.362  0.9999  0.2270  0.7225
 5057TIP3    H236587   4.754   0.987  16.496 -2.3650 -0.2023 -0.2242
 5058TIP3   OH236588   2.152   1.380  14.375 -0.0940 -0.2613  0.2138
 5058TIP3    H136589   2.104   1.398  14.456 -0.9773 -3.5340  0.5608
 5058TIP3    H236590   2.092   1.408  14.305 -1.1015 -1.1304  0.6938
 5059TIP3   OH236591   2.873   3.769   3.753 -0.1508 -0.2969 -0.1780
 5059TIP3    H136592   2.799   3.752   3.693 -0.4397  0.3692 -0.0146
 5059TIP3    H236593   2.942   3.802   3.696 -0.4386  0.3720 -0.1433
 5060TIP3   OH236594   5.908   4.152   6.172 -0.0565 -0.5825 -0.2984
 5060TIP3    H136595   5.829   4.106   6.198 -0.7698 -0.1329 -1.6150
 5060TIP3    H236596   5.879   4.241   6.150  1.0465  0.0397  0.6265
 5061TIP3   OH236597   5.305   0.146   0.844  0.9470 -0.5371 -0.1202
 5061TIP3    H136598   5.328   0.143   0.751 -1.4519  1.6532 -0.8883
 5061TIP3    H236599   5.329   0.234   0.872  0.5664 -0.7880  1.0366
 5062TIP3   OH236600   2.068   6.413   3.955 -0.4493  0.0157  0.2369
 5062TIP3    H136601   2.152   6.395   3.997 -0.1511  1.4778  0.3088
 5062TIP3    H236602   2.006   6.354   3.999  0.5101 -1.0141  0.2371
 5063TIP3   OH236603   0.027   2.518  14.427 -0.1158 -1.0153  0.3215
 5063TIP3    H136604   0.045   2.541  14.336 -1.0958 -0.3446  0.2910
 5063TIP3    H236605   0.070   2.433  14.438  1.3655 -0.3899 -0.2974
 5064TIP3   OH236606   0.541   5.458  16.763 -0.5159 -0.2985  0.4621
 5064TIP3    H136607   0.502   5.542  16.735  1.2904  0.5320  0.3007
 5064TIP3    H236608   0.466   5.403  16.783 -1.7873  0.9864 -0.5330
 5065TIP3   OH236609   5.005   0.040  14.983  0.1661 -0.6599 -0.3576
 5065TIP3    H136610   4.920   0.004  15.010  0.3276 -2.3815 -1.9477
 5065TIP3    H236611   5.040  -0.025  14.923  1.0791  1.6298 -2.4369
 5066TIP3   OH236612   0.086   0.299   4.147 -0.0498  0.2767  0.1004
 5066TIP3    H136613   0.009   0.352   4.169  0.0872  0.1048  1.0145
 5066TIP3    H236614   0.160   0.349   4.181  0.1104 -0.3237  0.6345
 5067TIP3   OH236615   3.273   6.413  16.255  0.1288  0.3146  0.0784
 5067TIP3    H136616   3.232   6.353  16.191  0.5281 -2.1735  2.0072
 5067TIP3    H236617   3.199   6.457  16.296 -0.1903  1.0389 -1.2007
 5068TIP3   OH236618   4.038   0.673  15.344  0.2312  0.0043  0.2164
 5068TIP3    H136619   4.062   0.591  15.300 -1.9241  0.3136 -1.7496
 5068TIP3    H236620   3.967   0.708  15.291 -0.0522  2.3237  1.9824
 5069TIP3   OH236621   0.646   2.888  16.928  0.4005 -0.0873  0.1683
 5069TIP3    H136622   0.580   2.891  16.997  0.6289  0.0245  0.3814
 5069TIP3    H236623   0.624   2.961  16.870 -2.7087 -2.8609 -2.5706
 5070TIP3   OH236624   3.926   3.955  14.530 -0.1657  0.0543  0.2297
 5070TIP3    H136625   3.940   3.965  14.625  0.0079 -3.0212  0.6477
 5070TIP3    H236626   4.004   3.995  14.491 -0.4242  1.7339  1.3174
 5071TIP3   OH236627   6.511   3.743   1.444  0.0230 -0.3644 -0.2374
 5071TIP3    H136628   6.569   3.744   1.368 -0.5807 -0.3884 -0.7162
 5071TIP3    H236629   6.431   3.702   1.411  0.0219 -1.0527  0.6219
 5072TIP3   OH236630   0.001   5.775  11.835  0.3504 -0.1001  0.4637
 5072TIP3    H136631  -0.025   5.866  11.817 -0.5879 -0.2620  0.9414
 5072TIP3    H236632  -0.079   5.734  11.869 -0.2456 -2.0019 -2.8157
 5073TIP3   OH236633   1.838   3.784  17.067 -0.2271 -0.1266  0.0627
 5073TIP3    H136634   1.788   3.858  17.034 -0.5520  0.0852  1.0045
 5073TIP3    H236635   1.773   3.716  17.083 -0.0750 -0.2122  0.3166
 5074TIP3   OH236636   0.445   3.903  12.975  0.4291  0.6334  0.5421
 5074TIP3    H136637   0.514   3.934  13.033  1.0243 -1.4953  1.0730
 5074TIP3    H236638   0.491   3.847  12.911 -0.6915 -0.2507  0.4721
 5075TIP3   OH236639   2.023   1.765  12.086 -0.0607  0.2387 -0.3184
 5075TIP3    H136640   2.034   1.702  12.014  0.6979  0.2711 -0.2327
 5075TIP3    H236641   1.958   1.724  12.143 -1.1315  0.4858 -1.3190
 5076TIP3   OH236642   1.264   5.007   4.518  0.0130 -0.2075 -0.1809
 5076TIP3    H136643   1.206   4.981   4.446 -0.2067 -0.4131  0.0676
 5076TIP3    H236644   1.213   5.072   4.567  0.2983  0.1951 -0.4105
 5077TIP3   OH236645   3.500   1.021   0.599 -0.5151  0.0966  0.3911
 5077TIP3    H136646   3.554   1.099   0.607 -0.0079 -0.3003  0.8550
 5077TIP3    H236647   3.543   0.968   0.532 -0.4879 -0.0891  0.5550
 5078TIP3   OH236648   4.187   3.626   4.527 -0.1060 -0.3201 -0.3729
 5078TIP3    H136649   4.262   3.662   4.480 -0.5328  0.7183 -0.2796
 5078TIP3    H236650   4.224   3.592   4.608  0.1038  1.3852  0.2800
 5079TIP3   OH236651   1.344   5.207  15.441  0.4900 -0.1233 -0.1740
 5079TIP3    H136652   1.332   5.185  15.349 -1.3712 -0.2815  0.0716
 5079TIP3    H236653   1.283   5.279  15.457 -0.0839 -0.8600  1.2004
 5080TIP3   OH236654   4.626   3.466  16.012 -0.5477 -0.2728 -0.1757
 5080TIP3    H136655   4.556   3.496  15.954 -1.3335 -0.7985  0.4758
 5080TIP3    H236656   4.592   3.481  16.100 -0.5609 -2.0987  0.1669
 5081TIP3   OH236657   6.427   3.847  14.651  0.5250 -0.1944  0.2019
 5081TIP3    H136658   6.349   3.812  14.609  1.0866 -1.6581  0.3175
 5081TIP3    H236659   6.418   3.824  14.743  0.3365  1.0617  0.5052
 5082TIP3   OH236660   6.634   4.989   2.474 -0.2508  0.2564 -0.2697
 5082TIP3    H136661   6.566   5.046   2.508 -1.5430 -0.0094 -2.2847
 5082TIP3    H236662   6.635   5.005   2.380  3.4702  1.2827 -0.2178
 5083TIP3   OH236663   3.241   4.945  15.016  0.0105 -0.5541 -0.4943
 5083TIP3    H136664   3.302   4.877  15.044 -0.1377 -0.3291  0.4066
 5083TIP3    H236665   3.158   4.900  15.005 -0.0292 -0.5726 -0.1423
 5084TIP3   OH236666   2.372   2.723   4.412  0.0182 -0.5170 -0.2465
 5084TIP3    H136667   2.356   2.769   4.330  1.1603 -3.5049 -2.3422
 5084TIP3    H236668   2.322   2.641   4.404 -0.5140 -0.5857  2.4722
 5085TIP3   OH236669   6.326   2.056  14.312  0.3979 -0.7855 -0.2121
 5085TIP3    H136670   6.342   2.142  14.273 -0.1168  0.9930  3.1474
 5085TIP3    H236671   6.407   2.007  14.297  0.8552  0.3835 -1.8251
 5086TIP3   OH236672   1.425   6.122  11.924  0.0727  0.1297 -0.6020
 5086TIP3    H136673   1.384   6.101  12.008 -0.3997  0.4101 -0.7562
 5086TIP3    H236674   1.373   6.194  11.890  0.8753  0.6808 -0.6808
 5087TIP3   OH236675   1.219   3.699  12.648  0.2877 -0.5366 -0.1881
 5087TIP3    H136676   1.278   3.680  12.575 -0.2301 -0.6120 -0.5917
 5087TIP3    H236677   1.255   3.778  12.688  0.5575 -0.4783 -0.5402
 5088TIP3   OH236678   3.582   2.219  16.249 -0.8323  0.6592  0.3167
 5088TIP3    H136679   3.606   2.307  16.219  0.1214  1.1210  2.3224
 5088TIP3    H236680   3.532   2.234  16.329 -1.1796 -0.6227  0.3503
 5089TIP3   OH236681   6.337   2.934   6.540 -0.0963  0.7670 -0.0237
 5089TIP3    H136682   6.321   3.008   6.599  1.4126  2.1913 -1.3045
 5089TIP3    H236683   6.377   2.973   6.463  1.5923 -1.5007 -0.4060
 5090TIP3   OH236684   4.457   3.090   2.051 -0.4309 -0.4186  0.8862
 5090TIP3    H136685   4.477   3.005   2.089 -1.3214 -1.7836 -1.4523
 5090TIP3    H236686   4.542   3.125   2.024 -0.2217 -1.7530 -0.3387
 5091TIP3   OH236687   5.030   2.526  16.197  0.5205 -0.0296 -0.0127
 5091TIP3    H136688   4.990   2.485  16.120  2.4628  0.4534 -1.3374
 5091TIP3    H236689   4.965   2.514  16.267 -1.4269 -0.2204 -1.7755
 5092TIP3   OH236690   2.412   3.699   3.810 -0.1555 -0.2614  0.0974
 5092TIP3    H136691   2.474   3.717   3.881 -0.3460 -0.5270  0.3375
 5092TIP3    H236692   2.467   3.677   3.735  0.0443 -0.3828  0.2783
 5093TIP3   OH236693   1.761   1.175   2.572 -0.1432 -0.6532  0.5023
 5093TIP3    H136694   1.850   1.198   2.599 -0.2966 -1.9618  2.2391
 5093TIP3    H236695   1.772   1.135   2.485  0.8611 -0.1860  0.4038
 5094TIP3   OH236696   2.736   4.075  11.976 -0.5678  0.2267 -0.5480
 5094TIP3    H136697   2.742   4.111  11.888  2.3529  0.6602 -0.2952
 5094TIP3    H236698   2.674   4.132  12.022 -1.2846  0.6667 -2.0051
 5095TIP3   OH236699   1.909   1.649   0.691  0.5706 -0.1293 -0.4784
 5095TIP3    H136700   1.816   1.669   0.676  0.4356 -0.4013 -0.0226
 5095TIP3    H236701   1.956   1.723   0.652  0.1615  0.0307 -0.6762
 5096TIP3   OH236702   3.243   0.848  15.611  0.2159  0.0190  0.1629
 5096TIP3    H136703   3.237   0.823  15.703  0.8752 -0.0916  0.1817
 5096TIP3    H236704   3.157   0.884  15.590 -1.3141 -3.4499 -0.2088
 5097TIP3   OH236705   3.235   4.148   6.261 -0.3625  0.0361  0.3169
 5097TIP3    H136706   3.177   4.081   6.298 -1.5415  0.9715  0.2239
 5097TIP3    H236707   3.245   4.213   6.330 -1.4580  1.1082 -0.4798
 5098TIP3   OH236708   3.113   0.988   1.917 -0.4888  0.3721 -0.0046
 5098TIP3    H136709   3.046   0.998   1.849 -0.4943 -1.5482 -0.3315
 5098TIP3    H236710   3.065   0.992   1.999 -0.8329  0.2514 -0.1955
 5099TIP3   OH236711   6.042   5.783  12.025  0.3194  0.0423 -0.3991
 5099TIP3    H136712   6.113   5.731  12.062  0.3201  0.1164 -0.2972
 5099TIP3    H236713   6.071   5.874  12.034  0.8774  0.0237 -1.7043
 5100TIP3   OH236714   1.862   0.184  16.595  0.1547  0.2418  0.0857
 5100TIP3    H136715   1.768   0.168  16.581  0.1829  1.7396 -2.2802
 5100TIP3    H236716   1.885   0.125  16.668 -2.6101 -0.0871  0.8220
 5101TIP3   OH236717   2.865   5.838   1.127 -0.4134  0.1655 -0.1600
 5101TIP3    H136718   2.781   5.793   1.140 -0.3944 -0.3461 -1.6256
 5101TIP3    H236719   2.904   5.795   1.051  0.0059  2.0730 -1.0858
 5102TIP3   OH236720   3.138   3.851  11.626  0.1363  0.0368  0.5371
 5102TIP3    H136721   3.226   3.854  11.664 -0.2161  0.2739  1.3538
 5102TIP3    H236722   3.142   3.908  11.550  0.9063 -0.5848  0.1026
 5103TIP3   OH236723   3.209   3.037  14.029  0.2309  0.0712  0.3051
 5103TIP3    H136724   3.248   3.124  14.034  1.9701 -0.7020  0.8544
 5103TIP3    H236725   3.225   2.998  14.115 -2.4183 -0.0656  0.8397
 5104TIP3   OH236726   2.454   4.215  16.725  0.0243  0.2944  0.3324
 5104TIP3    H136727   2.480   4.204  16.817  0.3113 -1.0074  0.1035
 5104TIP3    H236728   2.515   4.161  16.676  2.0259  3.4702 -0.9925
 5105TIP3   OH236729   6.299   4.419  15.043  0.3162  0.1512 -0.2437
 5105TIP3    H136730   6.380   4.419  14.992  0.1868 -0.3767 -0.4646
 5105TIP3    H236731   6.301   4.336  15.091 -0.2515 -0.0318 -0.5222
 5106TIP3   OH236732   4.790   2.038   4.392  0.2102 -0.0667 -0.3677
 5106TIP3    H136733   4.784   2.084   4.475  1.8730  2.1858 -1.4091
 5106TIP3    H236734   4.699   2.017   4.369 -0.2910 -0.6625  1.8971
 5107TIP3   OH236735   5.522   4.858   4.111 -0.1061  0.2007 -0.4219
 5107TIP3    H136736   5.445   4.904   4.144 -0.7875 -1.3595  0.2550
 5107TIP3    H236737   5.579   4.849   4.187  0.3359  0.5361 -0.7096
 5108TIP3   OH236738   2.099   1.745  13.204  0.4251  0.1028  0.3394
 5108TIP3    H136739   2.029   1.679  13.207  0.5054  0.0499  1.3104
 5108TIP3    H236740   2.054   1.827  13.184  0.1256  0.0102  0.6267
 5109TIP3   OH236741   2.780   3.955   3.924  0.0791  0.0524  0.4035
 5109TIP3    H136742   2.798   3.873   3.877 -2.2348  0.1280 -0.7000
 5109TIP3    H236743   2.816   4.023   3.868  2.6714 -0.1316  1.6597
 5110TIP3   OH236744   2.777   0.854  16.006 -0.1858  0.8682 -0.3354
 5110TIP3    H136745   2.788   0.930  16.062 -1.4870  1.4141 -0.7774
 5110TIP3    H236746   2.697   0.872  15.956 -1.0172 -1.1615  0.1581
 5111TIP3   OH236747   6.688   3.702   0.807 -0.6388  0.5439 -0.3566
 5111TIP3    H136748   6.666   3.656   0.727  1.3585  0.3182 -0.8263
 5111TIP3    H236749   6.752   3.768   0.780 -0.2596  0.7510  0.9720
 5112TIP3   OH236750   6.438   0.140  16.259 -0.2636 -0.0047 -0.6287
 5112TIP3    H136751   6.371   0.114  16.196 -0.2249 -1.1129 -0.2399
 5112TIP3    H236752   6.510   0.174  16.207  0.3223 -2.1565 -1.2927
 5113TIP3   OH236753   0.490   6.555   0.377  0.5308  0.1252  0.3626
 5113TIP3    H136754   0.521   6.637   0.339 -1.4228  0.7647  0.0492
 5113TIP3    H236755   0.440   6.582   0.454 -1.0301 -0.6761 -0.3353
 5114TIP3   OH236756   0.785   4.486   6.441 -0.4492 -0.2942 -0.3324
 5114TIP3    H136757   0.809   4.560   6.384 -2.7806  0.4592 -0.4217
 5114TIP3    H236758   0.728   4.431   6.387 -1.1934 -0.5456  0.6786
 5115TIP3   OH236759   4.864   4.375   1.443  0.2124  0.4389  0.1370
 5115TIP3    H136760   4.789   4.368   1.384  1.2442 -1.1890 -1.0824
 5115TIP3    H236761   4.911   4.292   1.433  4.3112  2.6771 -2.1884
 5116TIP3   OH236762   2.050   3.877   2.134 -0.6408  0.2244  0.2415
 5116TIP3    H136763   2.006   3.848   2.214 -1.8286  0.9387 -0.1343
 5116TIP3    H236764   2.056   3.972   2.142  0.5885  0.1790  0.1385
 5117TIP3   OH236765   1.104   1.656   1.085 -0.7025 -0.0044  0.0023
 5117TIP3    H136766   1.037   1.650   1.154 -0.2469 -0.3244  0.4211
 5117TIP3    H236767   1.083   1.584   1.025 -0.8181 -0.0199  0.0610
 5118TIP3   OH236768   2.102   1.640  17.055  0.0282 -0.4507 -0.0444
 5118TIP3    H136769   2.129   1.549  17.062 -2.8903 -1.2407  3.6965
 5118TIP3    H236770   2.010   1.641  17.080 -0.4923  3.4060 -1.3536
 5119TIP3   OH236771   3.441   2.819   4.352  0.0284  0.2375  0.2510
 5119TIP3    H136772   3.482   2.891   4.399 -0.8937 -0.0026  1.4808
 5119TIP3    H236773   3.450   2.744   4.411  2.3786 -1.1375 -1.6303
 5120TIP3   OH236774   3.092   4.246   1.348  0.4369 -0.1810 -0.6788
 5120TIP3    H136775   3.153   4.311   1.382  1.2158 -1.6987  1.0305
 5120TIP3    H236776   3.014   4.296   1.322  1.3006  1.4811 -0.1923
 5121TIP3   OH236777   0.245   6.439   5.542  0.9417 -0.1008 -0.4008
 5121TIP3    H136778   0.250   6.346   5.566  0.5441 -0.0664 -0.1701
 5121TIP3    H236779   0.335   6.463   5.520  0.9243 -0.7371 -1.2114
 5122TIP3   OH236780   2.114   0.178   2.478 -0.3719  0.9625 -0.1724
 5122TIP3    H136781   2.206   0.170   2.502  0.6874  2.2602 -3.2354
 5122TIP3    H236782   2.078   0.090   2.490  1.5170  0.1972  0.1816
 5123TIP3   OH236783   0.671   3.351  12.961  0.1921  0.4905  0.6472
 5123TIP3    H136784   0.635   3.438  12.975  0.1922  0.3628  1.5566
 5123TIP3    H236785   0.763   3.366  12.939  0.1261  0.7323  0.5416
 5124TIP3   OH236786   4.066   3.819   1.648 -0.1018  0.1370  0.5749
 5124TIP3    H136787   4.053   3.724   1.646  1.4630 -0.1616  2.0644
 5124TIP3    H236788   3.984   3.855   1.682 -0.6085 -0.6958  0.2484
 5125TIP3   OH236789   1.637   4.043   0.310 -0.5750 -0.3366  0.1545
 5125TIP3    H136790   1.656   4.110   0.375 -1.1251 -1.0817  1.1109
 5125TIP3    H236791   1.548   4.013   0.331 -0.3748 -1.2971 -0.3060
 5126TIP3   OH236792   4.699   6.172  12.114 -0.0431  0.6903  0.1405
 5126TIP3    H136793   4.769   6.235  12.131 -0.1623  0.7295  0.5015
 5126TIP3    H236794   4.629   6.197  12.174 -0.6215  1.0364 -0.6583
 5127TIP3   OH236795   2.527   2.117  17.179  0.2047  0.0549 -0.0150
 5127TIP3    H136796   2.605   2.168  17.159  1.0764 -1.1086  0.3049
 5127TIP3    H236797   2.464   2.181  17.213  0.4785  1.2525 -1.6053
 5128TIP3   OH236798   2.240   1.494   1.050 -0.2501 -0.2773  0.4622
 5128TIP3    H136799   2.326   1.478   1.089 -0.1065  0.3442  0.4071
 5128TIP3    H236800   2.224   1.416   0.997  0.2906 -0.3881  0.4491
 5129TIP3   OH236801   6.537   3.808  11.125  0.4604 -0.2778  0.5592
 5129TIP3    H136802   6.499   3.805  11.213  1.2210 -1.3805  0.8730
 5129TIP3    H236803   6.484   3.872  11.078  0.4229  0.8081  2.0008
 5130TIP3   OH236804   3.178   3.575  14.107  0.1746  0.7380 -0.0310
 5130TIP3    H136805   3.117   3.588  14.179 -0.7767  2.4701 -1.0760
 5130TIP3    H236806   3.263   3.603  14.142 -0.0764  0.5824  0.7143
 5131TIP3   OH236807   4.805   4.944   4.384 -0.2508 -0.4857  0.3135
 5131TIP3    H136808   4.824   5.023   4.434  1.0620 -0.1379 -0.6670
 5131TIP3    H236809   4.837   4.963   4.295 -0.3986 -1.9071 -0.0739
 5132TIP3   OH236810   3.713   0.450  11.178  0.3540 -0.6989 -0.0113
 5132TIP3    H136811   3.685   0.386  11.113 -0.3468 -1.3953  0.9368
 5132TIP3    H236812   3.698   0.406  11.262 -0.4385  0.8120  0.6758
 5133TIP3   OH236813   0.926   6.080  12.678 -0.3729 -0.1822 -0.1556
 5133TIP3    H136814   0.922   6.048  12.768 -0.0443  0.5543  0.1250
 5133TIP3    H236815   0.839   6.118  12.662 -0.8255 -1.3180 -0.5482
 5134TIP3   OH236816   3.556   3.083   2.283  0.1406  0.1633 -0.1121
 5134TIP3    H136817   3.632   3.116   2.331  0.1911  0.5990 -0.4917
 5134TIP3    H236818   3.485   3.085   2.347  0.0849  1.2347 -0.1876
 5135TIP3   OH236819   5.676   2.185   5.593  0.3575  0.4282 -0.0043
 5135TIP3    H136820   5.737   2.234   5.648 -0.6819  1.2934  0.4191
 5135TIP3    H236821   5.590   2.221   5.614 -0.2905 -0.6276 -0.7247
 5136TIP3   OH236822   0.076   0.266  14.777 -0.0340 -0.1242 -0.1313
 5136TIP3    H136823   0.101   0.324  14.848 -1.9035 -1.0531  1.4007
 5136TIP3    H236824   0.068   0.323  14.700  1.8252  0.9369  0.3982
 5137TIP3   OH236825   6.727   0.683   6.172  0.0026  0.1890 -0.9931
 5137TIP3    H136826   6.656   0.619   6.159 -1.1853  1.6055 -1.7675
 5137TIP3    H236827   6.801   0.647   6.123 -0.2462 -1.1534 -0.4499
 5138TIP3   OH236828   5.947   6.316   0.375  0.0265  0.0030  0.1263
 5138TIP3    H136829   5.874   6.378   0.374  1.1974  1.4211 -1.4705
 5138TIP3    H236830   5.996   6.338   0.454 -0.1307  0.4326  0.1046
 5139TIP3   OH236831   0.507   3.367  10.341  0.0113  0.4520  0.1427
 5139TIP3    H136832   0.495   3.368  10.246 -3.0371  0.6904  0.4141
 5139TIP3    H236833   0.571   3.298  10.357  0.2694  0.1087 -2.0461
 5140TIP3   OH236834   3.448   3.696  12.703 -0.3448 -0.4522 -0.1354
 5140TIP3    H136835   3.422   3.765  12.642  0.4794 -0.2075 -0.2229
 5140TIP3    H236836   3.365   3.656  12.730 -0.9578  1.4302  0.9524
 5141TIP3   OH236837   6.741   5.159   5.637 -0.6755  0.0463 -0.0052
 5141TIP3    H136838   6.748   5.251   5.614  1.4102  0.1190  0.6532
 5141TIP3    H236839   6.724   5.158   5.731  1.6513 -0.1508  0.4883
 5142TIP3   OH236840   0.911   2.333  10.815  0.0492 -1.0704 -0.3147
 5142TIP3    H136841   0.937   2.295  10.732  0.1093 -2.4193  0.3057
 5142TIP3    H236842   0.824   2.297  10.832 -0.5047  0.1797 -0.3839
 5143TIP3   OH236843   0.065   6.548   0.393 -0.1003  0.1168 -0.1658
 5143TIP3    H136844   0.114   6.510   0.320  0.1753  0.0742  0.0437
 5143TIP3    H236845   0.110   6.630   0.413 -0.4182  0.3303 -0.3097
 5144TIP3   OH236846   2.049   1.477  13.545  0.2217 -0.0378 -0.6011
 5144TIP3    H136847   1.981   1.418  13.515  0.2927 -0.4483  0.0244
 5144TIP3    H236848   2.088   1.512  13.465 -1.0327  0.5803 -0.9748
 5145TIP3   OH236849   0.833   0.564   2.219 -0.3745  0.6140 -0.2997
 5145TIP3    H136850   0.763   0.588   2.280  0.8335  1.8455  0.6624
 5145TIP3    H236851   0.813   0.613   2.139  1.5147  4.4263  1.3075
 5146TIP3   OH236852   3.517   6.398   2.801  0.5272 -0.1565 -0.1496
 5146TIP3    H136853   3.561   6.458   2.862  0.1672  2.1245 -1.9658
 5146TIP3    H236854   3.586   6.338   2.773  1.4745  0.7326  0.1970
 5147TIP3   OH236855   0.293   3.313   1.287 -0.1337  0.3733 -0.3838
 5147TIP3    H136856   0.230   3.323   1.216 -0.6800 -1.4306 -0.2133
 5147TIP3    H236857   0.242   3.327   1.366  0.2895  1.5332 -0.2991
 5148TIP3   OH236858   4.488   2.915   5.449  0.1958 -0.0735  0.5666
 5148TIP3    H136859   4.409   2.874   5.485  0.7620 -1.0411  0.7249
 5148TIP3    H236860   4.521   2.852   5.386  0.7148  0.4428  0.3162
 5149TIP3   OH236861   4.267   6.303  15.652  0.2953 -0.4793 -0.0812
 5149TIP3    H136862   4.172   6.303  15.658  0.2362 -0.7552 -0.9505
 5149TIP3    H236863   4.290   6.396  15.644  0.0649 -0.4529 -0.4263
 5150TIP3   OH236864   1.281   5.318   5.857 -0.0556 -0.1503 -0.3789
 5150TIP3    H136865   1.368   5.278   5.865  0.5950  1.1805 -0.5267
 5150TIP3    H236866   1.296   5.397   5.805 -1.2572  0.3920  0.0676
 5151TIP3   OH236867   3.540   5.846  12.072 -0.2409  0.2836  0.3307
 5151TIP3    H136868   3.526   5.880  12.160 -0.7097 -0.6646  0.6376
 5151TIP3    H236869   3.452   5.831  12.037 -0.0855  1.5685 -0.6875
 5152TIP3   OH236870   5.478   6.749   2.514 -0.0167  0.1306  0.6378
 5152TIP3    H136871   5.456   6.769   2.423  0.9203 -1.4696  0.0204
 5152TIP3    H236872   5.526   6.826   2.544 -1.0540  1.0286  0.0588
 5153TIP3   OH236873   5.606   6.289  14.345 -0.3509  0.0549 -0.0618
 5153TIP3    H136874   5.627   6.371  14.301 -1.3039  0.6259  0.5096
 5153TIP3    H236875   5.642   6.221  14.288  4.3430  0.8696  1.4358
 5154TIP3   OH236876   3.413   1.356  16.510  0.0234  0.2383  0.0538
 5154TIP3    H136877   3.404   1.451  16.515 -0.3587  0.2632 -0.9732
 5154TIP3    H236878   3.330   1.322  16.544  0.7203  0.2165  1.8490
 5155TIP3   OH236879   5.243   6.575   2.979 -0.2921  0.1804  0.2358
 5155TIP3    H136880   5.188   6.647   2.950 -1.0286 -0.5731 -0.2764
 5155TIP3    H236881   5.190   6.528   3.044 -0.1000 -0.3149  0.0391
 5156TIP3   OH236882   0.567   1.528  14.725  0.0795 -0.0253 -0.0942
 5156TIP3    H136883   0.553   1.477  14.805  2.5981 -2.3814 -0.9787
 5156TIP3    H236884   0.576   1.618  14.756 -0.3582 -0.6639  2.1002
 5157TIP3   OH236885   5.580   6.020   4.670 -0.4299 -0.6219  0.0908
 5157TIP3    H136886   5.656   6.041   4.725 -0.6957  0.3369  0.1205
 5157TIP3    H236887   5.533   6.103   4.664 -0.7731 -0.8907 -1.0187
 5158TIP3   OH236888   4.772   1.353  15.417 -0.5671 -0.6020  0.4589
 5158TIP3    H136889   4.768   1.328  15.509  0.7065  0.8510  0.9424
 5158TIP3    H236890   4.865   1.350  15.395 -0.9426 -2.2079 -1.1959
 5159TIP3   OH236891   0.273   2.706  16.421 -0.6653 -0.0799 -0.5809
 5159TIP3    H136892   0.355   2.686  16.466 -1.4912 -0.2281  0.9290
 5159TIP3    H236893   0.259   2.799  16.439 -1.4741 -0.3581  0.3005
 5160TIP3   OH236894   1.431   6.504  16.092  0.0420  0.0132 -0.0684
 5160TIP3    H136895   1.414   6.419  16.132 -0.1915 -0.3237 -0.8453
 5160TIP3    H236896   1.451   6.483  16.000 -0.6779  0.8378 -0.4255
 5161TIP3   OH236897   2.239   6.465  16.224 -0.2481 -0.6599  0.6438
 5161TIP3    H136898   2.335   6.462  16.222  0.0107  1.5511  3.2700
 5161TIP3    H236899   2.217   6.533  16.160 -0.5243 -3.6640 -2.8042
 5162TIP3   OH236900   0.650   4.577  10.392  0.1462  0.0967 -0.3711
 5162TIP3    H136901   0.665   4.483  10.405  0.5005 -0.0854 -1.8702
 5162TIP3    H236902   0.562   4.592  10.427 -0.2201 -0.9622 -0.7628
 5163TIP3   OH236903   5.545   4.776  12.026 -0.2989  0.0305  0.2286
 5163TIP3    H136904   5.522   4.766  12.119 -0.0393  0.2078  0.3134
 5163TIP3    H236905   5.637   4.753  12.022  0.3552  2.3055  0.4359
 5164TIP3   OH236906   0.694   6.200  11.707  0.1310  0.3034  0.3807
 5164TIP3    H136907   0.616   6.247  11.677  1.0321  2.7197  1.5204
 5164TIP3    H236908   0.660   6.130  11.763 -1.2918 -0.8411 -1.7589
 5165TIP3   OH236909   2.922   1.778   2.817 -0.5052 -0.2592 -0.2014
 5165TIP3    H136910   3.002   1.726   2.815  0.8365  1.4956  2.4761
 5165TIP3    H236911   2.892   1.772   2.908 -1.1539  2.2921 -0.1765
 5166TIP3   OH236912   3.673   5.188  15.188  0.1474 -0.4521  0.1069
 5166TIP3    H136913   3.679   5.146  15.102 -0.9467 -1.2819  0.4120
 5166TIP3    H236914   3.736   5.139  15.242  0.5620 -0.1741 -0.1189
 5167TIP3   OH236915   0.898   1.957   4.009 -0.3523 -0.9391 -0.1700
 5167TIP3    H136916   0.948   2.032   4.042 -0.6634 -0.7596 -0.0935
 5167TIP3    H236917   0.962   1.887   3.998 -0.3477 -1.2190  1.4751
 5168TIP3   OH236918   1.888   0.347  16.096  0.2164 -0.0247  0.0414
 5168TIP3    H136919   1.825   0.418  16.085 -1.2604 -1.4585 -1.2710
 5168TIP3    H236920   1.894   0.335  16.191  0.5609  1.8729  0.2904
 5169TIP3   OH236921   3.073   0.236  12.487  0.0114  0.4179 -0.9410
 5169TIP3    H136922   3.138   0.237  12.557 -0.6424  2.9989 -0.2509
 5169TIP3    H236923   3.066   0.328  12.459 -3.3161  0.3129 -0.9364
 5170TIP3   OH236924   4.828   6.267   5.027  0.3145  0.0531  0.3742
 5170TIP3    H136925   4.863   6.306   5.107 -2.8441  0.8188  1.5468
 5170TIP3    H236926   4.770   6.334   4.991  2.3189  0.0997 -3.1867
 5171TIP3   OH236927   2.705   0.601  16.649 -0.4196  0.0813  0.2488
 5171TIP3    H136928   2.642   0.564  16.588 -0.8526 -0.4753  1.0211
 5171TIP3    H236929   2.652   0.637  16.721  0.0857  0.5994  0.3768
 5172TIP3   OH236930   6.344   4.577  14.608 -0.0975  0.1549  0.2649
 5172TIP3    H136931   6.416   4.631  14.639 -0.1786  0.2183  0.3427
 5172TIP3    H236932   6.266   4.630  14.622 -0.0573  0.5430 -0.8689
 5173TIP3   OH236933   3.667   6.028  15.592  0.5959 -0.1071  0.1549
 5173TIP3    H136934   3.652   5.990  15.505 -1.3027  0.1762  0.3064
 5173TIP3    H236935   3.616   6.109  15.591 -0.5604 -0.7519  1.9675
 5174TIP3   OH236936   0.828   4.845  16.539 -0.2998 -0.1293 -0.4665
 5174TIP3    H136937   0.789   4.898  16.470  0.5665 -0.2636 -1.0794
 5174TIP3    H236938   0.822   4.899  16.618 -0.4214  0.4243 -0.8514
 5175TIP3   OH236939   5.533   5.347   5.697 -0.2825  0.3863  0.2416
 5175TIP3    H136940   5.449   5.378   5.731 -1.4507 -0.3184 -1.7780
 5175TIP3    H236941   5.521   5.253   5.686  0.1451  0.5005 -1.5884
 5176TIP3   OH236942   6.372   0.760  13.647 -0.3607  0.2864  0.6325
 5176TIP3    H136943   6.359   0.830  13.711 -3.2072  0.1827  0.2634
 5176TIP3    H236944   6.410   0.688  13.698  0.0323  1.1445  1.5904
 5177TIP3   OH236945   5.797   1.788   0.453  0.1998 -0.7567  0.3061
 5177TIP3    H136946   5.713   1.780   0.499  1.3627 -2.6501  2.3330
 5177TIP3    H236947   5.821   1.697   0.432  2.1357 -0.3603  0.6180
 5178TIP3   OH236948   1.147   1.376  10.532  0.5804 -0.2379 -0.6814
 5178TIP3    H136949   1.242   1.366  10.542  0.4235 -1.3296 -0.1261
 5178TIP3    H236950   1.110   1.324  10.603 -0.4354  0.6567 -0.5351
 5179TIP3   OH236951   2.123   5.681   4.822 -0.0154  0.6883  0.0224
 5179TIP3    H136952   2.086   5.642   4.901  0.2847 -1.0664 -0.6544
 5179TIP3    H236953   2.096   5.773   4.825 -1.5909  0.2253  1.2020
 5180TIP3   OH236954   5.459   4.731  13.729  0.0566  0.4627 -0.2448
 5180TIP3    H136955   5.501   4.816  13.733  1.3882 -0.2120  0.7902
 5180TIP3    H236956   5.445   4.715  13.636  0.0910  1.6520 -0.4637
 5181TIP3   OH236957   1.480   0.676  11.426 -0.3180 -0.0064  0.2724
 5181TIP3    H136958   1.455   0.591  11.389 -1.7867 -1.0466  3.2808
 5181TIP3    H236959   1.416   0.738  11.392 -0.8373 -0.6510  0.0657
 5182TIP3   OH236960   4.212   0.269   0.358  0.5601 -0.2916 -0.1262
 5182TIP3    H136961   4.258   0.327   0.418 -1.0592  0.8601  0.0609
 5182TIP3    H236962   4.193   0.323   0.281  0.6273 -1.1084 -0.7387
 5183TIP3   OH236963   1.175   5.235  12.265 -0.2896  0.3629  0.8266
 5183TIP3    H136964   1.208   5.293  12.333  0.3045  2.1428 -0.8805
 5183TIP3    H236965   1.134   5.163  12.312  1.2596  0.8299  3.0425
 5184TIP3   OH236966   4.830   0.266   5.291  0.0946 -0.1763  0.7322
 5184TIP3    H136967   4.864   0.349   5.323  0.4216  0.4410 -1.0857
 5184TIP3    H236968   4.741   0.286   5.261  1.8852  1.1375 -4.9702
 5185TIP3   OH236969   2.644   3.623  15.269 -0.1923  0.1713  0.2631
 5185TIP3    H136970   2.697   3.549  15.298  0.2016  0.2923 -0.1521
 5185TIP3    H236971   2.575   3.629  15.336 -1.2526 -1.6297 -0.5731
 5186TIP3   OH236972   0.531   3.912   0.875  0.5019  0.1555 -0.0598
 5186TIP3    H136973   0.533   3.934   0.782 -1.5735 -1.7199 -0.6565
 5186TIP3    H236974   0.444   3.940   0.904 -0.2239 -2.2638  0.3904
 5187TIP3   OH236975   2.996   1.656   3.602 -0.3058  0.5727 -0.8308
 5187TIP3    H136976   2.913   1.704   3.605 -1.4914 -1.2988  2.3443
 5187TIP3    H236977   2.970   1.567   3.578  0.5389 -0.2839  1.1971
 5188TIP3   OH236978   6.745   0.599  11.210 -0.6794 -0.0831  0.0958
 5188TIP3    H136979   6.789   0.669  11.258 -0.7400  0.2709 -0.3574
 5188TIP3    H236980   6.670   0.642  11.169 -0.9909 -0.5157  0.2120
 5189TIP3   OH236981   2.215   4.667   1.243 -0.0087 -0.2336  0.2432
 5189TIP3    H136982   2.156   4.592   1.252 -0.3664  0.2099  2.0097
 5189TIP3    H236983   2.159   4.743   1.259  1.1168  0.1707  2.7589
 5190TIP3   OH236984   5.310   4.476   1.928 -0.5066  0.3668  0.2131
 5190TIP3    H136985   5.215   4.471   1.936 -0.6764 -0.0192 -1.6117
 5190TIP3    H236986   5.343   4.451   2.015 -2.0361 -1.3001  0.3839
 5191TIP3   OH236987   0.399   2.067   2.919  0.7850  0.3478 -0.8014
 5191TIP3    H136988   0.442   2.141   2.961  0.9848  0.8209 -1.8255
 5191TIP3    H236989   0.429   2.069   2.828  0.0541 -0.4263 -1.0756
 5192TIP3   OH236990   5.343   6.152   5.646  0.2204 -0.2333 -0.8088
 5192TIP3    H136991   5.306   6.233   5.608 -0.2744  0.6526  1.3905
 5192TIP3    H236992   5.272   6.088   5.638 -0.1201  0.1344 -0.8124
 5193TIP3   OH236993   3.882   3.055   0.921 -0.0628  0.0476  0.2772
 5193TIP3    H136994   3.934   3.062   1.001 -1.1029 -1.4216  1.1423
 5193TIP3    H236995   3.831   3.136   0.918  1.8022  1.2475 -0.2832
 5194TIP3   OH236996   2.797   1.414  16.691 -0.5379 -0.3186  0.1553
 5194TIP3    H136997   2.749   1.489  16.657  1.1312  0.5376 -0.4432
 5194TIP3    H236998   2.761   1.400  16.779 -2.3430 -0.2022 -0.5262
 5195TIP3   OH236999   2.902   2.517   2.114  0.3022 -0.1647  0.6082
 5195TIP3    H137000   2.889   2.602   2.156 -0.8649  0.0885 -0.2014
 5195TIP3    H237001   2.814   2.493   2.083  0.5778 -1.7448  0.9797
 5196TIP3   OH237002   3.187   2.266   5.979 -0.4309  0.1575 -0.5083
 5196TIP3    H137003   3.179   2.289   5.887  3.1410 -2.2645 -1.6242
 5196TIP3    H237004   3.141   2.182   5.986  1.4127 -0.9102 -0.7611
 5197TIP3   OH237005   3.861   0.730   3.257  0.1806 -0.4010  0.2822
 5197TIP3    H137006   3.797   0.796   3.229 -0.2367 -0.4298  1.1299
 5197TIP3    H237007   3.866   0.668   3.184 -1.6428 -1.0353  0.6386
 5198TIP3   OH237008   4.325   1.709  14.480  0.3711 -0.3282 -0.5751
 5198TIP3    H137009   4.230   1.719  14.487  0.6351  1.5337  1.5907
 5198TIP3    H237010   4.348   1.650  14.551  0.8068 -1.2782 -1.4835
 5199TIP3   OH237011   1.863   3.133   1.936  0.0691 -0.1246 -0.0430
 5199TIP3    H137012   1.819   3.125   2.020 -0.3543  0.9365 -0.1431
 5199TIP3    H237013   1.793   3.120   1.871  0.2209 -0.0905 -0.2156
 5200TIP3   OH237014   6.623   6.375   4.127  0.1842 -0.0783 -0.0177
 5200TIP3    H137015   6.640   6.454   4.076  1.3247 -0.2784  0.0128
 5200TIP3    H237016   6.701   6.365   4.182 -0.5875 -0.4250  1.0348
 5201TIP3   OH237017   6.383   2.673   5.726 -0.3893  0.2626 -0.5058
 5201TIP3    H137018   6.477   2.695   5.728 -0.1654 -0.2016 -3.0752
 5201TIP3    H237019   6.340   2.754   5.698 -0.6799  0.2362 -0.1423
 5202TIP3   OH237020   6.503   3.862  16.711  0.0698 -0.5195  0.4430
 5202TIP3    H137021   6.556   3.906  16.777 -1.6029  1.3591  0.6043
 5202TIP3    H237022   6.417   3.852  16.751 -0.9562  0.5770 -1.3419
 5203TIP3   OH237023   5.216   5.898  16.025  0.2144  0.3324 -0.3491
 5203TIP3    H137024   5.195   5.926  16.114  0.5850 -0.2011 -0.0873
 5203TIP3    H237025   5.203   5.976  15.971 -0.9959  0.4091  0.0146
 5204TIP3   OH237026   0.751   6.414   1.105  0.0970 -1.0711  0.3592
 5204TIP3    H137027   0.830   6.421   1.051 -0.6928  1.0381 -0.6519
 5204TIP3    H237028   0.687   6.371   1.048 -0.7068  1.0648 -0.4597
 5205TIP3   OH237029   4.951   1.134   1.583 -0.5149 -0.6980 -0.6585
 5205TIP3    H137030   4.978   1.104   1.497 -0.4415 -2.7078  0.0125
 5205TIP3    H237031   4.882   1.073   1.610 -2.3375  1.3887 -0.2989
 5206TIP3   OH237032   5.538   3.696  16.603 -0.1870 -0.3314  1.2784
 5206TIP3    H137033   5.528   3.630  16.535 -3.0597 -1.5400  2.7244
 5206TIP3    H237034   5.576   3.648  16.677  1.8684  0.7203  0.9759
 5207TIP3   OH237035   4.257   0.454   5.889  0.6887 -0.1418  0.1336
 5207TIP3    H137036   4.224   0.369   5.918  0.1482  0.4316  1.2397
 5207TIP3    H237037   4.180   0.510   5.886  0.8638  0.0566 -1.6367
 5208TIP3   OH237038   5.632   5.793  14.283  0.4779  0.0612  0.2532
 5208TIP3    H137039   5.583   5.711  14.279 -0.1330  0.4607 -0.8354
 5208TIP3    H237040   5.724   5.766  14.283  0.3932 -0.6282 -2.8970
 5209TIP3   OH237041   5.628   1.800  13.188  0.3428 -0.0997 -1.2062
 5209TIP3    H137042   5.552   1.786  13.132 -0.5892  1.2209 -0.3127
 5209TIP3    H237043   5.604   1.762  13.272  0.0102  1.6963 -0.4467
 5210TIP3   OH237044   4.899   5.501  11.102  0.3657 -0.0891  0.1308
 5210TIP3    H137045   4.846   5.559  11.048 -2.3928 -0.2311  2.4138
 5210TIP3    H237046   4.896   5.540  11.190  2.4902 -1.1870  0.7639
 5211TIP3   OH237047   0.147   0.424  13.655 -0.2122  0.0535 -0.0662
 5211TIP3    H137048   0.219   0.366  13.678 -0.0810  0.8233  1.7188
 5211TIP3    H237049   0.075   0.365  13.631  0.0019 -0.8666  1.4004
 5212TIP3   OH237050   1.778   1.303   4.372 -0.0669 -0.4558  0.2886
 5212TIP3    H137051   1.846   1.335   4.313 -1.2772  1.0030 -0.3651
 5212TIP3    H237052   1.822   1.237   4.425  1.4719 -0.6313 -1.1261
 5213TIP3   OH237053   2.102   4.623  15.593  0.1450 -0.3678  0.6843
 5213TIP3    H137054   2.182   4.577  15.618 -1.4648 -1.8868  3.5485
 5213TIP3    H237055   2.032   4.563  15.617 -1.9729  2.0845  1.0292
 5214TIP3   OH237056   0.913   5.093   0.829  0.1339 -0.6465 -0.0261
 5214TIP3    H137057   0.953   5.142   0.901  1.3824 -0.5497 -0.7487
 5214TIP3    H237058   0.824   5.126   0.823  0.6830  0.9322  0.0738
 5215TIP3   OH237059   4.573   3.648   1.608 -0.7760 -0.4756  0.4711
 5215TIP3    H137060   4.556   3.703   1.684 -2.0687 -0.7701  0.4180
 5215TIP3    H237061   4.486   3.630   1.571 -0.2797 -1.4341 -0.2935
 5216TIP3   OH237062   3.928   1.341  14.127 -0.6746 -0.4070  0.6032
 5216TIP3    H137063   3.866   1.279  14.087 -0.4375  0.0254 -0.4726
 5216TIP3    H237064   3.927   1.417  14.069  0.5035 -0.2006  0.8280
 5217TIP3   OH237065   4.038   3.850  13.468  0.0138  0.4235  0.5995
 5217TIP3    H137066   3.949   3.879  13.484 -1.0521 -2.3449  0.2493
 5217TIP3    H237067   4.076   3.837  13.555 -0.8729 -0.8886  0.8217
 5218TIP3   OH237068   1.063   3.543  17.337 -0.4285 -0.2925 -0.2046
 5218TIP3    H137069   0.994   3.504  17.283 -2.4353  2.4748  0.1420
 5218TIP3    H237070   1.016   3.594  17.403  1.9006 -2.3083  3.3956
 5219TIP3   OH237071   4.879   4.346  12.769  0.0794 -0.3317  0.3538
 5219TIP3    H137072   4.931   4.348  12.688  1.5851  0.4470  1.2841
 5219TIP3    H237073   4.872   4.438  12.795 -0.5520 -0.5577  1.0069
 5220TIP3   OH237074   6.548   5.789  16.601 -0.0029 -0.2768 -0.4726
 5220TIP3    H137075   6.622   5.734  16.573 -0.6961 -1.2004 -0.5354
 5220TIP3    H237076   6.541   5.856  16.533  1.5546  0.5830  0.1712
 5221TIP3   OH237077   2.063   6.124  17.133 -0.0170  0.0199 -0.0173
 5221TIP3    H137078   2.142   6.090  17.091 -0.4757 -0.5523 -0.4307
 5221TIP3    H237079   2.000   6.052  17.128 -1.2421  1.1299 -1.4885
 5222TIP3   OH237080   5.111   6.203  15.896 -0.0071 -0.6827  0.5838
 5222TIP3    H137081   5.129   6.246  15.813  1.6764  2.2738  2.3141
 5222TIP3    H237082   5.029   6.155  15.881  1.0590 -1.6434 -3.1614
 5223TIP3   OH237083   1.271   2.339   2.360  0.2519 -0.2754 -0.2154
 5223TIP3    H137084   1.315   2.268   2.406 -1.1774 -0.6993  0.5702
 5223TIP3    H237085   1.182   2.306   2.345 -0.5893  1.5140  0.5988
 5224TIP3   OH237086   3.108   0.845  16.843  0.2299  0.0730 -0.1806
 5224TIP3    H137087   3.061   0.812  16.919 -0.1580  1.0634  0.0236
 5224TIP3    H237088   3.067   0.801  16.769 -0.2312  0.0514  0.0835
 5225TIP3   OH237089   1.985   6.305  16.321  0.0992  0.0172 -0.2477
 5225TIP3    H137090   1.930   6.356  16.261  0.5718 -0.6179 -1.2409
 5225TIP3    H237091   2.045   6.369  16.359  0.7609  0.2195 -1.5724
 5226TIP3   OH237092   2.146   4.864  16.647  0.6245  0.5198 -0.0288
 5226TIP3    H137093   2.186   4.948  16.625  1.3639 -0.0740 -1.0507
 5226TIP3    H237094   2.183   4.802  16.584  0.0130 -0.5572  0.6253
 5227TIP3   OH237095   0.123   6.271  11.288 -0.1460  0.7040 -0.3847
 5227TIP3    H137096   0.049   6.324  11.256 -1.1319 -0.8488 -0.8081
 5227TIP3    H237097   0.083   6.189  11.316  1.5647 -0.7352 -1.9215
 5228TIP3   OH237098   4.627   6.007  15.827 -0.3286  0.0339  0.1250
 5228TIP3    H137099   4.565   6.041  15.892 -0.2426 -2.2859  1.5649
 5228TIP3    H237100   4.580   6.012  15.744 -1.7488  0.0821  0.8953
 5229TIP3   OH237101   6.398   4.778   6.114  0.1190 -0.3433  0.1788
 5229TIP3    H137102   6.442   4.710   6.164  1.0711  0.7424  0.8593
 5229TIP3    H237103   6.419   4.859   6.160 -1.0443  0.4178 -0.5696
 5230TIP3   OH237104   5.985   4.408   0.622  0.5347  0.0173 -0.4566
 5230TIP3    H137105   6.009   4.416   0.530  1.6158  0.4074 -0.1557
 5230TIP3    H237106   5.930   4.330   0.626  1.0525 -0.4091 -1.3195
 5231TIP3   OH237107   4.024   1.476   0.875  0.9023  0.0379 -0.0646
 5231TIP3    H137108   4.091   1.487   0.806  1.3135 -2.2395 -0.1176
 5231TIP3    H237109   3.957   1.422   0.834 -0.0731  0.7343  0.5876
 5232TIP3   OH237110   1.007   2.432  11.553 -0.1459  0.2248 -0.3291
 5232TIP3    H137111   0.919   2.408  11.522 -0.1722 -1.0749  0.6938
 5232TIP3    H237112   0.997   2.522  11.584 -1.7035 -0.5923  1.7866
 5233TIP3   OH237113   3.147   6.290  14.870  0.1394  0.0479  0.0998
 5233TIP3    H137114   3.203   6.257  14.800 -0.5576  0.4827 -0.6788
 5233TIP3    H237115   3.135   6.215  14.928  0.7636 -0.3063 -0.2148
 5234TIP3   OH237116   2.924   5.488  11.419  0.3402  0.1745  0.4437
 5234TIP3    H137117   2.983   5.433  11.472 -0.2762 -0.6738  0.2730
 5234TIP3    H237118   2.843   5.437  11.414 -0.3314  1.2242  0.4769
 5235TIP3   OH237119   5.617   2.000   3.971  0.2075 -0.0495 -0.4513
 5235TIP3    H137120   5.706   2.032   3.977  0.6068 -1.3199  3.1880
 5235TIP3    H237121   5.625   1.905   3.981 -1.5241 -0.0513  1.9131
 5236TIP3   OH237122   4.528   3.292   5.582  0.1751 -0.1170 -0.5982
 5236TIP3    H137123   4.457   3.262   5.639  1.1407  0.1129  0.7908
 5236TIP3    H237124   4.509   3.385   5.566  1.1635  0.5179  1.4798
 5237TIP3   OH237125   0.207   6.572  13.386 -0.1432 -0.2859  0.2631
 5237TIP3    H137126   0.174   6.573  13.476  0.0172  1.7494  0.3458
 5237TIP3    H237127   0.274   6.641  13.384 -0.8749  0.4497 -1.6590
 5238TIP3   OH237128   2.150   0.111  14.262 -0.3490  0.1031  0.1052
 5238TIP3    H137129   2.203   0.188  14.284  1.8168 -1.0962 -0.6157
 5238TIP3    H237130   2.128   0.072  14.347 -1.0899  1.2330  0.4565
 5239TIP3   OH237131   1.319   4.754   4.261 -0.2498 -0.0812 -0.2632
 5239TIP3    H137132   1.413   4.768   4.276 -0.3681 -0.6255  1.1239
 5239TIP3    H237133   1.316   4.691   4.189  0.4853 -0.5966  0.1405
 5240TIP3   OH237134   3.650   2.418  16.017 -0.1436 -0.3592 -0.5323
 5240TIP3    H137135   3.646   2.511  16.039  0.7201  0.7957 -4.5151
 5240TIP3    H237136   3.736   2.390  16.050 -0.9717 -0.2624  1.9620
 5241TIP3   OH237137   2.027   2.407  17.105 -0.5496  0.0215 -0.1318
 5241TIP3    H137138   2.108   2.456  17.095 -0.4560 -0.3743 -1.4963
 5241TIP3    H237139   2.049   2.317  17.081 -0.7883 -0.6839  2.0504
 5242TIP3   OH237140   1.363   1.110   1.173  0.0011 -0.4627 -0.4925
 5242TIP3    H137141   1.394   1.103   1.264  1.5517 -0.7865 -1.0075
 5242TIP3    H237142   1.291   1.048   1.168 -0.2667 -0.2663  0.5754
 5243TIP3   OH237143   0.061   1.438  14.059  0.1845  0.5777 -0.1588
 5243TIP3    H137144   0.074   1.422  13.966  0.8640 -0.1788  0.0572
 5243TIP3    H237145  -0.004   1.508  14.062  2.0832  2.5218 -1.2593
 5244TIP3   OH237146   3.444   4.078  10.722  0.4696  0.4417 -0.1162
 5244TIP3    H137147   3.354   4.065  10.694  0.0910 -2.0943  1.8769
 5244TIP3    H237148   3.460   4.172  10.712 -1.5583  0.6145 -2.7274
 5245TIP3   OH237149   3.397   4.536   1.160 -0.3295 -0.3955 -0.5448
 5245TIP3    H137150   3.416   4.602   1.226 -0.4154  0.3634 -1.2576
 5245TIP3    H237151   3.449   4.562   1.084 -1.6581 -0.1480 -1.4201
 5246TIP3   OH237152   6.468   6.257   3.906 -0.0566  0.3121 -0.0391
 5246TIP3    H137153   6.376   6.248   3.929 -0.1125  1.2257  0.1483
 5246TIP3    H237154   6.509   6.293   3.985  0.3661  0.3741 -0.2839
 5247TIP3   OH237155   1.148   1.457  11.433  0.1753  0.2437  0.5983
 5247TIP3    H137156   1.066   1.503  11.449 -0.1964  0.7055 -2.1173
 5247TIP3    H237157   1.125   1.364  11.433  0.4557  0.0893  3.6156
 5248TIP3   OH237158   0.936   3.474   1.646 -0.2729  0.1439  0.2374
 5248TIP3    H137159   0.886   3.550   1.615  0.5255 -0.0692 -1.7672
 5248TIP3    H237160   0.893   3.399   1.605 -0.2317 -0.3705  1.1128
 5249TIP3   OH237161   6.531   1.132  17.213 -0.3051 -0.1678 -0.0077
 5249TIP3    H137162   6.441   1.130  17.178 -0.4781 -1.3645  0.4415
 5249TIP3    H237163   6.529   1.071  17.287  0.9960 -0.5706 -0.2783
 5250TIP3   OH237164   5.384   6.085  17.159  0.2262 -0.5690 -0.1132
 5250TIP3    H137165   5.384   6.066  17.253  2.6759 -0.6252 -0.0842
 5250TIP3    H237166   5.344   6.008  17.119 -0.1295 -0.8792  0.8159
 5251TIP3   OH237167   4.911   6.339   1.600 -0.2383  0.0805 -0.3908
 5251TIP3    H137168   4.988   6.323   1.545  1.3468  2.2412  1.0314
 5251TIP3    H237169   4.866   6.254   1.603  1.4687 -0.9791 -2.1702
 5252TIP3   OH237170   3.090   4.505   2.081  0.6325  0.6399 -0.0966
 5252TIP3    H137171   3.035   4.544   2.013 -1.6786  0.5273  1.6086
 5252TIP3    H237172   3.089   4.411   2.063  1.1272  0.7291 -0.6360
 5253TIP3   OH237173   3.479   2.681   0.967 -0.5767 -0.2195  0.2814
 5253TIP3    H137174   3.560   2.731   0.960 -1.0838  0.5850 -0.0544
 5253TIP3    H237175   3.455   2.661   0.877  0.1779 -2.0383  0.4421
 5254TIP3   OH237176   1.824   2.503  15.864 -0.0432 -0.6349 -0.0265
 5254TIP3    H137177   1.768   2.427  15.847  0.2376 -0.8325 -0.0831
 5254TIP3    H237178   1.885   2.473  15.932  0.3206 -0.5893 -0.3308
 5255TIP3   OH237179   0.013   0.978   5.509 -0.5456  0.3299 -0.3685
 5255TIP3    H137180   0.061   0.965   5.591  0.1767  0.5761 -0.7438
 5255TIP3    H237181   0.069   0.939   5.442 -1.7866 -1.1769 -0.5941
 5256TIP3   OH237182   0.957   0.286  17.121 -0.3685  0.1659  0.3713
 5256TIP3    H137183   1.012   0.342  17.176  1.1764 -0.7300 -0.2090
 5256TIP3    H237184   0.919   0.346  17.057  1.6519  0.5546 -0.5594
 5257TIP3   OH237185   0.481   3.076   5.333  0.0429 -0.4216  0.3032
 5257TIP3    H137186   0.496   2.984   5.309 -0.2634 -0.6705  1.0397
 5257TIP3    H237187   0.542   3.092   5.405 -0.0042 -0.0850  0.2663
 5258TIP3   OH237188   1.292   6.451  14.452  0.5440  0.1348  0.5433
 5258TIP3    H137189   1.243   6.496  14.384  0.3908  1.0624  1.2512
 5258TIP3    H237190   1.268   6.359  14.441 -0.9194  0.4904  0.5008
 5259TIP3   OH237191   4.593   1.462  13.676 -0.1657  0.6694  0.5001
 5259TIP3    H137192   4.507   1.470  13.635 -0.3103 -0.7164  0.4943
 5259TIP3    H237193   4.602   1.369  13.695  2.8131  0.0792 -2.7351
 5260TIP3   OH237194   1.139   2.473  15.964 -0.2221  0.1115  0.3906
 5260TIP3    H137195   1.050   2.448  15.991 -1.3498  3.0140 -0.3370
 5260TIP3    H237196   1.184   2.493  16.047 -1.0747  1.0468  0.6511
 5261TIP3   OH237197   5.628   6.249  15.244  0.3778 -0.1124  0.4543
 5261TIP3    H137198   5.618   6.344  15.248  0.1423 -0.1666  1.7754
 5261TIP3    H237199   5.543   6.215  15.272  0.8542 -0.6929  1.2555
 5262TIP3   OH237200   2.460   1.445  11.340 -0.1422  0.3963 -0.0125
 5262TIP3    H137201   2.377   1.440  11.292 -1.2334 -0.5503  1.8769
 5262TIP3    H237202   2.449   1.518  11.401 -0.6298 -1.3084  2.0302
 5263TIP3   OH237203   5.399   5.909   1.992 -0.3789 -0.3291 -0.0647
 5263TIP3    H137204   5.428   5.879   2.078 -1.1196 -1.4135 -0.1694
 5263TIP3    H237205   5.473   5.958   1.958 -0.2139  0.4627  1.3496
 5264TIP3   OH237206   1.329   1.086  14.795 -0.0398 -0.1540  0.1969
 5264TIP3    H137207   1.385   1.030  14.849 -1.6017 -0.8726  1.1574
 5264TIP3    H237208   1.347   1.058  14.705  0.5668 -0.8957  0.5354
 5265TIP3   OH237209   6.017   3.019  15.624  0.0349 -0.3259  0.3304
 5265TIP3    H137210   5.990   3.083  15.690  1.4994  1.1639 -0.4503
 5265TIP3    H237211   6.096   2.980  15.659  0.4069 -0.0601 -0.1941
 5266TIP3   OH237212   3.354   3.846   5.682 -0.3147  0.2783 -0.2832
 5266TIP3    H137213   3.420   3.916   5.679  0.9867 -0.7699  1.5030
 5266TIP3    H237214   3.403   3.766   5.661 -1.0237 -0.4987  0.8909
 5267TIP3   OH237215   4.549   4.100   3.896  0.0445 -0.2384 -0.5884
 5267TIP3    H137216   4.469   4.105   3.844 -0.8522 -0.3750  0.7116
 5267TIP3    H237217   4.518   4.106   3.987  1.4568 -0.9586 -0.0331
 5268TIP3   OH237218   1.573   4.706   5.596  0.3020  1.2166  0.1373
 5268TIP3    H137219   1.663   4.699   5.565 -0.2389 -1.9880 -1.0130
 5268TIP3    H237220   1.528   4.756   5.527  0.5813  0.1686 -0.8273
 5269TIP3   OH237221   5.731   3.062   4.100 -0.0334  0.0162 -0.2083
 5269TIP3    H137222   5.783   3.051   4.179  1.1224 -1.4952 -1.1090
 5269TIP3    H237223   5.776   3.130   4.050  1.1073 -1.2222 -0.9415
 5270TIP3   OH237224   6.259   6.009   0.242 -0.0374 -0.2919 -0.3390
 5270TIP3    H137225   6.229   5.987   0.330  2.4513  0.1603  0.7288
 5270TIP3    H237226   6.184   6.050   0.199 -1.1262  0.0631  1.7988
 5271TIP3   OH237227   3.693   4.373  17.058  0.5300  0.1589  0.4187
 5271TIP3    H137228   3.674   4.432  17.131  1.0403 -0.2690  0.9124
 5271TIP3    H237229   3.659   4.288  17.087  3.6897 -0.8357  1.6936
 5272TIP3   OH237230   3.946   3.876  15.381  0.6827  0.0672  0.1764
 5272TIP3    H137231   4.007   3.802  15.383  1.2496  0.5510  0.9398
 5272TIP3    H237232   4.000   3.951  15.354  0.2669  0.3529  0.1303
 5273TIP3   OH237233   2.026   3.579  14.789  0.2832 -0.2039  0.0696
 5273TIP3    H137234   2.113   3.548  14.813  1.1671  1.9911 -0.0910
 5273TIP3    H237235   1.984   3.600  14.873  0.7468  0.8078  0.0593
 5274TIP3   OH237236   4.780   0.730  16.214 -0.0564 -0.2834  0.1984
 5274TIP3    H137237   4.844   0.674  16.171 -1.4680 -2.3097  0.5877
 5274TIP3    H237238   4.828   0.811  16.232  2.5452 -1.8377  0.8970
 5275TIP3   OH237239   0.527   3.079  16.138 -0.1376 -0.0307 -0.1718
 5275TIP3    H137240   0.606   3.043  16.177  0.0233  0.4951  0.0025
 5275TIP3    H237241   0.555   3.110  16.051 -0.3172 -0.4888 -0.3961
 5276TIP3   OH237242   3.437   5.596   0.408 -0.4727 -0.2610 -0.6226
 5276TIP3    H137243   3.530   5.574   0.399 -1.0744 -3.0823 -0.9864
 5276TIP3    H237244   3.435   5.691   0.420  2.3078  0.1169 -2.3839
 5277TIP3   OH237245   3.380   6.144  14.777  0.0601 -0.2690 -0.1872
 5277TIP3    H137246   3.449   6.111  14.720  1.0884  0.7729  0.4049
 5277TIP3    H237247   3.404   6.114  14.864 -0.0081  0.4426  0.0848
 5278TIP3   OH237248   2.974   4.538  16.413 -0.1829  0.5742 -0.1059
 5278TIP3    H137249   3.015   4.467  16.463  1.1998  1.2577 -0.2148
 5278TIP3    H237250   2.978   4.509  16.322 -0.9496  0.1683 -0.0164
 5279TIP3   OH237251   2.214   4.674  13.297 -0.0571  0.0306  0.2435
 5279TIP3    H137252   2.279   4.725  13.249 -1.6296  1.5067 -0.4513
 5279TIP3    H237253   2.141   4.665  13.236 -0.0242 -2.7816  0.4992
 5280TIP3   OH237254   2.504   0.237   3.657  0.0143  0.2463  0.2203
 5280TIP3    H137255   2.483   0.193   3.739 -0.0458  0.6967  0.4524
 5280TIP3    H237256   2.450   0.316   3.658 -0.5563 -0.1186 -0.6077
 5281TIP3   OH237257   4.437   4.724  13.728 -0.3558 -0.1413 -0.2559
 5281TIP3    H137258   4.474   4.740  13.815  1.9235 -1.5954 -0.8884
 5281TIP3    H237259   4.399   4.808  13.703 -2.2028  0.0127  2.5986
 5282TIP3   OH237260   4.926   4.961   5.813 -0.6186  0.3077 -0.2392
 5282TIP3    H137261   4.926   4.958   5.717 -1.9333 -2.2572 -0.2681
 5282TIP3    H237262   4.995   4.900   5.839 -0.9792  0.1528  0.3974
 5283TIP3   OH237263   2.182   4.588   1.544  0.2842  0.0681  0.0609
 5283TIP3    H137264   2.207   4.529   1.473  1.0590 -1.2583  1.3822
 5283TIP3    H237265   2.097   4.555   1.574 -1.2673  2.1079 -1.7663
 5284TIP3   OH237266   4.386   1.557  11.982  0.3586 -0.3776  0.0384
 5284TIP3    H137267   4.415   1.496  11.915 -0.8529 -1.6902  0.6587
 5284TIP3    H237268   4.456   1.623  11.987  1.8370 -1.8500 -0.4534
 5285TIP3   OH237269   4.458   0.521   0.237  0.3778  0.0286  0.7919
 5285TIP3    H137270   4.435   0.475   0.318 -0.2546 -0.6390  0.2498
 5285TIP3    H237271   4.396   0.594   0.232  0.5498  0.1906  1.0097
 5286TIP3   OH237272   4.003   4.728  14.383  0.2059  0.3144  0.0684
 5286TIP3    H137273   3.911   4.753  14.377 -0.1271 -0.0001  2.6698
 5286TIP3    H237274   4.001   4.634  14.399  0.9632  0.3770  0.5465
 5287TIP3   OH237275   6.549   4.586   2.644  0.8042  0.1026 -0.5492
 5287TIP3    H137276   6.511   4.674   2.636  3.3085  1.2204 -1.0985
 5287TIP3    H237277   6.610   4.593   2.718  0.5867 -1.3887 -0.1853
 5288TIP3   OH237278   6.132   5.766  16.173  0.2842  0.1941 -0.2050
 5288TIP3    H137279   6.109   5.858  16.158  1.2100  0.1711 -2.2158
 5288TIP3    H237280   6.226   5.768  16.193 -0.0357 -0.2095  1.5140
 5289TIP3   OH237281   2.075   4.102  15.089  0.8010  0.0907 -0.3607
 5289TIP3    H137282   2.016   4.149  15.147  1.1904  0.6386 -0.3990
 5289TIP3    H237283   2.161   4.142  15.105  1.0922 -0.4330 -0.5806
 5290TIP3   OH237284   2.812   5.854   5.155 -0.3815 -0.2858 -0.2549
 5290TIP3    H137285   2.903   5.847   5.183  0.0154  0.1965 -1.3722
 5290TIP3    H237286   2.777   5.927   5.207  0.5199  1.0079 -1.3756
 5291TIP3   OH237287   0.738   1.176   1.999  0.2690  0.4720  0.1972
 5291TIP3    H137288   0.660   1.124   1.978 -0.5950  1.5180  0.6964
 5291TIP3    H237289   0.760   1.220   1.917  3.4767 -3.6443 -1.4366
 5292TIP3   OH237290   2.058   1.103  10.850 -0.6809 -0.1224 -0.2072
 5292TIP3    H137291   2.059   1.177  10.911  0.5528  0.0894 -0.4532
 5292TIP3    H237292   2.013   1.137  10.772 -1.1953 -0.0249  0.1230
 5293TIP3   OH237293   0.022   1.162  11.906 -0.0940 -0.4417 -0.9070
 5293TIP3    H137294   0.093   1.150  11.842  0.7958  0.9598 -0.2245
 5293TIP3    H237295  -0.058   1.162  11.853  0.3401 -2.3729 -1.6613
 5294TIP3   OH237296   3.787   1.850  12.095 -0.2950 -0.8854  0.2161
 5294TIP3    H137297   3.751   1.781  12.038 -0.1531  0.1859 -1.2256
 5294TIP3    H237298   3.868   1.876  12.052 -0.8188  0.8285  0.2164
 5295TIP3   OH237299   2.233   1.701  12.927  0.5450  0.5335  0.0381
 5295TIP3    H137300   2.211   1.617  12.968  0.6873 -0.4565 -1.7859
 5295TIP3    H237301   2.188   1.767  12.979 -3.1318 -1.0024 -0.9182
 5296TIP3   OH237302   2.500   1.195  13.381  0.0610  0.1842 -0.5051
 5296TIP3    H137303   2.448   1.172  13.458 -0.5746 -1.3404 -1.3466
 5296TIP3    H237304   2.588   1.162  13.401  0.5149  1.8129  0.4648
 5297TIP3   OH237305   5.042   5.344   0.072 -0.6234  0.3426 -0.1004
 5297TIP3    H137306   5.073   5.295   0.148  0.8943  0.2121 -0.7679
 5297TIP3    H237307   5.019   5.430   0.107 -1.3395 -0.1830  0.7400
 5298TIP3   OH237308   0.802   4.900   4.944  0.5043  0.3899 -0.4991
 5298TIP3    H137309   0.786   4.859   5.029  1.1362 -1.2053 -1.0978
 5298TIP3    H237310   0.830   4.989   4.965 -1.4191  0.7418  0.8464
 5299TIP3   OH237311   6.681   1.313  13.400  0.6114 -0.0266 -0.0306
 5299TIP3    H137312   6.689   1.376  13.471 -1.6196  0.6756 -0.3032
 5299TIP3    H237313   6.639   1.362  13.329 -1.0635 -1.7130 -0.3062
 5300TIP3   OH237314   1.419   0.506  14.682 -0.4081  0.4005  0.0320
 5300TIP3    H137315   1.396   0.591  14.644  1.2435  0.4143 -1.0330
 5300TIP3    H237316   1.505   0.519  14.721  0.0862 -0.8819 -0.5554
 5301TIP3   OH237317   2.415   4.540   2.100  0.3124  0.1825 -0.1906
 5301TIP3    H137318   2.407   4.474   2.031 -0.7015  0.1169 -0.0176
 5301TIP3    H237319   2.381   4.620   2.061 -0.7587  0.0241  0.3941
 5302TIP3   OH237320   6.205   1.717   1.836 -0.0120 -0.4202  0.3388
 5302TIP3    H137321   6.165   1.770   1.905  1.6487 -0.7534  1.6124
 5302TIP3    H237322   6.146   1.643   1.826 -0.1807 -0.4746  1.5652
 5303TIP3   OH237323   2.204   0.245  12.283 -0.2195 -0.4111  0.5946
 5303TIP3    H137324   2.195   0.198  12.200  0.7454  1.1876 -0.4779
 5303TIP3    H237325   2.128   0.218  12.334  0.5535 -3.5092  0.2941
 5304TIP3   OH237326   3.950   5.644   5.750  0.4242 -0.1218 -0.4060
 5304TIP3    H137327   3.938   5.673   5.841  2.9027 -2.5098  0.8744
 5304TIP3    H237328   3.868   5.601   5.727 -0.0261 -0.0563  0.9810
 5305TIP3   OH237329   0.917   0.449  16.914 -0.1137 -0.1995 -0.0618
 5305TIP3    H137330   0.980   0.494  16.858 -1.3344  2.3222  0.4309
 5305TIP3    H237331   0.836   0.499  16.903 -1.4110 -1.9568  1.0475
 5306TIP3   OH237332   0.365   0.673  16.202  0.4683  0.0988  0.1657
 5306TIP3    H137333   0.448   0.680  16.248  0.1558  1.6685  0.5581
 5306TIP3    H237334   0.302   0.718  16.259 -1.2512 -3.1662  1.1225
 5307TIP3   OH237335   0.720   4.810  16.223  0.3714  0.5003  0.4560
 5307TIP3    H137336   0.799   4.815  16.170 -0.5639  2.1951 -0.8959
 5307TIP3    H237337   0.706   4.900  16.253 -1.9460  0.6589 -0.8276
 5308TIP3   OH237338   2.411   4.729  12.698  0.2113  0.4208 -0.4227
 5308TIP3    H137339   2.469   4.699  12.628  1.3061 -0.0672  0.6595
 5308TIP3    H237340   2.374   4.649  12.734 -0.0575  0.6418 -0.2053
 5309TIP3   OH237341   5.172   0.681  14.369 -0.4788 -0.1302  0.2986
 5309TIP3    H137342   5.239   0.711  14.308 -0.1199 -0.0379  0.7351
 5309TIP3    H237343   5.218   0.670  14.452 -0.5159 -2.2577  0.0844
 5310TIP3   OH237344   0.765   4.151   3.879  0.3361  0.2373 -0.2211
 5310TIP3    H137345   0.720   4.148   3.963 -0.1961  0.0851 -0.5127
 5310TIP3    H237346   0.707   4.105   3.818  0.2345  1.2434 -0.9053
 5311TIP3   OH237347   4.966   3.024  14.251 -0.8050 -0.0983 -0.5612
 5311TIP3    H137348   4.933   3.112  14.229 -0.7434 -0.0954 -0.6425
 5311TIP3    H237349   4.972   2.979  14.166  0.2218  0.1848 -0.6458
 5312TIP3   OH237350   5.882   2.833   1.360 -0.6503 -0.5106 -0.0157
 5312TIP3    H137351   5.868   2.791   1.444 -0.0756 -0.7488 -0.0380
 5312TIP3    H237352   5.925   2.767   1.306 -2.6307 -1.0127 -1.1079
 5313TIP3   OH237353   2.763   0.639   0.428 -0.2886 -0.1632 -0.1114
 5313TIP3    H137354   2.774   0.587   0.349 -0.9640 -0.8041  0.2042
 5313TIP3    H237355   2.759   0.575   0.499  2.4131  0.4722  0.7318
 5314TIP3   OH237356   4.069   4.617   5.122  0.8740  0.3535 -0.3982
 5314TIP3    H137357   4.085   4.677   5.195  1.0771 -1.0378  0.7410
 5314TIP3    H237358   4.047   4.675   5.048 -0.7544  1.7601  1.0781
 5315TIP3   OH237359   0.261   6.472   4.168 -0.0596 -0.3836  0.4810
 5315TIP3    H137360   0.285   6.501   4.080 -0.8054  1.2941  0.7875
 5315TIP3    H237361   0.284   6.545   4.225 -0.5331 -1.0291  1.5415
 5316TIP3   OH237362   3.656   2.304  12.862 -0.0413  0.1786 -0.0653
 5316TIP3    H137363   3.616   2.222  12.890 -0.2482 -0.1196 -1.1766
 5316TIP3    H237364   3.748   2.282  12.849  0.2172  0.5097  1.0935
 5317TIP3   OH237365   5.905   2.093  12.892 -0.0504  0.2520  0.1074
 5317TIP3    H137366   5.990   2.058  12.917  0.0023 -0.2014 -0.6591
 5317TIP3    H237367   5.841   2.031  12.928 -0.0615  0.6130  0.7153
 5318TIP3   OH237368   4.844   0.495   1.743  0.1099 -0.0683 -0.0852
 5318TIP3    H137369   4.932   0.533   1.731  0.0375 -0.0626 -0.6454
 5318TIP3    H237370   4.846   0.457   1.830 -0.1142  2.0710  0.9207
 5319TIP3   OH237371   2.452   0.053  16.135  0.2775 -0.2119 -0.0137
 5319TIP3    H137372   2.505   0.000  16.196 -0.4993  0.1044  0.9603
 5319TIP3    H237373   2.418  -0.011  16.072  0.7571 -0.6069  0.1139
 5320TIP3   OH237374   4.582   0.222   3.510 -0.7339 -0.1398 -0.0437
 5320TIP3    H137375   4.598   0.247   3.600 -0.5427  0.2711 -0.1925
 5320TIP3    H237376   4.519   0.150   3.516 -2.5378  1.4093  0.3200
 5321TIP3   OH237377   6.271   1.950  12.300  0.9549 -0.7570 -0.7915
 5321TIP3    H137378   6.263   1.913  12.388  0.1093 -0.1642 -0.6092
 5321TIP3    H237379   6.267   1.874  12.242 -2.0940 -0.9336 -0.5021
 5322TIP3   OH237380   0.652   3.688  15.209 -0.2783  0.1128 -0.3256
 5322TIP3    H137381   0.609   3.610  15.245 -0.1716  0.0729 -0.2854
 5322TIP3    H237382   0.654   3.673  15.115  0.8690 -0.5042 -0.2212
 5323TIP3   OH237383   0.565   4.541   0.051  0.2781 -0.3862  0.3329
 5323TIP3    H137384   0.495   4.501   0.103 -0.3289  0.7820  0.4479
 5323TIP3    H237385   0.564   4.634   0.076  1.0945 -0.1224 -0.5310
 5324TIP3   OH237386   1.296   1.240  13.524 -0.5340  0.2846  0.3295
 5324TIP3    H137387   1.299   1.144  13.529 -0.0533  0.1649 -1.4668
 5324TIP3    H237388   1.209   1.260  13.491 -0.4610  0.4140  0.2105
 5325TIP3   OH237389   1.968   0.384   1.542 -0.1667  0.3694  0.0524
 5325TIP3    H137390   2.015   0.373   1.625  1.8588 -1.4038 -1.1963
 5325TIP3    H237391   2.014   0.456   1.498  0.1639 -0.0833 -0.3624
 5326TIP3   OH237392   5.073   2.686  11.075 -0.1023  0.2499  0.1956
 5326TIP3    H137393   4.994   2.729  11.041 -0.2146 -1.6207 -2.1546
 5326TIP3    H237394   5.143   2.717  11.019  0.1668 -0.9476 -0.1584
 5327TIP3   OH237395   6.559   3.452  11.571  0.3916  0.3012  0.6109
 5327TIP3    H137396   6.604   3.510  11.510  0.4113 -0.9334 -0.5921
 5327TIP3    H237397   6.466   3.474  11.562  0.1703 -1.1170 -1.3339
 5328TIP3   OH237398   1.633   5.715  11.412  0.3966 -0.3852  0.2306
 5328TIP3    H137399   1.674   5.763  11.340  1.4391  0.6672  1.4689
 5328TIP3    H237400   1.692   5.641  11.429  1.4760  0.7104  1.5211
 5329TIP3   OH237401   1.939   5.320   0.679  0.0843 -0.2115 -0.5940
 5329TIP3    H137402   1.883   5.320   0.756  1.2343  0.6523  0.2702
 5329TIP3    H237403   1.936   5.410   0.647  0.7392 -0.2223 -0.7012
 5330TIP3   OH237404   3.487   2.060  11.868  0.1052 -0.5481 -0.3299
 5330TIP3    H137405   3.561   2.121  11.869 -0.9059  0.6851  0.1113
 5330TIP3    H237406   3.510   1.997  11.799  1.7017 -0.3873  0.0011
 5331TIP3   OH237407   4.795   2.176  17.233  0.1935  0.0940  0.0549
 5331TIP3    H137408   4.866   2.155  17.293  0.4765 -0.1671 -0.3584
 5331TIP3    H237409   4.836   2.231  17.166  0.6302 -2.0146 -1.5303
 5332TIP3   OH237410   5.570   1.753  14.640 -0.2855 -0.5973  0.5103
 5332TIP3    H137411   5.588   1.660  14.653  1.5473 -0.6652 -1.8640
 5332TIP3    H237412   5.653   1.797  14.659 -1.0154  0.5545  1.1935
 5333TIP3   OH237413   0.756   2.245  12.570  0.1840  0.1683 -0.5242
 5333TIP3    H137414   0.727   2.334  12.551  0.1205 -0.1735 -2.1557
 5333TIP3    H237415   0.675   2.196  12.583  0.2281  0.6333  2.0664
 5334TIP3   OH237416   2.958   3.102   0.252 -0.2330 -0.1405  0.0191
 5334TIP3    H137417   2.985   3.172   0.311 -1.7564 -0.6635  1.4109
 5334TIP3    H237418   2.916   3.037   0.309 -0.3415 -1.4214 -1.4475
 5335TIP3   OH237419   0.952   4.306  11.709  0.1861 -0.3995 -0.5633
 5335TIP3    H137420   0.857   4.303  11.717  0.1345  0.3872 -0.7603
 5335TIP3    H237421   0.983   4.237  11.767 -0.4525  0.3976  0.7760
 5336TIP3   OH237422   1.455   6.550   0.339  0.3929  0.2558 -0.1521
 5336TIP3    H137423   1.427   6.459   0.332  1.1551  0.0938 -1.3344
 5336TIP3    H237424   1.504   6.567   0.259  1.1963  1.3882  0.5433
 5337TIP3   OH237425   0.627   4.144  16.068 -0.4692 -0.0378  0.1261
 5337TIP3    H137426   0.680   4.064  16.063 -1.5609 -0.7808  0.1831
 5337TIP3    H237427   0.582   4.147  15.984 -1.9107 -0.5395  0.8551
 5338TIP3   OH237428   0.249   4.957   1.911 -0.0305  0.0259  0.0394
 5338TIP3    H137429   0.198   5.031   1.877  1.2039  0.2498 -1.4687
 5338TIP3    H237430   0.218   4.882   1.859  0.0839 -0.1292  0.1968
 5339TIP3   OH237431   4.306   4.029  12.862  0.5390  0.2001 -0.3918
 5339TIP3    H137432   4.301   3.985  12.777  0.5668  0.1066 -0.3438
 5339TIP3    H237433   4.250   4.107  12.851 -0.1204 -0.2468 -0.2297
 5340TIP3   OH237434   0.300   2.930  15.130 -0.0631  0.0115 -0.0997
 5340TIP3    H137435   0.284   2.956  15.040  2.9907  0.0620 -0.7509
 5340TIP3    H237436   0.291   2.835  15.130 -3.2023  0.1996  0.3926
 5341TIP3   OH237437   5.561   2.802  16.702  0.0195  0.0247 -0.1485
 5341TIP3    H137438   5.598   2.722  16.665 -0.8405  0.0223 -1.0865
 5341TIP3    H237439   5.592   2.805  16.792  0.8797 -0.8341 -0.4057
 5342TIP3   OH237440   2.367   4.019  13.443 -0.3722  0.4135  0.2171
 5342TIP3    H137441   2.435   4.075  13.481  0.3550  1.3944 -2.3617
 5342TIP3    H237442   2.312   4.079  13.393 -1.2781 -0.8087 -0.3070
 5343TIP3   OH237443   4.286   3.208   5.700 -1.0758  0.5534  0.0403
 5343TIP3    H137444   4.218   3.260   5.743 -2.8683 -0.1384 -1.7986
 5343TIP3    H237445   4.279   3.121   5.740  0.9240  1.2196  2.0575
 5344TIP3   OH237446   2.936   4.532  11.906  0.3741 -0.4556 -0.2619
 5344TIP3    H137447   2.942   4.514  11.812  0.0126 -1.5230 -0.0903
 5344TIP3    H237448   2.992   4.466  11.947 -1.0818 -1.3114  0.3945
 5345TIP3   OH237449   5.486   1.226   4.375 -0.1034  0.6125 -0.3808
 5345TIP3    H137450   5.567   1.270   4.400 -0.7028  0.8120  1.3017
 5345TIP3    H237451   5.418   1.293   4.384 -0.9092 -0.3932  1.4244
 5346TIP3   OH237452   1.643   0.710  15.856 -0.0358  0.0307  0.0655
 5346TIP3    H137453   1.720   0.660  15.829  1.2190  2.1220 -0.4119
 5346TIP3    H237454   1.642   0.785  15.797 -1.1501  1.2023  1.5334
 5347TIP3   OH237455   1.735   2.892  16.244  0.0656  0.8048  0.5298
 5347TIP3    H137456   1.681   2.970  16.254  1.0258  1.3128  2.1270
 5347TIP3    H237457   1.779   2.882  16.328  1.0938 -0.6142 -0.1312
 5348TIP3   OH237458   2.242   5.239  15.206 -0.0140  0.2203 -0.2320
 5348TIP3    H137459   2.289   5.223  15.287  0.0973  0.1726 -0.3053
 5348TIP3    H237460   2.230   5.334  15.202  1.0876  0.3471 -0.7745
 5349TIP3   OH237461   5.032   1.605  16.940 -0.2021 -0.8128 -0.1201
 5349TIP3    H137462   4.942   1.596  16.973  0.5093 -0.6984  1.9699
 5349TIP3    H237463   5.066   1.682  16.984  1.1969 -1.3413 -0.2315
 5350TIP3   OH237464   6.268   2.620   3.589  0.0478  0.0598  0.0487
 5350TIP3    H137465   6.342   2.678   3.574  0.4570 -0.9829 -2.4342
 5350TIP3    H237466   6.222   2.617   3.505  1.3150 -4.8282 -0.7478
 5351TIP3   OH237467   2.908   1.675   6.363  0.2459  0.7119 -0.1757
 5351TIP3    H137468   2.974   1.620   6.406 -0.3759 -0.8788 -1.1532
 5351TIP3    H237469   2.847   1.699   6.433  0.5145  0.1160  0.2675
 5352TIP3   OH237470   5.921   3.267  12.720 -0.0786  0.0057 -0.2535
 5352TIP3    H137471   5.924   3.353  12.762  0.7203 -0.0811 -0.1287
 5352TIP3    H237472   6.005   3.258  12.676 -0.7179 -0.1199 -1.4700
 5353TIP3   OH237473   3.511   1.606   0.241  0.2458  0.5637  0.3554
 5353TIP3    H137474   3.449   1.622   0.169 -0.9855 -1.1872  0.9657
 5353TIP3    H237475   3.504   1.683   0.296 -1.4325  0.3973  0.4109
 5354TIP3   OH237476   5.871   2.076  14.098  0.4770 -0.2116 -0.0763
 5354TIP3    H137477   5.786   2.050  14.132  1.0263 -2.1154 -0.0140
 5354TIP3    H237478   5.853   2.152  14.043 -1.3057 -0.7206 -0.2686
 5355TIP3   OH237479   4.319   2.151   3.786 -0.5865 -0.2126  0.3094
 5355TIP3    H137480   4.354   2.069   3.751 -1.5176 -0.8616  0.8477
 5355TIP3    H237481   4.300   2.132   3.878  0.6764  1.0949  0.8685
 5356TIP3   OH237482   6.526   0.366   1.169 -0.1168  0.3595  0.3106
 5356TIP3    H137483   6.585   0.361   1.094 -0.7445 -1.0346 -0.1170
 5356TIP3    H237484   6.557   0.299   1.229 -0.0692  0.9705  0.9907
 5357TIP3   OH237485   0.356   2.719   3.577  0.5263 -0.0069  0.4841
 5357TIP3    H137486   0.365   2.716   3.482  0.1169 -3.7138  0.4170
 5357TIP3    H237487   0.445   2.706   3.610  0.7697  1.8896  0.7120
 5358TIP3   OH237488   1.731   1.847   0.245 -0.4490 -0.7216 -0.5697
 5358TIP3    H137489   1.699   1.770   0.293 -0.9390 -0.1586  0.0186
 5358TIP3    H237490   1.776   1.899   0.312 -0.4066 -0.3330 -0.9014
 5359TIP3   OH237491   3.737   5.844  11.831 -0.0314  0.0932  0.6073
 5359TIP3    H137492   3.815   5.886  11.869  0.9133 -0.2489 -0.8823
 5359TIP3    H237493   3.693   5.804  11.906  1.3876  0.0334  1.4491
 5360TIP3   OH237494   2.806   4.162  16.876 -0.0732  0.3103 -0.0548
 5360TIP3    H137495   2.849   4.246  16.859  0.3194  0.0039 -0.6663
 5360TIP3    H237496   2.879   4.099  16.879 -0.4961 -0.3964 -2.2295
 5361TIP3   OH237497   0.141   2.967   1.171  0.0676 -0.8066  0.3058
 5361TIP3    H137498   0.207   2.990   1.106  1.3784 -0.3283  1.7451
 5361TIP3    H237499   0.080   3.041   1.171 -0.3592 -1.1351 -0.8473
 5362TIP3   OH237500   1.636   3.503  14.298  0.2947 -0.0073  0.0716
 5362TIP3    H137501   1.694   3.523  14.225 -0.8882 -0.8981 -1.1701
 5362TIP3    H237502   1.673   3.550  14.372  2.0004  0.2679 -0.9052
 5363TIP3   OH237503   2.244   0.076  11.348  0.4944  0.3335  0.0131
 5363TIP3    H137504   2.279   0.160  11.378  1.3342 -0.1655  0.4748
 5363TIP3    H237505   2.243   0.021  11.427  1.0195 -0.4307 -0.5001
 5364TIP3   OH237506   4.536   6.659   2.476  0.0948  0.7336  0.3804
 5364TIP3    H137507   4.545   6.572   2.516 -1.4712 -0.5228 -1.7787
 5364TIP3    H237508   4.486   6.710   2.539 -0.4206 -0.4672  0.9707
 5365TIP3   OH237509   1.027   0.632  11.940  0.2248  0.0829  0.0401
 5365TIP3    H137510   0.944   0.677  11.959 -0.6803 -2.2465  2.2940
 5365TIP3    H237511   1.004   0.568  11.873  0.7238  0.7968 -0.8227
 5366TIP3   OH237512   5.577   4.204  15.432  0.0488 -0.0362 -0.2888
 5366TIP3    H137513   5.485   4.197  15.458  0.0934  1.0365  0.1755
 5366TIP3    H237514   5.622   4.234  15.510  0.8367 -0.7133 -0.4653
 5367TIP3   OH237515   4.362   5.762   4.118  0.0033  0.2331  0.0185
 5367TIP3    H137516   4.331   5.742   4.206 -0.2967  2.3471  0.4392
 5367TIP3    H237517   4.366   5.858   4.115  0.4821  0.1903 -2.1114
 5368TIP3   OH237518   2.388   3.176  13.091  0.0549  0.2578 -0.2163
 5368TIP3    H137519   2.468   3.130  13.116  0.3655  0.3173 -1.0800
 5368TIP3    H237520   2.340   3.115  13.035  0.1768  0.7480 -0.8648
 5369TIP3   OH237521   4.298   3.548  10.584 -0.7559  0.0308  0.2262
 5369TIP3    H137522   4.351   3.517  10.511 -1.2590  0.6422 -0.4054
 5369TIP3    H237523   4.301   3.476  10.648 -0.1018 -0.3972 -0.2743
 5370TIP3   OH237524   2.118   3.667   6.526 -0.2253  0.4494 -0.1206
 5370TIP3    H137525   2.026   3.665   6.501  0.1483  0.9840 -1.6392
 5370TIP3    H237526   2.153   3.745   6.483  0.7129  0.8526  1.2902
 5371TIP3   OH237527   2.668   0.271   1.171 -0.1317  0.2295  0.2971
 5371TIP3    H137528   2.686   0.198   1.113 -0.5195  0.6123 -0.3186
 5371TIP3    H237529   2.596   0.241   1.226 -0.4115  0.2176 -0.0768
 5372TIP3   OH237530   2.497   4.928  12.185 -0.5824  0.0294  0.5152
 5372TIP3    H137531   2.572   4.878  12.219  0.2846  0.7578 -0.2864
 5372TIP3    H237532   2.456   4.868  12.123 -0.4894 -0.2641  0.7290
 5373TIP3   OH237533   5.759   6.187  10.719  0.4550  0.1265  0.6690
 5373TIP3    H137534   5.791   6.238  10.794  0.7909 -1.0586  1.3435
 5373TIP3    H237535   5.701   6.248  10.672 -0.1374  0.7452  2.1523
 5374TIP3   OH237536   3.374   0.219  17.341 -0.6712 -0.1246 -0.2631
 5374TIP3    H137537   3.417   0.249  17.422 -1.5241 -1.1458  0.5973
 5374TIP3    H237538   3.425   0.259  17.271  0.1736  0.6858  0.7780
 5375TIP3   OH237539   4.608   0.886  14.612 -0.6913 -0.3425  0.0385
 5375TIP3    H137540   4.644   0.967  14.576  0.2204 -0.5789  0.3742
 5375TIP3    H237541   4.636   0.886  14.703  0.4222 -1.6310 -0.2729
 5376TIP3   OH237542   2.893   5.217  14.611  0.6827  0.3942 -0.1422
 5376TIP3    H137543   2.893   5.183  14.700 -1.3831 -0.6319 -0.4548
 5376TIP3    H237544   2.911   5.310  14.620 -2.2212  0.9174  1.6900
 5377TIP3   OH237545   5.584   2.969   5.525  0.0133 -0.0267  0.2373
 5377TIP3    H137546   5.533   3.027   5.582 -0.6836  0.1835 -0.5783
 5377TIP3    H237547   5.670   3.010   5.518  1.1119 -1.4874  3.4010
 5378TIP3   OH237548   5.678   0.840   1.137 -0.2151  0.1593 -0.7860
 5378TIP3    H137549   5.639   0.923   1.110 -0.3378  0.7390  1.0471
 5378TIP3    H237550   5.685   0.846   1.232  1.3238 -1.2664 -0.7537
 5379TIP3   OH237551   4.518   6.633   1.592 -0.1717  0.2231 -0.3702
 5379TIP3    H137552   4.467   6.709   1.566 -2.3525 -0.4812  1.4624
 5379TIP3    H237553   4.512   6.633   1.688  2.4739 -0.5094 -0.1354
 5380TIP3   OH237554   6.483   1.513   4.575 -0.0337  0.7852 -0.5434
 5380TIP3    H137555   6.524   1.587   4.620 -0.3847  0.7383 -0.1337
 5380TIP3    H237556   6.389   1.529   4.585 -0.1103  0.5659 -0.9234
 5381TIP3   OH237557   3.012   2.847  12.004  0.1400  0.1278 -0.0303
 5381TIP3    H137558   2.919   2.824  12.000  0.1027  0.2615  0.0495
 5381TIP3    H237559   3.048   2.815  11.921  0.5426 -2.0919  0.9568
 5382TIP3   OH237560   4.460   1.235   3.989  0.4323  0.2563 -0.3963
 5382TIP3    H137561   4.451   1.143   4.013 -0.0932  0.8495  2.0225
 5382TIP3    H237562   4.394   1.249   3.921 -1.9140 -0.4642  1.5661
 5383TIP3   OH237563   3.892   2.119   4.851  0.7813  0.0143  0.9017
 5383TIP3    H137564   3.809   2.099   4.808  0.3688 -0.0373  1.7029
 5383TIP3    H237565   3.922   2.200   4.810 -0.3866  0.8151  1.6018
 5384TIP3   OH237566   4.515   2.664   0.979  0.4325  0.0765  0.2247
 5384TIP3    H137567   4.514   2.583   1.029 -0.4047 -0.1241 -0.1054
 5384TIP3    H237568   4.430   2.668   0.937  1.6980 -0.6253 -2.5990
 5385TIP3   OH237569   6.163   4.922   0.207 -0.1096 -0.7822  0.5051
 5385TIP3    H137570   6.200   4.986   0.145  0.2937 -1.6457 -0.1622
 5385TIP3    H237571   6.079   4.898   0.169 -1.8256  1.7058  2.3737
 5386TIP3   OH237572   1.203   5.212  13.820  0.1876  0.2446  0.4306
 5386TIP3    H137573   1.286   5.170  13.798  1.2995  2.0880  0.9153
 5386TIP3    H237574   1.196   5.205  13.915 -1.9241 -2.8441  0.1910
 5387TIP3   OH237575   3.040   0.416   5.442  0.1037  0.1503 -0.0133
 5387TIP3    H137576   3.015   0.425   5.350 -0.5956 -1.0463  0.0470
 5387TIP3    H237577   2.999   0.335   5.471  0.8906  0.1443  1.1706
 5388TIP3   OH237578   2.284   6.374  17.021 -0.0106  0.0118 -0.1162
 5388TIP3    H137579   2.347   6.373  16.949  0.6760 -0.1400  0.4738
 5388TIP3    H237580   2.203   6.342  16.982  0.4371 -0.3860 -0.7450
 5389TIP3   OH237581   2.919   6.063  14.197 -0.2792 -0.3853  0.1714
 5389TIP3    H137582   2.981   6.132  14.173  0.7894 -0.9935  1.0785
 5389TIP3    H237583   2.905   6.076  14.291 -0.4022 -1.1430  0.2615
 5390TIP3   OH237584   0.916   0.070  14.164  0.1154  0.0873 -0.6863
 5390TIP3    H137585   0.943  -0.015  14.128 -1.9859 -0.3235 -1.3800
 5390TIP3    H237586   0.905   0.127  14.088  0.7329  0.7738 -0.2792
 5391TIP3   OH237587   6.355   6.228  11.678  0.1058 -0.1753 -0.0519
 5391TIP3    H137588   6.348   6.293  11.608  1.5979 -1.9712 -1.9820
 5391TIP3    H237589   6.281   6.169  11.662  0.2530 -0.3979  0.1022
 5392TIP3   OH237590   4.881   2.127  15.031 -0.0056  0.1393 -0.0916
 5392TIP3    H137591   4.952   2.073  15.063 -1.4825  0.0087  3.4396
 5392TIP3    H237592   4.910   2.217  15.046 -1.0084  0.0831  2.8584
 5393TIP3   OH237593   3.010   1.436   5.537  0.1419 -0.1473 -0.5420
 5393TIP3    H137594   3.009   1.526   5.568  2.3370 -0.2490  0.0154
 5393TIP3    H237595   2.994   1.443   5.443  0.7476  0.8933 -0.5846
 5394TIP3   OH237596   3.494   1.564   4.449  0.4916  0.0714  0.0233
 5394TIP3    H137597   3.577   1.602   4.478  0.6147  1.4434 -1.9215
 5394TIP3    H237598   3.519   1.504   4.378 -0.0426 -0.8221  0.5825
 5395TIP3   OH237599   4.863   2.907   4.486 -0.2918  0.1843 -0.1841
 5395TIP3    H137600   4.788   2.966   4.482  0.5100  1.4512  1.7205
 5395TIP3    H237601   4.905   2.915   4.401 -1.7613  0.1763 -0.9387
 5396TIP3   OH237602   1.134   5.740  16.991 -0.0062  0.2761  0.4817
 5396TIP3    H137603   1.098   5.799  16.925 -1.3234 -0.6835  0.2997
 5396TIP3    H237604   1.074   5.747  17.065 -0.5826 -1.2594  0.2181
 5397TIP3   OH237605   2.650   6.506   0.080 -0.3565  0.2258  0.0033
 5397TIP3    H137606   2.734   6.548   0.062  0.5115 -0.7936  1.4489
 5397TIP3    H237607   2.621   6.545   0.163 -1.2249  0.4409 -0.3944
 5398TIP3   OH237608   0.624   1.262   4.791  0.6331  0.2731  0.1292
 5398TIP3    H137609   0.625   1.273   4.886  1.3730  0.0088  0.1544
 5398TIP3    H237610   0.607   1.350   4.757 -2.0706 -0.0004  0.5428
 5399TIP3   OH237611   3.248   3.572   0.971 -0.0939  0.2969  0.3357
 5399TIP3    H137612   3.180   3.582   0.904  0.2763 -1.1467 -0.3011
 5399TIP3    H237613   3.206   3.523   1.041 -0.2365  1.0697  0.8037
 5400TIP3   OH237614   5.808   2.662   2.733 -0.5872  0.5483 -0.3030
 5400TIP3    H137615   5.875   2.604   2.772 -0.9889 -0.2876 -0.8397
 5400TIP3    H237616   5.735   2.659   2.795 -1.8168 -1.9398 -1.7227
 5401TIP3   OH237617   0.793   1.424  14.079 -0.4282  0.3067  0.4929
 5401TIP3    H137618   0.837   1.388  14.156  0.4815  0.7129  0.1870
 5401TIP3    H237619   0.724   1.361  14.058  0.3450 -0.6327  0.6890
 5402TIP3   OH237620   4.019   2.692  15.979  0.5532  0.4942 -0.0070
 5402TIP3    H137621   3.993   2.619  15.922  0.4160  1.0166 -0.6197
 5402TIP3    H237622   4.107   2.714  15.951  0.6820  0.4189  0.3359
 5403TIP3   OH237623   5.895   1.086   6.472  0.1578 -0.1594  0.8745
 5403TIP3    H137624   5.885   1.057   6.563  0.3555  0.9973  1.2834
 5403TIP3    H237625   5.990   1.089   6.459  0.2807  2.9058  1.7621
 5404TIP3   OH237626   0.441   6.144  12.043  0.0245 -0.9665 -0.7088
 5404TIP3    H137627   0.460   6.147  11.949  1.5756  0.7967 -0.4107
 5404TIP3    H237628   0.518   6.185  12.084 -1.7084  0.6873  1.1215
 5405TIP3   OH237629   0.169   5.889   6.476 -0.1452  0.2300  0.0547
 5405TIP3    H137630   0.079   5.860   6.459 -0.8127  2.4326 -0.4645
 5405TIP3    H237631   0.217   5.808   6.492 -1.9317 -1.1189 -0.9709
 5406TIP3   OH237632   0.710   2.651   5.634  0.1070  0.1551 -0.0359
 5406TIP3    H137633   0.745   2.638   5.546  0.4344  0.0011  0.1164
 5406TIP3    H237634   0.785   2.680   5.686 -0.1310  0.4445  0.1444
 5407TIP3   OH237635   1.655   0.979  14.488 -0.1322 -0.0136  0.5623
 5407TIP3    H137636   1.667   0.890  14.521 -0.1479  0.6449  2.4270
 5407TIP3    H237637   1.562   0.997  14.500 -0.4970 -0.3329 -1.4536
 5408TIP3   OH237638   2.685   4.624   2.925  0.1362 -0.0578  0.1923
 5408TIP3    H137639   2.667   4.715   2.902  2.2158  0.5848  0.8821
 5408TIP3    H237640   2.603   4.578   2.908 -1.2660  2.1065  0.7564
 5409TIP3   OH237641   6.739   5.926  14.007  0.6384  0.2693 -0.0757
 5409TIP3    H137642   6.761   5.964  14.092  2.0156 -1.6909  0.5260
 5409TIP3    H237643   6.819   5.881  13.979 -0.1809 -0.2387 -1.7975
 5410TIP3   OH237644   1.873   0.742   3.720  0.3189  0.1166  0.1356
 5410TIP3    H137645   1.858   0.701   3.805  0.0688 -1.9661 -0.8301
 5410TIP3    H237646   1.938   0.686   3.677 -0.1564  0.6375 -1.3419
 5411TIP3   OH237647   0.269   2.074  15.830 -0.2131  0.7505  0.0625
 5411TIP3    H137648   0.254   2.161  15.793 -2.3857 -0.1258 -1.3152
 5411TIP3    H237649   0.332   2.033  15.772  0.9892  1.4391  0.8427
 5412TIP3   OH237650   6.665   6.606   3.977 -1.1818 -0.2882 -0.2682
 5412TIP3    H137651   6.678   6.689   3.931  2.0366 -0.6065 -0.1812
 5412TIP3    H237652   6.674   6.540   3.909 -2.0235 -0.6363 -0.0516
 5413TIP3   OH237653   5.794   0.912  12.622  0.5157 -0.0238 -0.0602
 5413TIP3    H137654   5.716   0.886  12.670  0.2487  1.5120  0.3962
 5413TIP3    H237655   5.845   0.831  12.613 -0.6141 -0.8309  0.5709
 5414TIP3   OH237656   3.496   2.609  13.853 -0.6438  0.1867  0.6503
 5414TIP3    H137657   3.429   2.583  13.789 -2.1633  1.6880  1.5218
 5414TIP3    H237658   3.445   2.638  13.929  0.9497  2.3123  0.9957
 5415TIP3   OH237659   0.838   4.677  11.145  0.0103  0.3532  0.0614
 5415TIP3    H137660   0.865   4.589  11.119  1.2706  0.9199 -0.6283
 5415TIP3    H237661   0.742   4.673  11.147  0.0256 -0.8342 -0.6398
 5416TIP3   OH237662   0.756   3.788  16.166 -0.4729 -0.4883  0.2141
 5416TIP3    H137663   0.816   3.737  16.111  0.8671 -0.5485  1.6505
 5416TIP3    H237664   0.709   3.723  16.218  0.1999 -0.3494  1.0196
 5417TIP3   OH237665   2.563   5.613   1.915 -0.6139  0.1707  0.0735
 5417TIP3    H137666   2.568   5.639   2.007 -0.1844 -1.7782  0.6646
 5417TIP3    H237667   2.653   5.617   1.884 -0.0445 -2.8096  0.9355
 5418TIP3   OH237668   6.588   4.035   2.108 -0.0074 -0.5389  0.8636
 5418TIP3    H137669   6.551   3.973   2.171 -0.2583  0.5753  1.8707
 5418TIP3    H237670   6.512   4.073   2.065  0.2007 -2.3815 -1.2750
 5419TIP3   OH237671   3.360   2.758   3.672 -0.0498  0.6529 -0.3097
 5419TIP3    H137672   3.312   2.684   3.634  0.4174  0.3457 -0.3119
 5419TIP3    H237673   3.315   2.835   3.639 -0.5520  0.3718 -0.3018
 5420TIP3   OH237674   5.002   1.579   6.062  0.4184 -0.0317 -0.0235
 5420TIP3    H137675   5.054   1.564   6.140  3.4769 -0.0523 -1.8817
 5420TIP3    H237676   4.969   1.493   6.037 -0.1175 -0.1016  0.8728
 5421TIP3   OH237677   2.108   5.658   0.264  0.3339 -0.6012 -0.1512
 5421TIP3    H137678   2.037   5.693   0.211 -0.6720 -2.4123 -0.0780
 5421TIP3    H237679   2.185   5.664   0.208 -0.1162  0.2328 -0.7024
 5422TIP3   OH237680   0.494   5.170  17.046 -0.3136  0.3612  0.6081
 5422TIP3    H137681   0.451   5.092  17.012 -0.2859 -0.1244  1.6588
 5422TIP3    H237682   0.443   5.193  17.124 -0.4614  1.5306  0.1848
 5423TIP3   OH237683   0.921   0.900   4.794 -0.2304 -0.4881 -0.0867
 5423TIP3    H137684   0.971   0.935   4.868 -1.3837  0.9483  0.0661
 5423TIP3    H237685   0.886   0.978   4.750 -1.8096 -1.4029 -0.5264
 5424TIP3   OH237686   3.719   0.048   1.899 -0.6546 -0.0643  0.4470
 5424TIP3    H137687   3.770   0.127   1.881  2.1990 -1.3555  2.1119
 5424TIP3    H237688   3.632   0.080   1.923  0.5575  2.6514  1.6381
 5425TIP3   OH237689   1.340   3.396   0.322  0.5438 -0.0859 -0.1745
 5425TIP3    H137690   1.330   3.489   0.301  0.4991  0.1204  0.6899
 5425TIP3    H237691   1.421   3.370   0.279 -0.2047 -0.0471 -1.6865
 5426TIP3   OH237692   2.797   0.443   0.658 -0.5027 -0.3660  0.1447
 5426TIP3    H137693   2.754   0.376   0.606 -0.3455  0.0533 -0.5472
 5426TIP3    H237694   2.880   0.459   0.613  0.4395 -1.2280  1.5069
 5427TIP3   OH237695   1.654   2.135   6.241 -0.3496  0.3134 -0.3863
 5427TIP3    H137696   1.666   2.052   6.193 -1.4726  1.2646 -2.4459
 5427TIP3    H237697   1.657   2.110   6.333 -0.7470 -2.0478 -0.9496
 5428TIP3   OH237698   0.960   4.621  12.150  0.6461 -0.1749 -0.8239
 5428TIP3    H137699   1.020   4.597  12.220 -1.5406 -0.5823  1.0304
 5428TIP3    H237700   0.912   4.541  12.130 -1.7937  0.8715  0.3892
 5429TIP3   OH237701   5.247   0.209   2.306 -0.8556 -0.0286  0.1934
 5429TIP3    H137702   5.236   0.118   2.277 -0.2089  0.3977 -1.5084
 5429TIP3    H237703   5.327   0.239   2.263 -2.2452  2.0395 -1.1510
 5430TIP3   OH237704   1.444   6.112  13.294 -0.2718 -0.5819 -0.3931
 5430TIP3    H137705   1.459   6.126  13.201  1.5266  0.1667 -0.0423
 5430TIP3    H237706   1.525   6.142  13.336 -0.1495 -2.9028  1.2382
 5431TIP3   OH237707   3.404   6.454   1.456  0.1974 -0.8623 -0.0531
 5431TIP3    H137708   3.483   6.434   1.505  1.5487  1.8106 -0.9032
 5431TIP3    H237709   3.434   6.457   1.365 -0.9080  0.0638 -0.3971
 5432TIP3   OH237710   6.434   6.743   5.525  0.1999  0.0514 -0.2378
 5432TIP3    H137711   6.349   6.773   5.556  0.2022 -0.4888  0.3137
 5432TIP3    H237712   6.446   6.786   5.441 -1.5813 -1.5454 -1.3653
 5433TIP3   OH237713   3.650   5.147   1.605  0.2895 -0.0973  0.4119
 5433TIP3    H137714   3.628   5.096   1.683 -0.6213  0.1583  0.3300
 5433TIP3    H237715   3.566   5.175   1.570  0.7358  0.8266  0.0339
 5434TIP3   OH237716   0.843   3.418   0.463  0.0339 -0.6045  0.2862
 5434TIP3    H137717   0.918   3.452   0.414 -1.0165 -0.2765 -1.1650
 5434TIP3    H237718   0.879   3.392   0.547  2.2179 -2.6204 -1.1622
 5435TIP3   OH237719   6.745   3.067   5.687 -0.2327 -0.2939  0.3423
 5435TIP3    H137720   6.834   3.073   5.652 -0.5847 -0.0145 -0.5268
 5435TIP3    H237721   6.755   3.016   5.767  1.0910  1.8110  1.6231
 5436TIP3   OH237722   3.484   3.422  12.581  0.4193  0.1050  0.0879
 5436TIP3    H137723   3.576   3.399  12.572  0.5781  0.4018  0.8474
 5436TIP3    H237724   3.484   3.516  12.601 -0.0397  0.0816  0.2195
 5437TIP3   OH237725   2.903   3.186  15.334  1.0779 -0.3253 -0.3964
 5437TIP3    H137726   2.889   3.220  15.423 -0.0709 -0.8075 -0.3778
 5437TIP3    H237727   2.908   3.264  15.279 -2.5526  0.0390 -0.5068
 5438TIP3   OH237728   5.516   6.704   0.631 -0.1966 -0.7657 -0.5038
 5438TIP3    H137729   5.593   6.657   0.599  0.5011  0.2887 -0.4258
 5438TIP3    H237730   5.551   6.786   0.665 -1.1714 -0.9313  0.9809
 5439TIP3   OH237731   2.586   6.346   6.712 -0.4158  0.0712  0.1727
 5439TIP3    H137732   2.581   6.304   6.626 -0.9683  0.6196 -0.0709
 5439TIP3    H237733   2.546   6.283   6.772 -1.5525  0.3661 -0.2456
 5440TIP3   OH237734   5.642   6.400  15.907 -0.2802  0.2238  0.3490
 5440TIP3    H137735   5.590   6.385  15.986 -1.3732 -0.6053 -0.5006
 5440TIP3    H237736   5.677   6.314  15.884 -0.0622  0.4341 -0.1291
 5441TIP3   OH237737   4.688   1.308   1.046 -0.4076  0.7013  0.0747
 5441TIP3    H137738   4.636   1.228   1.034 -0.2150  0.7205 -1.0354
 5441TIP3    H237739   4.730   1.297   1.131  0.8484 -1.1480 -0.6992
 5442TIP3   OH237740   3.995   6.173   6.668  0.0429  0.2882 -1.0223
 5442TIP3    H137741   4.033   6.162   6.755 -0.3215 -2.2742 -1.1257
 5442TIP3    H237742   3.906   6.204   6.684  0.7107  2.1122 -0.6172
 5443TIP3   OH237743   0.697   4.614   3.206 -0.0551 -0.1048  0.2305
 5443TIP3    H137744   0.738   4.535   3.172  0.9245  0.7158 -0.5464
 5443TIP3    H237745   0.749   4.638   3.282  0.9240  0.9132 -0.7309
 5444TIP3   OH237746   1.434   5.615   5.226  0.3571  0.2485 -0.1003
 5444TIP3    H137747   1.460   5.577   5.142 -0.5822  0.8223 -0.6633
 5444TIP3    H237748   1.506   5.675   5.248  3.3423 -3.6924  2.2051
 5445TIP3   OH237749   0.741   4.966  16.794  0.4697 -0.3119  0.0985
 5445TIP3    H137750   0.762   4.903  16.863  0.1916 -1.6487 -0.9696
 5445TIP3    H237751   0.734   5.050  16.838  1.2874 -0.9615  1.5228
 5446TIP3   OH237752   0.123   0.599  12.214 -0.5859 -0.1451 -0.1919
 5446TIP3    H137753   0.106   0.675  12.159 -0.3443 -0.9732 -1.4771
 5446TIP3    H237754   0.218   0.596  12.221 -0.6038 -0.2131  0.0064
 5447TIP3   OH237755   5.856   5.419  13.891  0.6475 -0.2451  0.1209
 5447TIP3    H137756   5.770   5.410  13.932  0.7868  2.0957  1.0941
 5447TIP3    H237757   5.840   5.405  13.797 -0.7152 -0.2391  0.3408
 5448TIP3   OH237758   1.614   3.670   4.610 -0.5555 -0.0174  0.2209
 5448TIP3    H137759   1.545   3.721   4.568  1.2010  1.5724 -0.8535
 5448TIP3    H237760   1.689   3.676   4.551  1.3139  0.4315  2.4993
 5449TIP3   OH237761   1.103   4.123   4.477  0.5316 -0.0329 -0.0446
 5449TIP3    H137762   1.083   4.030   4.481 -0.3764  0.0672 -1.6464
 5449TIP3    H237763   1.019   4.167   4.491  0.6361  0.5067 -1.0404
 5450TIP3   OH237764   4.835   3.124   1.398  0.7327  0.0823 -0.3583
 5450TIP3    H137765   4.898   3.186   1.435  0.9987 -1.4348  1.9353
 5450TIP3    H237766   4.890   3.052   1.365  0.2959 -0.5331  0.2338
 5451TIP3   OH237767   2.619   1.626  13.205  0.2885 -0.4424  0.4980
 5451TIP3    H137768   2.544   1.674  13.169  0.9590  1.7854  1.9087
 5451TIP3    H237769   2.604   1.536  13.177 -1.9657  0.2384 -0.7924
 5452TIP3   OH237770   2.486   0.663  15.521  0.1720 -0.7263 -0.3003
 5452TIP3    H137771   2.543   0.595  15.485  0.3129 -0.6494 -0.2244
 5452TIP3    H237772   2.537   0.743  15.512  0.9897 -0.9466  1.7551
 5453TIP3   OH237773   1.685   2.548  17.231 -0.0695  0.1431 -0.4278
 5453TIP3    H137774   1.612   2.568  17.172 -0.4417 -0.6906 -0.2689
 5453TIP3    H237775   1.643   2.536  17.316  0.4403  1.1263 -0.0172
 5454TIP3   OH237776   5.814   2.036  17.127  0.0572 -0.1177 -0.1713
 5454TIP3    H137777   5.870   1.965  17.095  2.4700  1.4960  0.1686
 5454TIP3    H237778   5.808   2.097  17.053 -1.1769 -0.1916 -0.1486
 5455TIP3   OH237779   2.293   4.338   3.939  0.2908  0.6539 -0.1916
 5455TIP3    H137780   2.267   4.388   4.016 -0.6894  0.0981 -0.1458
 5455TIP3    H237781   2.373   4.294   3.965  0.7431  1.5748  0.0267
 5456TIP3   OH237782   5.919   0.085  15.814  0.6514  0.5195  0.3115
 5456TIP3    H137783   5.951   0.049  15.897 -0.5449 -2.4031 -0.3717
 5456TIP3    H237784   5.864   0.158  15.840  0.2967 -0.3206  2.1317
 5457TIP3   OH237785   1.048   4.610   6.603 -0.2023  0.0328  0.0633
 5457TIP3    H137786   1.015   4.584   6.689  2.5799  0.2193  1.3022
 5457TIP3    H237787   1.097   4.534   6.572 -1.0528  0.0130 -1.3727
 5458TIP3   OH237788   2.365   3.722  12.790 -0.0741 -0.0851 -0.4964
 5458TIP3    H137789   2.384   3.682  12.875  1.8633  2.4060  0.3633
 5458TIP3    H237790   2.409   3.665  12.726 -1.9314 -2.2413  0.0210
 5459TIP3   OH237791   1.302   5.864  12.796  0.0477 -0.2256  0.8308
 5459TIP3    H137792   1.393   5.856  12.825 -0.0810 -2.1029  0.7851
 5459TIP3    H237793   1.277   5.952  12.824  2.3762  1.0513 -0.6529
 5460TIP3   OH237794   1.718   4.966  12.228  0.2010 -0.2745  0.4926
 5460TIP3    H137795   1.790   4.910  12.197  1.3090  0.8143  0.9886
 5460TIP3    H237796   1.762   5.042  12.267 -1.2543  0.8394  0.0491
 5461TIP3   OH237797   0.072   5.220  16.310  0.3253 -0.0648  0.2997
 5461TIP3    H137798   0.067   5.141  16.364 -0.8941  1.0055  1.8516
 5461TIP3    H237799   0.028   5.287  16.362  0.2799  1.3671 -1.4900
 5462TIP3   OH237800   1.725   5.928   3.896  0.1037 -0.3342  0.0973
 5462TIP3    H137801   1.631   5.947   3.889 -0.3841 -2.4452  0.1853
 5462TIP3    H237802   1.767   5.995   3.843 -1.6337 -0.7070 -1.9008
 5463TIP3   OH237803   3.834   1.890   3.035  0.2745  0.1213  0.0804
 5463TIP3    H137804   3.855   1.925   3.121 -1.0924 -0.4475  0.6753
 5463TIP3    H237805   3.798   1.803   3.053 -1.1352  0.4536 -0.9589
 5464TIP3   OH237806   4.223   4.457  13.278  0.7000 -0.1581  0.6461
 5464TIP3    H137807   4.255   4.367  13.285  1.0989 -0.1258 -0.5779
 5464TIP3    H237808   4.302   4.511  13.280  0.6194  0.0262 -0.7605
 5465TIP3   OH237809   2.218   5.314  14.016 -0.0455  0.0142  0.1649
 5465TIP3    H137810   2.237   5.227  13.983  1.1000  1.2322 -2.6888
 5465TIP3    H237811   2.173   5.299  14.099 -0.8919 -3.2664 -0.7591
 5466TIP3   OH237812   2.928   5.210   2.230 -0.3539 -0.1075  0.1254
 5466TIP3    H137813   2.843   5.199   2.272  0.1715 -1.4635  0.8929
 5466TIP3    H237814   2.990   5.164   2.287  0.7304 -0.0805 -0.9732
 5467TIP3   OH237815   4.858   0.143   3.630 -0.4024 -0.2620 -0.1127
 5467TIP3    H137816   4.849   0.237   3.610  2.3758  0.3130  0.8547
 5467TIP3    H237817   4.787   0.125   3.691 -0.6242  1.3824  0.1715
 5468TIP3   OH237818   4.041   1.298   1.942 -0.3527  0.5697  0.1726
 5468TIP3    H137819   4.019   1.373   1.887 -1.9751  1.8469  2.4501
 5468TIP3    H237820   4.094   1.335   2.012  1.1263 -0.9263 -0.0940
 5469TIP3   OH237821   3.343   1.828   2.184  0.5303  0.2065  0.1893
 5469TIP3    H137822   3.310   1.905   2.230 -0.0724 -0.5217  1.0079
 5469TIP3    H237823   3.264   1.783   2.154  0.8744 -0.1604 -0.1774
 5470TIP3   OH237824   1.462   2.383   3.993  0.3425  0.3307  0.1295
 5470TIP3    H137825   1.457   2.291   4.015 -0.4049  0.0773 -1.0203
 5470TIP3    H237826   1.555   2.405   4.002  0.3396 -0.1829  1.6481
 5471TIP3   OH237827   2.123   4.408  14.079 -0.1987  0.0520  0.3542
 5471TIP3    H137828   2.185   4.345  14.114 -0.2242 -1.2161 -1.7171
 5471TIP3    H237829   2.063   4.425  14.151  0.4554 -1.4541  1.3104
 5472TIP3   OH237830   4.718   4.428   2.785 -0.2484  0.4738  0.0924
 5472TIP3    H137831   4.683   4.362   2.844 -0.8977  1.8387  1.3099
 5472TIP3    H237832   4.713   4.510   2.835 -1.4740  1.8278 -2.0668
 5473TIP3   OH237833   1.072   1.451  12.566  0.6770  0.2071 -0.0356
 5473TIP3    H137834   1.113   1.367  12.587  1.6497  0.8471  0.7708
 5473TIP3    H237835   1.014   1.432  12.493  1.7634 -0.9378 -0.6490
 5474TIP3   OH237836   0.292   6.636   4.407  0.0869 -0.7181  0.5595
 5474TIP3    H137837   0.332   6.705   4.461 -2.3206  1.6717 -0.4998
 5474TIP3    H237838   0.234   6.590   4.467 -0.6809  0.2780  0.6026
 5475TIP3   OH237839   4.118   2.908  13.179 -0.4385 -0.3826 -0.2455
 5475TIP3    H137840   4.188   2.854  13.143 -0.1842  0.5089 -1.1406
 5475TIP3    H237841   4.125   2.991  13.132 -1.5628  0.0190  0.2516
 5476TIP3   OH237842   2.668   2.961  13.729  0.1389  0.1451  0.2172
 5476TIP3    H137843   2.722   3.017  13.673  0.4886 -0.1916  0.2160
 5476TIP3    H237844   2.601   3.020  13.763  0.3603  0.5147  0.0258
 5477TIP3   OH237845   0.831   3.056   3.946 -0.2663  0.2885 -0.3779
 5477TIP3    H137846   0.794   3.145   3.942  1.7843  1.2265  0.3164
 5477TIP3    H237847   0.760   3.002   3.980 -0.3661  2.4309  3.2675
 5478TIP3   OH237848   2.310   5.381  17.003 -0.4954  0.3549 -0.2102
 5478TIP3    H137849   2.338   5.391  16.912 -2.0976  0.2726 -0.7457
 5478TIP3    H237850   2.335   5.292  17.026 -0.6960  0.1316 -0.8181
 5479TIP3   OH237851   2.789   6.179   1.630 -0.5534  0.4815 -0.2530
 5479TIP3    H137852   2.797   6.085   1.651 -1.0475  1.0615  3.1389
 5479TIP3    H237853   2.773   6.221   1.715  1.1934  3.8578 -1.4048
 5480TIP3   OH237854   0.768   0.672  16.611  0.1398 -0.5012  0.4217
 5480TIP3    H137855   0.763   0.626  16.527  1.6016 -0.0482  0.0440
 5480TIP3    H237856   0.707   0.745  16.602  0.8453  0.0002 -0.5721
 5481TIP3   OH237857   5.211   6.592   0.684 -0.0351  0.6471  0.3439
 5481TIP3    H137858   5.155   6.617   0.610  1.0561 -0.5331 -0.9402
 5481TIP3    H237859   5.298   6.622   0.659  0.4846 -0.4299  0.7715
 5482TIP3   OH237860   0.740   5.004   2.239 -0.3252 -0.0168 -0.1278
 5482TIP3    H137861   0.668   5.055   2.201  0.3931  0.1178 -1.3595
 5482TIP3    H237862   0.765   4.943   2.170  0.7844 -0.0289  0.2695
 5483TIP3   OH237863   3.385   5.733  14.357  0.5640 -0.3622 -0.1315
 5483TIP3    H137864   3.352   5.821  14.341  0.2062 -0.4217  0.2649
 5483TIP3    H237865   3.365   5.685  14.277  2.6650  0.4478 -1.2291
 5484TIP3   OH237866   4.803   5.697   3.573 -0.1050  0.4408 -0.1257
 5484TIP3    H137867   4.866   5.648   3.520 -0.7916  0.6889 -1.2026
 5484TIP3    H237868   4.774   5.768   3.516 -1.4288  0.2739  0.3063
 5485TIP3   OH237869   6.366   3.291  15.231  0.5471  0.6899 -0.2644
 5485TIP3    H137870   6.433   3.252  15.287 -0.5083  1.0056  1.2654
 5485TIP3    H237871   6.339   3.371  15.277  0.8947  1.9375 -2.1139
 5486TIP3   OH237872   2.704   3.427  17.192  0.1224  0.4128 -0.6200
 5486TIP3    H137873   2.723   3.508  17.239 -0.9688  0.7410 -0.7317
 5486TIP3    H237874   2.704   3.452  17.099  0.2426  0.1858 -0.6841
 5487TIP3   OH237875   6.247   1.081   4.214 -0.1239  0.1774 -0.9119
 5487TIP3    H137876   6.318   1.128   4.170  1.0046 -1.5641 -1.0455
 5487TIP3    H237877   6.279   1.066   4.302 -1.4427  1.6236 -0.1302
 5488TIP3   OH237878   3.266   2.976  11.671 -0.2526  0.1842  0.4139
 5488TIP3    H137879   3.174   3.002  11.682 -0.5130 -0.7663  0.5466
 5488TIP3    H237880   3.293   2.947  11.758  0.0444  0.0382  0.2743
 5489TIP3   OH237881   6.516   1.840   3.839  0.1558  0.3968  0.8539
 5489TIP3    H137882   6.557   1.788   3.908  0.3998  0.4926  0.7832
 5489TIP3    H237883   6.428   1.858   3.871 -0.8448 -2.1596 -0.1530
 5490TIP3   OH237884   2.697   4.490  11.656 -0.2419  0.3257  0.4490
 5490TIP3    H137885   2.726   4.466  11.568 -0.3412  0.0493  0.4931
 5490TIP3    H237886   2.603   4.507  11.646 -0.9762 -2.8189  1.1138
 5491TIP3   OH237887   1.098   1.193   6.608 -0.1934  0.8555  0.4824
 5491TIP3    H137888   1.053   1.273   6.636 -0.7545  1.2297 -1.3503
 5491TIP3    H237889   1.030   1.125   6.611  0.1778  0.5080  1.6242
 5492TIP3   OH237890   3.306   3.329  13.145 -0.2871 -0.0286 -0.2856
 5492TIP3    H137891   3.212   3.325  13.124 -0.9169 -0.1381  2.2769
 5492TIP3    H237892   3.321   3.256  13.204  1.0013  1.0435  0.7847
 5493TIP3   OH237893   1.368   6.014   4.702 -0.1009 -0.2140 -0.0304
 5493TIP3    H137894   1.385   6.093   4.650  0.2050 -1.1247 -1.3691
 5493TIP3    H237895   1.399   5.942   4.647 -2.6136 -1.4890  0.0656
 5494TIP3   OH237896   0.664   1.443  15.735  0.0120 -0.3121  0.0987
 5494TIP3    H137897   0.667   1.534  15.705  0.3876 -0.1410  0.6296
 5494TIP3    H237898   0.745   1.405  15.703 -0.2162 -0.5020 -0.2523
 5495TIP3   OH237899   2.248   2.273   1.757 -0.2436 -0.3923  0.1103
 5495TIP3    H137900   2.283   2.184   1.758  2.0798  0.4623  0.4037
 5495TIP3    H237901   2.322   2.328   1.780 -1.5748  1.6597 -0.2736
 5496TIP3   OH237902   0.280   3.589  13.386  0.7406 -0.2750  0.3713
 5496TIP3    H137903   0.316   3.646  13.454  1.3952  0.9153 -0.9215
 5496TIP3    H237904   0.248   3.649  13.319  0.5127 -1.4131 -0.5734
 5497TIP3   OH237905   0.882   0.580  13.980 -0.5408  0.0212  0.3103
 5497TIP3    H137906   0.864   0.565  14.072 -1.1086 -1.8766 -0.0680
 5497TIP3    H237907   0.934   0.505  13.952  0.6211  1.1424 -0.6617
 5498TIP3   OH237908   5.551   0.810   0.298  0.3501  0.4414 -0.1482
 5498TIP3    H137909   5.501   0.886   0.267  0.7162  0.3965 -0.8767
 5498TIP3    H237910   5.487   0.758   0.346  0.3070  1.6747  1.2073
 5499TIP3   OH237911   6.271   2.180   0.629 -0.2130  0.4386 -0.7848
 5499TIP3    H137912   6.239   2.198   0.541 -1.7013 -0.0556 -0.3648
 5499TIP3    H237913   6.249   2.257   0.680 -1.5687 -0.2507 -0.2904
 5500TIP3   OH237914   4.645   2.853  16.729  0.4161 -0.3575 -0.1702
 5500TIP3    H137915   4.551   2.834  16.730  0.3807 -0.2008 -0.4259
 5500TIP3    H237916   4.684   2.788  16.788 -0.0056  0.3841  0.9776
 5501TIP3   OH237917   2.089   0.729   2.670 -0.2978 -0.0128 -0.9504
 5501TIP3    H137918   2.027   0.799   2.694 -0.1016 -0.3610  0.7171
 5501TIP3    H237919   2.034   0.656   2.642 -0.5960  0.0759 -0.5998
 5502TIP3   OH237920   3.075   4.895  11.181  0.1011 -0.0571 -0.0970
 5502TIP3    H137921   3.106   4.804  11.178  0.3524  0.0362 -3.2314
 5502TIP3    H237922   2.985   4.888  11.213 -0.2685 -1.5755 -1.3570
 5503TIP3   OH237923   1.497   2.930   2.459 -0.2785 -0.5705 -0.1844
 5503TIP3    H137924   1.415   2.930   2.510  0.3494  1.1262  0.9299
 5503TIP3    H237925   1.521   2.838   2.453 -0.9472 -0.9298  1.7311
 5504TIP3   OH237926   0.392   0.983   1.265  0.0646  0.3363 -0.4881
 5504TIP3    H137927   0.352   1.008   1.349 -0.0324  0.9485 -0.7137
 5504TIP3    H237928   0.356   1.045   1.202 -1.8938 -1.6872 -1.4989
 5505TIP3   OH237929   5.362   2.582  13.297 -0.3772  0.7487  0.0217
 5505TIP3    H137930   5.456   2.567  13.297 -0.3506  0.8217  1.2663
 5505TIP3    H237931   5.348   2.650  13.363 -1.3516  0.3397  0.2588
 5506TIP3   OH237932   2.435   6.141   2.770 -0.4496 -0.0043 -0.3939
 5506TIP3    H137933   2.484   6.151   2.688 -1.1793 -2.6196 -1.2537
 5506TIP3    H237934   2.343   6.145   2.744 -0.6918  0.0082  0.4357
 5507TIP3   OH237935   3.622   1.266   0.595  0.3172 -0.0305  0.4908
 5507TIP3    H137936   3.607   1.292   0.504 -2.0033 -2.6228  0.0031
 5507TIP3    H237937   3.564   1.323   0.645  0.1806  0.1385  0.1478
 5508TIP3   OH237938   0.724   1.037  15.047  0.6263 -0.4574  0.0937
 5508TIP3    H137939   0.808   1.028  15.001  0.9389 -0.4663  0.6581
 5508TIP3    H237940   0.725   0.967  15.111 -0.9689 -2.1542 -1.6181
 5509TIP3   OH237941   5.950   5.439   5.836 -0.2643 -0.1742 -0.0080
 5509TIP3    H137942   6.005   5.492   5.893 -0.8943  1.8981 -1.2329
 5509TIP3    H237943   5.899   5.502   5.785 -0.9166 -1.9556 -1.7008
 5510TIP3   OH237944   3.455   1.502  10.547 -0.5411 -0.3388  0.1953
 5510TIP3    H137945   3.533   1.460  10.582  0.9506  1.1858 -1.1185
 5510TIP3    H237946   3.421   1.440  10.482 -0.3841 -0.9554  0.6909
 5511TIP3   OH237947   2.608   3.930   4.881 -0.0992  0.9777 -0.0287
 5511TIP3    H137948   2.649   4.000   4.830 -0.5510 -0.4923 -2.5822
 5511TIP3    H237949   2.639   3.849   4.840 -2.6142 -0.2413  0.3111
 5512TIP3   OH237950   2.721   2.072   5.168 -0.3034 -0.5268  0.1494
 5512TIP3    H137951   2.772   2.065   5.087 -0.3611  2.2001 -0.2047
 5512TIP3    H237952   2.632   2.094   5.139  0.0156  2.1298  0.8840
 5513TIP3   OH237953   0.387   6.238  11.352  0.1284  0.1793 -0.1650
 5513TIP3    H137954   0.394   6.312  11.413 -0.0320  1.4760 -1.6573
 5513TIP3    H237955   0.294   6.235  11.330 -0.0352 -1.1278  0.6376
 5514TIP3   OH237956   4.962   4.149  14.860 -0.1388 -0.0439  0.0975
 5514TIP3    H137957   5.031   4.153  14.793 -0.1421 -0.5239  0.0660
 5514TIP3    H237958   4.918   4.066  14.844 -0.7447  0.2719  0.0998
 5515TIP3   OH237959   6.675   5.313  15.906 -0.1616 -0.7021 -0.4272
 5515TIP3    H137960   6.743   5.353  15.960 -0.0430 -0.3266 -0.8511
 5515TIP3    H237961   6.656   5.230  15.949 -0.5747 -0.0952  0.5998
 5516TIP3   OH237962   4.790   3.251  14.211  0.1925 -0.2798 -0.1745
 5516TIP3    H137963   4.746   3.187  14.266 -1.3230  0.8263 -0.0271
 5516TIP3    H237964   4.855   3.292  14.268  0.0608 -0.5740  0.1872
 5517TIP3   OH237965   0.543   6.642  17.057  0.0566  0.5867 -0.3273
 5517TIP3    H137966   0.447   6.638  17.050 -0.1406  1.8569  1.1959
 5517TIP3    H237967   0.564   6.578  17.125  0.2565  0.6443 -0.3361
 5518TIP3   OH237968   3.333   2.438   4.828  0.1577 -0.3895  0.1469
 5518TIP3    H137969   3.414   2.416   4.782  0.1583 -0.6300  0.2573
 5518TIP3    H237970   3.328   2.373   4.899  0.0558 -0.1492  0.3611
 5519TIP3   OH237971   5.809   1.663   2.779 -0.0920 -0.1417  0.1641
 5519TIP3    H137972   5.812   1.742   2.832  1.0729  0.6637 -1.0525
 5519TIP3    H237973   5.717   1.635   2.782 -0.6040  1.4746  0.2881
 5520TIP3   OH237974   4.654   5.227  15.275  0.2918 -0.2994  0.1221
 5520TIP3    H137975   4.612   5.233  15.189 -1.3064 -0.5493  0.8476
 5520TIP3    H237976   4.649   5.135  15.299 -0.2563 -0.0799  0.9267
 5521TIP3   OH237977   3.344   2.912   5.634 -0.0838  0.1116  0.5925
 5521TIP3    H137978   3.275   2.861   5.675 -0.2230 -0.7382 -0.6326
 5521TIP3    H237979   3.405   2.932   5.705 -0.0206 -1.7904  1.1193
 5522TIP3   OH237980   5.797   1.545   1.081  0.1130 -0.5424 -0.1630
 5522TIP3    H137981   5.770   1.458   1.108  0.5814 -1.5402 -2.6866
 5522TIP3    H237982   5.886   1.554   1.116 -0.6087 -0.2590  1.7135
 5523TIP3   OH237983   5.269   3.360  14.177 -0.2245 -0.2469  0.2882
 5523TIP3    H137984   5.299   3.402  14.258 -0.6378  1.0339 -0.1980
 5523TIP3    H237985   5.216   3.427  14.133  0.9721 -0.4816 -1.6255
 5524TIP3   OH237986   4.183   6.175  13.003 -0.0062 -0.2086 -0.3661
 5524TIP3    H137987   4.130   6.246  13.040 -1.0140 -1.0901 -0.0872
 5524TIP3    H237988   4.178   6.105  13.067 -2.4904 -2.1034 -2.3770
 5525TIP3   OH237989   5.941   5.047   5.949  0.3092  0.2852 -0.6680
 5525TIP3    H137990   5.846   5.052   5.936  0.1906  1.4124  0.3407
 5525TIP3    H237991   5.951   5.028   6.042  1.0768  0.3478 -0.7318
 5526TIP3   OH237992   5.120   5.671  14.215 -0.3122  0.3444 -0.1228
 5526TIP3    H137993   5.048   5.615  14.244  0.0673  0.3702  0.9132
 5526TIP3    H237994   5.109   5.751  14.265  0.4970  0.3056  0.1269
 5527TIP3   OH237995   6.097   1.649   2.972 -0.0671 -0.0093  0.0140
 5527TIP3    H137996   6.105   1.740   2.943 -2.2804  0.0278 -0.6681
 5527TIP3    H237997   6.015   1.619   2.935  0.1161 -1.9991  1.0666
 5528TIP3   OH237998   4.182   6.711   3.223 -0.3829  0.2557  0.4033
 5528TIP3    H137999   4.098   6.745   3.191 -0.9461  0.6586  2.1675
 5528TIP3    H238000   4.191   6.626   3.180 -1.5571  0.3479 -0.0744
 5529TIP3   OH238001   6.064   0.733  14.995  0.2749  0.4322  0.4017
 5529TIP3    H138002   6.065   0.638  14.993  0.3021  0.4275  0.6860
 5529TIP3    H238003   5.975   0.757  14.968  0.1483  0.3189  0.7226
 5530TIP3   OH238004   6.602   1.783  15.945 -0.4326 -0.0571  0.0470
 5530TIP3    H138005   6.650   1.856  15.905 -0.6684 -0.0758 -0.2771
 5530TIP3    H238006   6.627   1.785  16.037  0.2102 -0.0778 -0.1209
 5531TIP3   OH238007   4.606   4.605   4.547  0.2304  0.2949  0.0438
 5531TIP3    H138008   4.702   4.603   4.545  0.2135 -0.1822 -2.1223
 5531TIP3    H238009   4.583   4.559   4.628  1.8216  0.6025  0.6991
 5532TIP3   OH238010   4.720   5.594   3.111  0.6373 -0.7513  0.1380
 5532TIP3    H138011   4.718   5.542   3.031 -0.8422  0.1752 -0.4847
 5532TIP3    H238012   4.812   5.617   3.123  0.8825 -0.8886 -1.3173
 5533TIP3   OH238013   1.675   5.970  14.621  0.0997  0.2021  0.7171
 5533TIP3    H138014   1.591   5.925  14.615  0.7014 -0.8237 -0.5076
 5533TIP3    H238015   1.680   6.000  14.712  0.1704 -3.3167  2.0576
 5534TIP3   OH238016   2.494   5.155  13.441  0.2142 -0.3712 -0.3012
 5534TIP3    H138017   2.575   5.155  13.390  0.1009 -1.3061 -0.5005
 5534TIP3    H238018   2.503   5.080  13.500  0.0945  0.3579  0.6498
 5535TIP3   OH238019   6.108   1.895  10.864  0.5693  0.2086  0.4106
 5535TIP3    H138020   6.030   1.869  10.816  0.8929 -3.2634  1.4876
 5535TIP3    H238021   6.119   1.989  10.845 -2.4898  0.2720 -1.5800
 5536TIP3   OH238022   1.858   0.083   1.879  0.2968 -0.5278 -0.1047
 5536TIP3    H138023   1.816   0.067   1.795  0.3954 -0.3360 -0.1904
 5536TIP3    H238024   1.925   0.014   1.885  0.3490 -0.4879 -0.2235
 5537TIP3   OH238025   1.379   4.300  13.037  0.2492 -0.0690  0.2018
 5537TIP3    H138026   1.419   4.382  13.010  0.2376 -0.7049 -1.9613
 5537TIP3    H238027   1.291   4.301  12.998  0.6948 -1.6004 -0.9507
 5538TIP3   OH238028   0.680   5.484   0.197 -0.0117  0.1209  0.0342
 5538TIP3    H138029   0.619   5.536   0.249  1.2475  0.8374  0.8375
 5538TIP3    H238030   0.765   5.495   0.240  0.3008 -2.7569  0.3574
 5539TIP3   OH238031   6.069   1.675   5.114  0.6760 -0.2697  0.4075
 5539TIP3    H138032   6.003   1.621   5.159  0.1362  1.2123  1.4760
 5539TIP3    H238033   6.031   1.693   5.028  1.5791 -2.8665 -0.6649
 5540TIP3   OH238034   2.424   0.245   4.660  0.0411  0.5997 -0.0970
 5540TIP3    H138035   2.475   0.326   4.659 -0.6382  1.0297 -0.7450
 5540TIP3    H238036   2.395   0.236   4.751 -0.0120  1.1697 -0.0570
 5541TIP3   OH238037   5.351   0.097  15.162  0.1740  0.1360 -0.0902
 5541TIP3    H138038   5.272   0.058  15.199 -0.2659  0.1093 -1.0119
 5541TIP3    H238039   5.352   0.066  15.071  1.3184  0.0353 -0.0480
 5542TIP3   OH238040   0.904   2.680  11.640  0.3539 -0.2767 -0.1458
 5542TIP3    H138041   0.936   2.736  11.712  1.0507 -2.9266  1.7554
 5542TIP3    H238042   0.836   2.732  11.598  1.2821  2.1813  1.1621
 5543TIP3   OH238043   3.341   2.961  14.277 -0.3696 -0.4534 -0.0348
 5543TIP3    H138044   3.338   3.015  14.357 -0.3714 -1.9599  1.0218
 5543TIP3    H238045   3.420   2.990  14.232  0.6924 -0.8658  1.4848
 5544TIP3   OH238046   4.615   5.772   1.884 -0.2449 -0.0075  0.1572
 5544TIP3    H138047   4.655   5.730   1.960 -0.6520  0.8566  0.8704
 5544TIP3    H238048   4.657   5.858   1.881 -0.7749  0.2409 -0.1463
 5545TIP3   OH238049   3.091   4.940  11.458  0.2278 -0.7430 -0.4418
 5545TIP3    H138050   3.092   4.947  11.363  0.5804  0.3606 -0.3742
 5545TIP3    H238051   3.177   4.974  11.485 -0.1167 -0.4272  0.2971
 5546TIP3   OH238052   0.504   3.574  12.608  0.1918  0.2848 -0.2260
 5546TIP3    H138053   0.441   3.566  12.680  1.3878  2.5219  1.1944
 5546TIP3    H238054   0.450   3.574  12.529 -1.2403 -1.3808  0.6850
 5547TIP3   OH238055   6.702   5.727   4.807 -0.2002 -0.3347 -0.0629
 5547TIP3    H138056   6.610   5.712   4.829 -0.0659  0.9503  1.5880
 5547TIP3    H238057   6.702   5.807   4.756  0.0902  0.5046  1.1980
 5548TIP3   OH238058   5.343   0.807  15.767 -0.8369  0.9381 -0.1370
 5548TIP3    H138059   5.419   0.845  15.723 -0.7625  0.0645 -0.7768
 5548TIP3    H238060   5.277   0.877  15.764 -0.3404  1.4093 -0.3128
 5549TIP3   OH238061   1.686   2.803  11.175  0.7772  0.5768 -0.7187
 5549TIP3    H138062   1.707   2.800  11.082  0.9468 -1.6735 -0.6721
 5549TIP3    H238063   1.770   2.785  11.219  0.4354  0.1893 -0.2090
 5550TIP3   OH238064   3.731   3.341   2.039 -0.1631  0.5732  0.4581
 5550TIP3    H138065   3.766   3.418   1.994 -0.3146  0.7553  0.6460
 5550TIP3    H238066   3.642   3.332   2.005  0.8862 -1.5132 -2.0905
 5551TIP3   OH238067   1.620   0.717  10.884 -0.3375 -0.7297 -0.0899
 5551TIP3    H138068   1.569   0.786  10.926 -1.5096 -1.1184 -0.8248
 5551TIP3    H238069   1.615   0.643  10.944 -1.4629 -1.0749 -0.5850
 5552TIP3   OH238070   0.084   5.501  13.873  0.9276 -0.0408 -0.0265
 5552TIP3    H138071   0.141   5.509  13.796  1.4689  1.3183  0.4833
 5552TIP3    H238072   0.117   5.567  13.934 -0.2394 -0.2944  0.9129
 5553TIP3   OH238073   0.705   1.302  15.171  0.1776 -0.2892 -0.1067
 5553TIP3    H138074   0.707   1.213  15.135  0.6566 -1.4326  2.4743
 5553TIP3    H238075   0.661   1.293  15.255 -0.2540  2.0535 -0.0050
 5554TIP3   OH238076   4.531   1.976  12.869  0.3479 -0.0057 -0.3647
 5554TIP3    H138077   4.622   1.973  12.839 -0.1958  0.7661 -2.2009
 5554TIP3    H238078   4.515   1.888  12.903  1.7261 -0.1966 -0.1489
 5555TIP3   OH238079   4.378   1.659  17.362 -0.4536 -0.0948 -0.3370
 5555TIP3    H138080   4.424   1.731  17.406 -1.3228  0.0655  0.3519
 5555TIP3    H238081   4.313   1.630  17.427 -1.4592 -0.1706 -1.3541
 5556TIP3   OH238082   1.868   0.011  15.180 -0.2818  0.4220  0.5885
 5556TIP3    H138083   1.870  -0.083  15.197 -1.1746  0.1028 -0.8542
 5556TIP3    H238084   1.954   0.042  15.210  1.7179 -1.5553 -2.4001
 5557TIP3   OH238085   4.576   5.540   3.657  0.1261 -0.5398 -0.0183
 5557TIP3    H138086   4.612   5.613   3.708  0.6618 -0.6914 -0.1752
 5557TIP3    H238087   4.629   5.536   3.578 -1.9716  0.9912 -1.6254
 5558TIP3   OH238088   3.305   2.935  14.786  0.4584  0.3797  0.0882
 5558TIP3    H138089   3.300   2.965  14.876  0.7462 -1.7139  0.8638
 5558TIP3    H238090   3.238   2.867  14.780  0.2818  0.6535 -1.3508
 5559TIP3   OH238091   0.091   2.524  11.791  0.0580 -0.1414 -0.5688
 5559TIP3    H138092   0.021   2.508  11.854  0.7403  2.1574  0.8872
 5559TIP3    H238093   0.167   2.477  11.826  0.0873  0.0302 -0.4037
 5560TIP3   OH238094   2.030   1.283   5.646  0.1539  0.2532 -0.5312
 5560TIP3    H138095   2.099   1.335   5.605  0.3817 -1.5677 -2.6121
 5560TIP3    H238096   2.076   1.213   5.692 -0.2230  0.6961  0.5428
 5561TIP3   OH238097   4.204   5.193  15.924  0.1981  0.1774 -0.4108
 5561TIP3    H138098   4.287   5.213  15.967  0.3633  0.8482 -1.0223
 5561TIP3    H238099   4.216   5.224  15.834 -0.0818 -1.3594 -0.9960
 5562TIP3   OH238100   1.193   3.598  16.677  0.2124  0.1508 -0.0224
 5562TIP3    H138101   1.205   3.655  16.602  1.4337 -0.1976 -0.1127
 5562TIP3    H238102   1.189   3.510  16.640  0.8311 -0.0220  0.3186
 5563TIP3   OH238103   6.255   1.298  16.664  0.2891  0.0584 -0.9203
 5563TIP3    H138104   6.175   1.262  16.702  0.5864  1.1926  0.8933
 5563TIP3    H238105   6.231   1.319  16.573 -1.6195  0.7792 -0.2977
 5564TIP3   OH238106   4.333   0.394  15.395  0.7364 -0.3904  0.0867
 5564TIP3    H138107   4.315   0.300  15.390  0.0990 -0.2151 -1.2718
 5564TIP3    H238108   4.326   0.425  15.305  0.8383  0.9836  0.5261
 5565TIP3   OH238109   2.808   2.208   1.821  0.1869 -0.6126 -0.1249
 5565TIP3    H138110   2.823   2.299   1.798  1.9746 -0.4070  1.6120
 5565TIP3    H238111   2.736   2.210   1.885  0.4418 -0.3896  0.1532
 5566TIP3   OH238112   6.114   6.092   0.621  0.3263 -0.0876 -0.4611
 5566TIP3    H138113   6.163   6.160   0.577  0.3409 -0.7802 -1.5388
 5566TIP3    H238114   6.101   6.024   0.555 -1.3710 -0.2865  0.0206
 5567TIP3   OH238115   4.143   6.171   0.024  0.2521  0.1726  0.0288
 5567TIP3    H138116   4.112   6.245   0.076 -0.6817  0.5745 -1.0449
 5567TIP3    H238117   4.069   6.150  -0.034  1.9467  1.2368 -2.7206
 5568TIP3   OH238118   0.168   0.724  11.938 -0.0927  0.6274  0.6058
 5568TIP3    H138119   0.168   0.680  11.853  0.5942  0.6801  0.5753
 5568TIP3    H238120   0.084   0.770  11.941 -0.8137 -0.6245  0.6215
 5569TIP3   OH238121   4.324   6.204  12.519 -0.1546 -0.1778 -0.9635
 5569TIP3    H138122   4.309   6.134  12.582  0.9300  0.5614  0.1694
 5569TIP3    H238123   4.374   6.269  12.567  1.5971 -0.0076 -2.8502
 5570TIP3   OH238124   0.328   6.153  15.068  0.0433  0.0683 -0.1121
 5570TIP3    H138125   0.335   6.062  15.039 -1.1773 -0.4578  1.1672
 5570TIP3    H238126   0.302   6.201  14.989  1.0286 -0.6111 -0.8724
 5571TIP3   OH238127   0.053   4.380   5.386 -0.4174 -0.3899  0.1422
 5571TIP3    H138128   0.033   4.316   5.455 -0.6589  0.4678  0.8729
 5571TIP3    H238129  -0.030   4.425   5.370 -0.0490  0.3190  0.2178
 5572TIP3   OH238130   5.502   4.701   3.482  0.0807  0.6185  0.3989
 5572TIP3    H138131   5.413   4.732   3.472 -0.9646 -2.0491  0.4951
 5572TIP3    H238132   5.503   4.655   3.566  1.1854 -0.4363 -0.1557
 5573TIP3   OH238133   1.488   4.408  12.083 -0.1506  0.6322 -0.2538
 5573TIP3    H138134   1.462   4.318  12.105 -0.8194  1.1375  1.1370
 5573TIP3    H238135   1.535   4.439  12.160  0.8627  1.1987 -1.0766
 5574TIP3   OH238136   0.655   6.321   4.727  0.0686  0.0437 -0.2393
 5574TIP3    H138137   0.728   6.259   4.735  0.1156  0.2565  1.1296
 5574TIP3    H238138   0.676   6.391   4.788 -1.7105 -0.3333  0.8836
 5575TIP3   OH238139   2.909   2.951  11.525  0.0336 -0.1595  0.3932
 5575TIP3    H138140   2.962   2.991  11.594 -1.0236 -0.1527  1.2341
 5575TIP3    H238141   2.848   2.894  11.572 -2.4076  1.7456 -0.2844
 5576TIP3   OH238142   5.905   6.538   3.096 -0.4315  0.2327 -0.1876
 5576TIP3    H138143   5.831   6.487   3.130 -0.2546 -0.0233 -0.1805
 5576TIP3    H238144   5.968   6.540   3.168 -0.8895  1.3951  0.1972
 5577TIP3   OH238145   1.144   2.816   0.643  0.4248  0.2531  0.0621
 5577TIP3    H138146   1.134   2.730   0.600 -0.6962  0.3441  0.1133
 5577TIP3    H238147   1.069   2.822   0.701  1.1846  0.7388  1.0239
 5578TIP3   OH238148   6.353   5.481  17.042  0.2462 -0.0104 -0.6938
 5578TIP3    H138149   6.431   5.537  17.043 -1.7091  2.9860 -1.6983
 5578TIP3    H238150   6.376   5.408  16.985  2.0308  1.2806 -1.7115
 5579TIP3   OH238151   1.180   5.429  15.453  0.1062 -0.5012 -0.4328
 5579TIP3    H138152   1.128   5.475  15.519  0.4820 -0.5065 -0.1336
 5579TIP3    H238153   1.257   5.485  15.439  1.2169 -1.6553  0.8822
 5580TIP3   OH238154   6.496   3.568   5.157 -0.0827 -0.4739 -0.1404
 5580TIP3    H138155   6.484   3.638   5.222 -0.8859 -0.5723 -0.1822
 5580TIP3    H238156   6.491   3.613   5.073 -1.4477 -0.6873 -0.1944
 5581TIP3   OH238157   4.934   5.717   4.625 -0.2632 -0.0952 -0.3823
 5581TIP3    H138158   4.926   5.789   4.687 -0.0647 -0.2472 -0.1758
 5581TIP3    H238159   5.027   5.692   4.629 -0.6428 -1.4382  0.7905
 5582TIP3   OH238160   4.529   4.568   5.935 -0.1320 -0.2191 -0.1143
 5582TIP3    H138161   4.532   4.481   5.976  0.1939 -0.5321 -0.7844
 5582TIP3    H238162   4.591   4.562   5.862 -0.3551  0.4749 -0.3656
 5583TIP3   OH238163   4.915   2.449  11.323 -0.3588 -0.7330  0.2981
 5583TIP3    H138164   4.867   2.447  11.406 -1.5475 -0.4074 -0.3648
 5583TIP3    H238165   4.917   2.357  11.295 -1.2570 -0.6522 -0.0397
 5584TIP3   OH238166   3.382   4.519   3.202  0.5601 -0.1512 -0.2244
 5584TIP3    H138167   3.297   4.475   3.209  0.0929  0.7169 -0.3533
 5584TIP3    H238168   3.425   4.476   3.128 -0.5345  0.6510 -1.3615
 5585TIP3   OH238169   5.044   3.145  13.541  0.1538 -0.1621  0.7906
 5585TIP3    H138170   5.038   3.181  13.630  0.5042 -0.9317  1.1391
 5585TIP3    H238171   5.089   3.061  13.553 -0.7297 -0.7611  0.0128
 5586TIP3   OH238172   2.914   6.033  13.300  0.5472 -0.3539  0.2196
 5586TIP3    H138173   2.870   6.102  13.350  0.5162 -0.0677 -0.1997
 5586TIP3    H238174   2.871   5.952  13.327 -0.8903  0.0051 -0.8674
 5587TIP3   OH238175   3.703   6.564  17.095 -0.2840 -0.0377 -0.7162
 5587TIP3    H138176   3.649   6.641  17.107 -0.0881 -0.0091  0.0773
 5587TIP3    H238177   3.685   6.535  17.006 -0.9146  0.4931 -0.7680
 5588TIP3   OH238178   5.418   4.635   0.211  0.2531  0.6047  0.1686
 5588TIP3    H138179   5.363   4.571   0.256  0.9582  0.6290  1.1107
 5588TIP3    H238180   5.440   4.699   0.278  1.3468  0.6375 -0.1918
 5589TIP3   OH238181   6.088   3.495   4.400  0.6346  0.6245  0.8124
 5589TIP3    H138182   6.026   3.429   4.366  0.8765 -1.0923  3.4404
 5589TIP3    H238183   6.033   3.558   4.446  0.6668  0.3399  1.2409
 5590TIP3   OH238184   0.058   0.349   2.094  0.1800 -0.5121  0.0557
 5590TIP3    H138185  -0.006   0.279   2.080 -0.4054  0.2505 -1.2901
 5590TIP3    H238186   0.126   0.308   2.147 -1.0423 -1.5616  0.9025
 5591TIP3   OH238187   3.019   2.426   1.307  0.1224 -0.7798 -0.6623
 5591TIP3    H138188   3.015   2.366   1.382 -0.8313 -0.0118 -0.0726
 5591TIP3    H238189   3.101   2.473   1.318 -1.8309  2.3401  2.3550
 5592TIP3   OH238190   4.827   0.982   2.616  0.0814 -0.5116  0.2834
 5592TIP3    H138191   4.874   0.991   2.533 -0.6751 -1.5630 -0.2908
 5592TIP3    H238192   4.801   0.889   2.619  0.1057 -0.4941  1.7037
 5593TIP3   OH238193   6.514   3.385   3.980  0.4449 -0.1706 -0.1209
 5593TIP3    H138194   6.608   3.395   3.995  0.5255 -1.2073  0.1409
 5593TIP3    H238195   6.490   3.461   3.927  1.3159  0.4083  0.2842
 5594TIP3   OH238196   0.566   6.606   3.944  0.0695 -0.1222  0.5798
 5594TIP3    H138197   0.573   6.692   3.984  0.9451 -0.0424  0.2777
 5594TIP3    H238198   0.615   6.548   4.002  0.2043 -0.2540  0.3397
 5595TIP3   OH238199   4.291   4.355  12.859 -0.0103  0.4083 -0.0359
 5595TIP3    H138200   4.202   4.340  12.890  0.1316  0.5710  0.4669
 5595TIP3    H238201   4.345   4.302  12.918  0.0373 -1.9872 -2.0764
 5596TIP3   OH238202   2.381   4.952   5.545 -0.3497 -0.3542 -0.3360
 5596TIP3    H138203   2.450   4.910   5.596  0.1209 -0.6121 -1.1741
 5596TIP3    H238204   2.373   5.040   5.582 -0.7175 -0.8625  0.8364
 5597TIP3   OH238205   2.496   5.302  15.502 -0.0161  0.2262 -0.3959
 5597TIP3    H138206   2.557   5.357  15.551  0.7815  0.3346 -1.4713
 5597TIP3    H238207   2.425   5.362  15.477  0.9686  0.8681 -1.7761
 5598TIP3   OH238208   0.766   6.524   2.598  0.2376 -0.3094  0.3853
 5598TIP3    H138209   0.811   6.583   2.537 -0.2826 -1.4716 -1.1781
 5598TIP3    H238210   0.696   6.577   2.635  0.7141  0.4931  0.1696
 5599TIP3   OH238211   1.849   2.016   4.870 -0.3517  0.2472  0.3472
 5599TIP3    H138212   1.759   2.038   4.893 -0.4818 -0.4131  0.4896
 5599TIP3    H238213   1.867   1.935   4.917 -0.0251 -0.1753 -0.4761
 5600TIP3   OH238214   0.778   6.069   0.257  0.0476 -0.2169 -0.2596
 5600TIP3    H138215   0.769   6.037   0.167  0.0148 -0.7998 -0.0563
 5600TIP3    H238216   0.790   6.163   0.248 -0.7932 -0.1523 -0.8337
 5601TIP3   OH238217   0.604   6.008  13.305 -0.2431  0.2389 -0.1990
 5601TIP3    H138218   0.665   5.938  13.281 -0.1763  0.3779 -0.4314
 5601TIP3    H238219   0.587   6.054  13.223 -0.1128  0.6345 -0.0033
 5602TIP3   OH238220   5.655   1.193   6.916  0.6978  0.0979  0.1485
 5602TIP3    H138221   5.674   1.281   6.885  0.1373 -0.4862 -2.0209
 5602TIP3    H238222   5.733   1.142   6.892  0.2290 -0.3814 -0.3853
 5603TIP3   OH238223   0.928   1.263   2.359 -0.5420 -0.5596 -0.0865
 5603TIP3    H138224   1.009   1.233   2.399 -0.4284 -0.3685 -0.1710
 5603TIP3    H238225   0.944   1.254   2.265  0.0524  1.1696 -0.1809
 5604TIP3   OH238226   4.511   5.944  16.535 -0.1162 -0.3158 -0.4977
 5604TIP3    H138227   4.426   5.899  16.527 -0.3461  0.0572 -0.1757
 5604TIP3    H238228   4.529   5.943  16.629 -0.7144  1.3388 -0.3370
 5605TIP3   OH238229   4.885   1.357  13.710 -0.7778  0.0599 -0.2340
 5605TIP3    H138230   4.868   1.443  13.750  2.4465  0.8509 -0.2995
 5605TIP3    H238231   4.896   1.376  13.617  0.7141 -0.2691 -0.1414
 5606TIP3   OH238232   4.051   5.570  13.435 -0.0625 -0.3066  0.0333
 5606TIP3    H138233   4.082   5.651  13.474  2.0440 -0.6296 -0.7806
 5606TIP3    H238234   3.957   5.581  13.425 -0.4912  0.4055  3.6188
 5607TIP3   OH238235   0.658   1.924  16.853 -0.3215  0.0363 -0.3829
 5607TIP3    H138236   0.732   1.974  16.888 -0.3059 -0.4043  0.2409
 5607TIP3    H238237   0.685   1.900  16.764  2.3468 -4.0155  1.2428
 5608TIP3   OH238238   3.711   0.517  11.889 -0.2910 -0.0892 -0.6185
 5608TIP3    H138239   3.641   0.475  11.939  0.5609 -0.3184  0.3883
 5608TIP3    H238240   3.665   0.583  11.835 -1.5549 -1.7580 -1.6781
 5609TIP3   OH238241   3.820   2.813   3.905 -0.4156 -0.0146  0.3163
 5609TIP3    H138242   3.727   2.817   3.884 -0.0170 -0.4710 -1.7987
 5609TIP3    H238243   3.864   2.811   3.820  1.6239  1.8070  1.2235
 5610TIP3   OH238244   6.073   6.115  11.721  0.1852  0.3123  0.5383
 5610TIP3    H138245   6.044   6.205  11.702  0.3885  0.0170 -1.3956
 5610TIP3    H238246   6.078   6.073  11.635 -0.7220 -1.8225  1.4523
 5611TIP3   OH238247   5.824   4.539  12.236  0.5694  0.5531  0.0241
 5611TIP3    H138248   5.833   4.626  12.198 -0.9130  0.6010 -0.3000
 5611TIP3    H238249   5.753   4.498  12.186  1.8968 -1.2376 -0.4927
 5612TIP3   OH238250   6.537   6.752  16.588 -0.2146 -0.5743  0.4586
 5612TIP3    H138251   6.617   6.707  16.561  0.8697  1.8745 -0.6587
 5612TIP3    H238252   6.547   6.763  16.683  0.6442 -0.5334  0.3727
 5613TIP3   OH238253   1.032   5.789   2.884  0.8428 -0.1367 -0.0930
 5613TIP3    H138254   1.089   5.831   2.820  0.8328 -0.3970 -0.2760
 5613TIP3    H238255   0.959   5.754   2.833 -0.7947  2.3041  0.4148
 5614TIP3   OH238256   6.147   5.675  17.102 -0.0601  0.3113 -0.2952
 5614TIP3    H138257   6.230   5.630  17.088 -0.1712  0.3985 -1.2854
 5614TIP3    H238258   6.087   5.637  17.038 -0.8896  0.0217  0.6177
 5615TIP3   OH238259   1.787   3.305  12.960  0.2845 -0.1561 -0.1181
 5615TIP3    H138260   1.717   3.239  12.958  0.3270 -0.2004 -0.1327
 5615TIP3    H238261   1.798   3.325  13.053  0.3199 -0.2209 -0.1085
 5616TIP3   OH238262   5.893   4.632  16.133  0.4426  0.1608  1.0393
 5616TIP3    H138263   5.986   4.610  16.138  0.1777 -0.9265  1.6034
 5616TIP3    H238264   5.869   4.654  16.223 -0.2629 -1.5063  1.3090
 5617TIP3   OH238265   2.568   5.727   2.518  0.0727 -0.0843 -0.5677
 5617TIP3    H138266   2.652   5.714   2.472  0.6490  1.6972 -0.1024
 5617TIP3    H238267   2.514   5.654   2.489  1.2844 -0.4530 -2.0773
 5618TIP3   OH238268   3.567   6.032   0.645 -0.4613 -0.5602  0.2555
 5618TIP3    H138269   3.546   6.045   0.738  1.6578 -1.6964  0.9795
 5618TIP3    H238270   3.578   6.120   0.610 -3.1655 -0.0237  0.5169
 5619TIP3   OH238271   0.486   1.067   6.703 -0.1037 -0.1765 -0.2963
 5619TIP3    H138272   0.564   1.012   6.707  0.2757  0.3916  0.1662
 5619TIP3    H238273   0.424   1.016   6.651 -0.1673 -1.5375  1.0453
 5620TIP3   OH238274   5.138   3.385  15.020  0.2130  0.5716  0.6816
 5620TIP3    H138275   5.216   3.419  15.064  0.1346 -0.3263  1.5496
 5620TIP3    H238276   5.134   3.293  15.045 -0.1494  0.1532 -0.7823
 5621TIP3   OH238277   3.848   1.843   4.954  0.0857  0.0976 -0.2352
 5621TIP3    H138278   3.774   1.825   4.895 -2.1001  1.4840  1.9020
 5621TIP3    H238279   3.856   1.938   4.954  1.0800  0.0228  0.5355
 5622TIP3   OH238280   4.963   2.415   0.033  0.2399 -0.4336  0.2671
 5622TIP3    H138281   5.035   2.478   0.032 -1.5282  1.7494  0.5055
 5622TIP3    H238282   4.955   2.390   0.125 -1.3922  2.0873  0.9450
 5623TIP3   OH238283   1.101   4.500  12.718 -0.0535  0.4188  0.1570
 5623TIP3    H138284   1.084   4.584  12.762 -0.7736  0.2972  0.1236
 5623TIP3    H238285   1.026   4.489  12.659 -0.3612 -0.6348  0.7361
 5624TIP3   OH238286   3.203   0.217  13.148  0.7181  0.3183  0.6713
 5624TIP3    H138287   3.136   0.151  13.129  1.1607 -0.1555  0.7464
 5624TIP3    H238288   3.154   0.289  13.188  0.4875 -0.7537  2.4033
 5625TIP3   OH238289   4.866   6.737   2.470  0.3910 -0.9712  0.3974
 5625TIP3    H138290   4.804   6.696   2.530 -1.2426  0.7806 -0.0087
 5625TIP3    H238291   4.904   6.808   2.520  0.1681 -0.4633 -0.1394
 5626TIP3   OH238292   3.210   4.818   1.478  0.3583  0.0210  0.1912
 5626TIP3    H138293   3.228   4.908   1.507  1.0943  0.5936 -1.8650
 5626TIP3    H238294   3.268   4.764   1.531 -0.0235  0.7564  1.3988
 5627TIP3   OH238295   6.295   4.752  17.295 -0.2706  0.3218  0.4329
 5627TIP3    H138296   6.361   4.768  17.362  1.5728  0.3024 -1.2811
 5627TIP3    H238297   6.279   4.838  17.256 -0.4263  0.1438  0.0968
 5628TIP3   OH238298   6.366   3.808  12.190 -0.0302 -0.5536 -0.4289
 5628TIP3    H138299   6.442   3.854  12.154  0.6969 -0.3013  1.3361
 5628TIP3    H238300   6.361   3.836  12.281 -0.9324 -2.2519  0.0955
 5629TIP3   OH238301   0.571   5.938   3.304 -0.1504 -0.1200  0.5608
 5629TIP3    H138302   0.591   6.006   3.239 -2.4260 -0.0014 -0.0878
 5629TIP3    H238303   0.621   5.964   3.381  2.1014  0.1216 -0.8558
 5630TIP3   OH238304   2.069   2.075   2.787  0.2108  0.0934 -0.5202
 5630TIP3    H138305   2.071   2.168   2.810 -1.2501  0.2159 -0.7745
 5630TIP3    H238306   2.015   2.034   2.854 -1.5122 -0.0634 -1.9119
 5631TIP3   OH238307   6.424   2.278   0.174 -0.6041 -0.0985  0.6763
 5631TIP3    H138308   6.421   2.283   0.079 -0.2347  1.8271  0.7213
 5631TIP3    H238309   6.517   2.281   0.196 -0.6100 -1.7509  1.0998
 5632TIP3   OH238310   6.084   4.890  14.052  0.1174 -0.2413  0.1866
 5632TIP3    H138311   6.040   4.959  14.102 -1.0296 -0.1666 -0.8783
 5632TIP3    H238312   6.176   4.898  14.077 -0.3062  0.2298  1.7506
 5633TIP3   OH238313   5.869   2.057  16.128  0.0587  0.6742  0.3398
 5633TIP3    H138314   5.823   2.022  16.205  1.0972  1.7303  1.4771
 5633TIP3    H238315   5.945   2.102  16.164  0.1009  1.9596 -1.2598
 5634TIP3   OH238316   6.145   4.100  14.885  0.4838  0.5394 -0.3848
 5634TIP3    H138317   6.224   4.105  14.831  1.1390 -0.3685  0.4654
 5634TIP3    H238318   6.079   4.146  14.834  1.0378 -0.4244 -2.0461
 5635TIP3   OH238319   4.864   4.805   1.679 -0.0839 -0.3305 -0.2660
 5635TIP3    H138320   4.772   4.785   1.690 -0.6853  2.6543  1.1183
 5635TIP3    H238321   4.901   4.798   1.767 -0.0993  2.8140  0.1202
 5636TIP3   OH238322   0.401   2.793  17.263  0.1325 -0.3022 -0.0623
 5636TIP3    H138323   0.416   2.709  17.306 -0.3346 -0.1493  0.4012
 5636TIP3    H238324   0.350   2.771  17.185 -2.5234 -0.1729  1.5235
 5637TIP3   OH238325   2.985   1.650  11.999 -0.3667 -0.1757  0.1915
 5637TIP3    H138326   3.050   1.597  12.044  1.0951  0.2110 -1.3825
 5637TIP3    H238327   2.990   1.623  11.908 -1.5155  0.7691 -0.1763
 5638TIP3   OH238328   1.767   2.611  16.991  0.4563 -0.6451 -0.2376
 5638TIP3    H138329   1.679   2.647  17.001 -0.4354 -2.7087  0.0176
 5638TIP3    H238330   1.805   2.612  17.079  0.0484 -1.2002 -0.0470
 5639TIP3   OH238331   5.244   5.446   1.856  0.2340 -0.0751 -0.3384
 5639TIP3    H138332   5.218   5.393   1.931  4.1045 -4.5707 -1.6563
 5639TIP3    H238333   5.173   5.435   1.793 -0.3596 -1.4064  0.5280
 5640TIP3   OH238334   0.567   4.645  14.678  0.2509 -0.2197 -0.1731
 5640TIP3    H138335   0.660   4.661  14.665  0.1933  0.9793  0.7804
 5640TIP3    H238336   0.523   4.702  14.616  0.1229 -1.9433 -1.7791
 5641TIP3   OH238337   5.559   4.965  11.388 -0.5202 -0.4323  0.4222
 5641TIP3    H138338   5.540   4.986  11.479  2.1019 -0.1142  0.9666
 5641TIP3    H238339   5.518   4.880  11.373 -1.3000 -0.3110  1.7362
 5642TIP3   OH238340   0.947   1.600  12.166  0.1736  0.3402 -0.0693
 5642TIP3    H138341   0.921   1.546  12.241 -0.2660  1.4710  0.6209
 5642TIP3    H238342   1.035   1.570  12.144 -0.2716 -1.0128 -0.0473
 5643TIP3   OH238343   2.158   3.364  15.149 -0.4529  0.3426  0.1045
 5643TIP3    H138344   2.241   3.411  15.138  0.2553 -0.9791 -0.4570
 5643TIP3    H238345   2.142   3.325  15.063 -0.2649 -1.5952  0.8978
 5644TIP3   OH238346   2.160   6.456   2.389 -0.2585 -0.4337 -0.4337
 5644TIP3    H138347   2.080   6.404   2.377 -1.6284  1.0445  1.5659
 5644TIP3    H238348   2.200   6.459   2.302 -0.9577 -3.3944 -0.9467
 5645TIP3   OH238349   3.939   1.508   3.533 -0.1693  0.3299  0.4111
 5645TIP3    H138350   3.981   1.594   3.541  0.2684  0.1100  0.4503
 5645TIP3    H238351   3.993   1.450   3.586 -0.8636  0.1684  0.9621
 5646TIP3   OH238352   0.313   0.285  13.885  0.6393 -0.0174 -0.1365
 5646TIP3    H138353   0.311   0.211  13.825  1.4187 -0.1894  0.0357
 5646TIP3    H238354   0.393   0.332  13.862  0.2648  0.6546 -0.0992
 5647TIP3   OH238355   6.495   2.664   1.945  0.5910  0.2584  0.0974
 5647TIP3    H138356   6.509   2.605   2.019 -1.2364 -1.2017 -0.6428
 5647TIP3    H238357   6.561   2.636   1.880 -0.6821 -1.5461 -0.5146
 5648TIP3   OH238358   6.134   0.773  16.792 -0.3072 -0.1657  0.7447
 5648TIP3    H138359   6.122   0.838  16.722  0.0789  0.7072  1.4662
 5648TIP3    H238360   6.215   0.729  16.770  0.0234  0.3803  0.8370
 5649TIP3   OH238361   3.820   5.087  14.794 -0.6605 -0.2085 -0.2381
 5649TIP3    H138362   3.726   5.072  14.805 -1.2811  2.7204 -0.6205
 5649TIP3    H238363   3.828   5.182  14.789  2.5001 -0.2922  1.1116
 5650TIP3   OH238364   4.249   5.317  12.494  0.2952 -0.4030  0.1216
 5650TIP3    H138365   4.187   5.301  12.423 -0.0695  0.9410  0.1097
 5650TIP3    H238366   4.272   5.230  12.526  1.1478 -1.1129 -2.1901
 5651TIP3   OH238367   3.044   6.010  15.326  0.1402 -0.8562  0.5243
 5651TIP3    H138368   2.977   6.015  15.394 -2.2312 -1.9583 -1.6103
 5651TIP3    H238369   3.031   6.089  15.273 -0.5903 -1.8747 -0.8500
 5652TIP3   OH238370   2.389   0.062   0.283 -0.6394 -0.2018  0.1257
 5652TIP3    H138371   2.325   0.132   0.295  0.6608  1.4794 -1.9935
 5652TIP3    H238372   2.361   0.016   0.204  0.8200  0.7191 -0.9794
 5653TIP3   OH238373   4.972   4.608   2.594 -0.0067 -0.0976  0.1621
 5653TIP3    H138374   5.019   4.660   2.659  1.7908  1.0798 -1.9046
 5653TIP3    H238375   4.885   4.649   2.589 -0.4211 -0.6525  2.2355
 5654TIP3   OH238376   4.639   0.879   1.654  0.3508  0.3018  0.2277
 5654TIP3    H138377   4.636   0.962   1.702 -1.3771  0.1383  0.4727
 5654TIP3    H238378   4.547   0.859   1.636  0.9024  0.6720 -3.7630
 5655TIP3   OH238379   5.850   4.083   0.548  0.5428  0.0386  0.4831
 5655TIP3    H138380   5.840   4.025   0.473  1.6051 -0.3802  0.6538
 5655TIP3    H238381   5.928   4.051   0.593  2.2292  2.6531 -0.3807
 5656TIP3   OH238382   3.426   1.102  12.303  0.8184 -0.2247  0.5974
 5656TIP3    H138383   3.353   1.163  12.310 -1.2383 -2.1031 -2.1527
 5656TIP3    H238384   3.476   1.133  12.228 -0.9044 -2.3254 -1.5793
 5657TIP3   OH238385   2.134   5.666  17.334  0.2569  0.0179  0.5853
 5657TIP3    H138386   2.121   5.628  17.247  0.8911  1.7840 -0.3586
 5657TIP3    H238387   2.047   5.671  17.372 -0.4684  1.6604 -1.1051
 5658TIP3   OH238388   4.783   0.419   3.594  0.5960  0.0921 -0.0296
 5658TIP3    H138389   4.749   0.491   3.647 -0.3772 -1.9121  2.2579
 5658TIP3    H238390   4.729   0.419   3.516 -0.9886  0.4276  1.0185
 5659TIP3   OH238391   3.479   1.950  12.149 -0.5487  0.5912  0.0094
 5659TIP3    H138392   3.474   1.993  12.063 -0.0097 -1.6962 -1.2562
 5659TIP3    H238393   3.572   1.945  12.169 -0.4224 -1.5508 -0.8046
 5660TIP3   OH238394   6.359   2.012  17.264 -0.4728  0.2954  0.3667
 5660TIP3    H138395   6.358   1.930  17.215  0.4194 -0.2599  1.2204
 5660TIP3    H238396   6.312   1.991  17.345  1.5523 -0.0435  1.5273
 5661TIP3   OH238397   3.323   1.233   1.816 -0.3594  0.0695 -0.5277
 5661TIP3    H138398   3.234   1.264   1.796  0.0678  0.5702 -1.7202
 5661TIP3    H238399   3.335   1.157   1.759 -0.1748 -0.2722 -0.0395
 5662TIP3   OH238400   5.307   0.483   4.751 -0.3309 -0.7084 -0.2604
 5662TIP3    H138401   5.386   0.499   4.802 -1.7817  3.1216  1.1631
 5662TIP3    H238402   5.313   0.542   4.676 -1.4901 -0.8707 -0.5090
 5663TIP3   OH238403   3.373   1.480   5.370  0.4307  0.0452 -0.1131
 5663TIP3    H138404   3.312   1.547   5.400 -0.2389 -0.7976  0.4725
 5663TIP3    H238405   3.326   1.437   5.298  0.5364 -0.2861  0.0148
 5664TIP3   OH238406   0.673   6.297  14.461  0.1156  0.0617  0.8801
 5664TIP3    H138407   0.591   6.314  14.506 -0.2315 -3.7176  2.0272
 5664TIP3    H238408   0.658   6.215  14.414  2.7646  0.0637 -0.1608
 5665TIP3   OH238409   1.062   6.705   6.540 -0.5577  0.5275  0.4473
 5665TIP3    H138410   1.067   6.642   6.468 -0.5026 -1.1480  1.8499
 5665TIP3    H238411   0.973   6.741   6.534 -0.1901  1.2866 -1.1033
 5666TIP3   OH238412   2.522   4.760  15.641  0.4458 -0.4262 -0.3369
 5666TIP3    H138413   2.614   4.783  15.630  0.4683 -0.9718 -1.4594
 5666TIP3    H238414   2.515   4.727  15.730  1.3030 -0.2193 -0.1867
 5667TIP3   OH238415   1.028   5.507   2.272  0.8021 -0.1284  0.4701
 5667TIP3    H138416   1.109   5.555   2.287 -0.0619  1.2309  0.9196
 5667TIP3    H238417   0.987   5.550   2.197 -0.5628  0.6693  1.6211
 5668TIP3   OH238418   1.143   1.156   6.318  0.1871 -0.1971  1.2782
 5668TIP3    H138419   1.166   1.193   6.403  1.9228 -0.4990  0.9841
 5668TIP3    H238420   1.197   1.205   6.256 -2.1713  1.0894  0.1175
 5669TIP3   OH238421   3.351   5.358   0.519  0.3582  0.0274 -0.3577
 5669TIP3    H138422   3.371   5.452   0.519  1.5203 -0.1978 -1.1587
 5669TIP3    H238423   3.296   5.345   0.442  0.2872  0.0265 -0.3074
 5670TIP3   OH238424   2.417   1.208  11.213 -0.5385 -0.1742 -0.7021
 5670TIP3    H138425   2.451   1.282  11.264 -0.7908 -0.1249 -0.6067
 5670TIP3    H238426   2.401   1.139  11.278 -0.0437 -0.4105 -0.8254
 5671TIP3   OH238427   0.106   3.979  12.559  0.1999 -0.0120 -0.2131
 5671TIP3    H138428   0.081   4.053  12.504  1.5788 -0.5100 -1.5853
 5671TIP3    H238429   0.085   3.902  12.506  1.0240 -0.5238  0.1844
 5672TIP3   OH238430   3.527   3.806  10.929 -0.0570 -0.7230  0.3967
 5672TIP3    H138431   3.434   3.819  10.911 -0.0492 -0.6850  0.3837
 5672TIP3    H238432   3.558   3.751  10.857  0.1903  0.2260 -0.2424
 5673TIP3   OH238433   0.405   5.566  13.415  0.2987 -0.3152  0.0810
 5673TIP3    H138434   0.462   5.623  13.363 -1.4458  1.7840  0.3205
 5673TIP3    H238435   0.349   5.523  13.350  0.7397 -0.7927  0.0015
 5674TIP3   OH238436   1.990   6.427   1.419  0.1872  0.7879  0.3424
 5674TIP3    H138437   1.927   6.372   1.373  0.2692  1.8569 -1.1195
 5674TIP3    H238438   1.938   6.478   1.481 -0.4180  1.7154 -0.9022
 5675TIP3   OH238439   4.143   1.001   5.984 -0.1294 -0.2341 -0.4855
 5675TIP3    H138440   4.224   1.043   5.956  0.6007 -0.7622  0.7653
 5675TIP3    H238441   4.164   0.908   5.986 -0.3339 -0.2673  1.1772
 5676TIP3   OH238442   4.692   1.736  15.826  0.0638  0.4529 -0.2177
 5676TIP3    H138443   4.734   1.669  15.772 -0.7340  0.7446 -1.2255
 5676TIP3    H238444   4.600   1.734  15.800 -0.9384 -1.0982  2.8676
 5677TIP3   OH238445   5.720   5.945  15.936  0.3963 -0.1696  0.3659
 5677TIP3    H138446   5.674   6.022  15.904  0.0209 -0.8929 -0.9088
 5677TIP3    H238447   5.653   5.876  15.934  0.8963 -0.6777  0.8761
 5678TIP3   OH238448   5.758   4.026  12.211 -0.2510  0.2149  0.2444
 5678TIP3    H138449   5.696   4.054  12.144  2.1176  4.2543 -0.5881
 5678TIP3    H238450   5.782   3.937  12.186 -0.8316  0.9027 -3.2504
 5679TIP3   OH238451   5.258   0.279  13.010 -0.5968  0.5815 -0.2943
 5679TIP3    H138452   5.276   0.265  13.103 -1.0707 -1.7168 -0.4868
 5679TIP3    H238453   5.345   0.290  12.970 -0.3669  1.1532  0.3531
 5680TIP3   OH238454   1.601   1.845  16.804  0.4109 -0.1819  0.2029
 5680TIP3    H138455   1.652   1.866  16.882  0.8156  2.3996 -0.6787
 5680TIP3    H238456   1.655   1.781  16.757  2.6129  1.9141 -0.3442
 5681TIP3   OH238457   0.943   0.935  14.489  0.0354 -0.3089  0.3223
 5681TIP3    H138458   0.891   0.857  14.507  1.1632 -0.7785  1.7427
 5681TIP3    H238459   0.905   1.003  14.546 -0.3954 -0.0519 -0.2659
 5682TIP3   OH238460   6.121   3.066  14.624  0.8495 -0.4578 -0.4663
 5682TIP3    H138461   6.112   3.058  14.719  0.4144 -0.7952 -0.5364
 5682TIP3    H238462   6.070   2.993  14.588  0.5653 -0.0162 -0.9764
 5683TIP3   OH238463   6.128   4.248  15.368  0.4126  0.4183 -0.4420
 5683TIP3    H138464   6.203   4.219  15.315 -0.8801 -3.0069 -0.6778
 5683TIP3    H238465   6.055   4.247  15.307 -0.2718  1.2262  0.3501
 5684TIP3   OH238466   3.078   3.456  14.421 -0.0669  0.0196  0.5555
 5684TIP3    H138467   3.084   3.452  14.516 -1.9941  2.1932  0.8461
 5684TIP3    H238468   3.077   3.549  14.401 -2.1747 -0.3308 -1.3819
 5685TIP3   OH238469   0.569   4.280   0.713  0.2030 -0.3416 -0.1796
 5685TIP3    H138470   0.661   4.256   0.710 -0.0611 -1.6397  0.9617
 5685TIP3    H238471   0.541   4.260   0.802 -1.4140 -0.9560 -0.7721
 5686TIP3   OH238472   2.357   5.489  11.461  0.1626  0.3381 -0.3740
 5686TIP3    H138473   2.296   5.561  11.450 -0.1536  0.4575  1.7032
 5686TIP3    H238474   2.352   5.440  11.379 -0.4427  2.0371 -1.3885
 5687TIP3   OH238475   1.961   0.867  12.855  0.3199 -0.3148  0.0910
 5687TIP3    H138476   1.948   0.816  12.935  1.1424  1.4791  1.4381
 5687TIP3    H238477   1.977   0.956  12.886 -0.4782  0.6644 -2.1467
 5688TIP3   OH238478   5.977   2.430  16.644  0.1478 -0.0097  0.4331
 5688TIP3    H138479   5.990   2.342  16.610 -1.1651  0.6595 -2.0023
 5688TIP3    H238480   5.977   2.486  16.566 -1.5949  1.8233  1.6690
 5689TIP3   OH238481   1.162   6.302  13.884 -0.3953  0.7211  0.0603
 5689TIP3    H138482   1.217   6.228  13.860 -0.9821  0.9408 -2.2509
 5689TIP3    H238483   1.203   6.377  13.841 -0.7320  1.4524  0.9800
 5690TIP3   OH238484   0.168   5.442   1.579 -0.2647 -0.2257 -0.5785
 5690TIP3    H138485   0.111   5.366   1.590  0.3987 -0.4533  1.8064
 5690TIP3    H238486   0.110   5.510   1.544 -1.5040 -1.0593 -0.2237
 5691TIP3   OH238487   5.638   6.140  15.767 -0.1458  0.2521 -0.4039
 5691TIP3    H138488   5.544   6.131  15.783 -0.2574  1.6804 -0.0986
 5691TIP3    H238489   5.647   6.226  15.726  1.1208  0.5835  0.5046
 5692TIP3   OH238490   6.098   2.998  14.303 -0.4325  0.1541  0.3382
 5692TIP3    H138491   6.021   3.055  14.298 -0.5923 -0.1727 -1.6253
 5692TIP3    H238492   6.083   2.943  14.379 -0.9921  1.7024  1.3893
 5693TIP3   OH238493   5.883   0.502   4.294  0.1269 -0.2354  0.1914
 5693TIP3    H138494   5.914   0.505   4.203 -1.1749 -0.8993 -0.2976
 5693TIP3    H238495   5.939   0.564   4.340  1.1344 -0.2502 -0.9657
 5694TIP3   OH238496   5.325   1.004   3.414  0.0790 -0.6805 -0.6699
 5694TIP3    H138497   5.403   0.978   3.365  0.0249 -0.0899 -1.0673
 5694TIP3    H238498   5.357   1.020   3.503  0.2280 -1.4512 -0.5752
 5695TIP3   OH238499   2.329   3.706   5.416  0.4505  0.1221  0.4635
 5695TIP3    H138500   2.377   3.729   5.495 -1.3217 -0.1328  1.6865
 5695TIP3    H238501   2.249   3.759   5.420  0.8521  0.9874 -1.7939
 5696TIP3   OH238502   4.959   3.718  11.414  0.3022  0.3193 -0.0465
 5696TIP3    H138503   4.911   3.642  11.382  1.2079 -0.0099 -0.6686
 5696TIP3    H238504   4.898   3.791  11.405 -0.3254 -0.2061 -0.1151
 5697TIP3   OH238505   6.414   0.728  16.286 -0.4317 -0.1133 -0.6102
 5697TIP3    H138506   6.464   0.657  16.324  1.6044  1.4746 -0.1631
 5697TIP3    H238507   6.441   0.730  16.194  1.8766  1.8918  0.0215
 5698TIP3   OH238508   0.160   2.350   1.048 -0.8213 -0.3197 -0.1871
 5698TIP3    H138509   0.142   2.256   1.048 -0.7350 -0.3352  0.2444
 5698TIP3    H238510   0.222   2.364   1.119 -2.5163  0.3773  1.2488
 5699TIP3   OH238511   4.399   5.866   2.946  0.1909 -0.3072 -0.3293
 5699TIP3    H138512   4.470   5.875   3.008  0.1943 -1.6836 -0.0910
 5699TIP3    H238513   4.360   5.953   2.940  1.0599  0.1556  0.5316
 5700TIP3   OH238514   4.316   0.265   4.702  0.5527  0.1945  0.0260
 5700TIP3    H138515   4.327   0.297   4.612  0.5201 -0.5729 -0.2534
 5700TIP3    H238516   4.366   0.184   4.705  1.4012  0.7277  1.0030
 5701TIP3   OH238517   3.412   1.935  16.824  0.0484  0.2138  0.7707
 5701TIP3    H138518   3.399   1.859  16.881 -1.3819 -1.0349 -1.1238
 5701TIP3    H238519   3.358   2.004  16.863 -1.7602 -0.9402  0.3849
 5702TIP3   OH238520   2.091   2.384  11.236 -0.3819 -0.2922  0.4444
 5702TIP3    H138521   2.147   2.377  11.313  1.2403 -1.0804 -0.7511
 5702TIP3    H238522   2.131   2.453  11.183 -1.3988  0.1492  0.2290
 5703TIP3   OH238523   1.750   2.109   1.974  0.1580  0.4949 -0.1915
 5703TIP3    H138524   1.817   2.064   2.026 -1.0080 -0.9347  0.1406
 5703TIP3    H238525   1.691   2.147   2.039 -0.2388  0.3726 -0.4793
 5704TIP3   OH238526   2.312   3.683  13.367  0.4053 -0.4542 -0.0962
 5704TIP3    H138527   2.370   3.620  13.410 -1.1363 -0.9819  1.3181
 5704TIP3    H238528   2.345   3.769  13.393  0.6518 -0.7483  0.5763
 5705TIP3   OH238529   5.634   3.060  17.002 -0.0415 -0.0619  0.0569
 5705TIP3    H138530   5.715   3.022  16.969 -0.9291 -1.0329 -1.0948
 5705TIP3    H238531   5.571   3.048  16.931 -1.2648  0.4474  1.0136
 5706TIP3   OH238532   1.130   4.908  15.222  0.2359  0.4091 -0.0685
 5706TIP3    H138533   1.165   4.997  15.226  0.9958  0.1532 -0.6808
 5706TIP3    H238534   1.191   4.855  15.274 -0.7015  0.3712  1.0498
 5707TIP3   OH238535   3.871   0.538  12.199  0.3085 -0.8291  0.3918
 5707TIP3    H138536   3.944   0.486  12.164  1.3136  0.3112  0.7257
 5707TIP3    H238537   3.835   0.583  12.123 -0.1702 -1.5147  0.2003
 5708TIP3   OH238538   1.616   5.836  16.496 -0.2566  0.4430 -0.2582
 5708TIP3    H138539   1.707   5.866  16.495  0.2110 -0.8959  0.3050
 5708TIP3    H238540   1.570   5.899  16.551  0.3268  1.1187 -0.5359
 5709TIP3   OH238541   1.324   2.193  12.288  0.3477  0.3562  0.5278
 5709TIP3    H138542   1.361   2.130  12.226 -0.2430 -1.3311  1.8303
 5709TIP3    H238543   1.257   2.240  12.238  1.3742  0.5773 -0.6941
 5710TIP3   OH238544   1.576   1.406   1.113  0.2721 -1.3165  0.4927
 5710TIP3    H138545   1.581   1.312   1.126  0.7974 -1.1299  1.7487
 5710TIP3    H238546   1.572   1.443   1.201  2.2162 -0.0596  0.1257
 5711TIP3   OH238547   3.457   0.580   3.915 -0.2374  0.0464 -0.1669
 5711TIP3    H138548   3.536   0.547   3.958 -1.4110 -1.1529  1.1425
 5711TIP3    H238549   3.490   0.642   3.850  1.8489 -1.2661 -0.4564
 5712TIP3   OH238550   4.469   0.990  15.497 -0.1107  0.6770 -0.5182
 5712TIP3    H138551   4.562   0.969  15.507 -0.4935 -0.7775  0.3183
 5712TIP3    H238552   4.462   1.083  15.516  1.2542  0.9361 -1.1793
 5713TIP3   OH238553   3.881   1.697   5.597  0.6697 -0.0726  0.3850
 5713TIP3    H138554   3.940   1.707   5.672 -0.5858 -1.6510  1.6608
 5713TIP3    H238555   3.830   1.618   5.617 -1.9490  1.2623 -0.5730
 5714TIP3   OH238556   1.815   0.813  17.252 -0.0850 -0.2422  0.0948
 5714TIP3    H138557   1.760   0.794  17.176 -0.0950  0.1542  0.0013
 5714TIP3    H238558   1.773   0.766  17.324 -0.7324  0.3193  0.0910
 5715TIP3   OH238559   0.568   1.440  16.535  0.0937  0.1834  0.2670
 5715TIP3    H138560   0.586   1.426  16.628  0.0864  3.3118  0.8661
 5715TIP3    H238561   0.520   1.523  16.533  1.3198  0.9505 -2.6077
 5716TIP3   OH238562   2.323   6.266   6.572 -0.8990 -0.5776  1.0084
 5716TIP3    H138563   2.302   6.219   6.653 -2.3787 -3.2005 -0.7534
 5716TIP3    H238564   2.416   6.251   6.558 -0.7706 -0.6314  1.8732
 5717TIP3   OH238565   3.476   0.535   0.466 -0.4682  0.0150  0.7451
 5717TIP3    H138566   3.441   0.606   0.519  0.5780  2.4506 -1.5865
 5717TIP3    H238567   3.407   0.515   0.403  0.5478  1.7606 -1.0426
 5718TIP3   OH238568   2.407   1.636  11.524 -0.2307 -0.5787  0.0485
 5718TIP3    H138569   2.460   1.713  11.502  1.3816 -1.6328  0.0101
 5718TIP3    H238570   2.318   1.669  11.530  0.5405  1.4971  1.1533
 5719TIP3   OH238571   2.733   1.197  13.693  0.8219 -0.0700  0.2775
 5719TIP3    H138572   2.704   1.276  13.647 -2.2408 -1.6292 -0.7364
 5719TIP3    H238573   2.758   1.136  13.623 -2.8196 -2.0796  0.4918
 5720TIP3   OH238574   4.777   0.033   0.544 -0.6521  0.4858 -0.1589
 5720TIP3    H138575   4.784   0.113   0.597 -0.4384  0.5646 -0.3039
 5720TIP3    H238576   4.742  -0.033   0.604  0.3733  0.3530  0.3162
 5721TIP3   OH238577   0.770   6.533  13.808  0.2137 -0.0331 -0.3911
 5721TIP3    H138578   0.799   6.485  13.886 -1.3899  1.4305  1.2135
 5721TIP3    H238579   0.851   6.566  13.768  1.0384  1.2719  2.1142
 5722TIP3   OH238580   5.814   2.271   5.860 -0.0433  0.1091 -0.2083
 5722TIP3    H138581   5.881   2.317   5.912 -0.9198  1.2380 -0.0269
 5722TIP3    H238582   5.731   2.302   5.896 -0.7003  1.2481 -2.4854
 5723TIP3   OH238583   0.730   2.956  11.900  0.2933  0.0894 -0.3073
 5723TIP3    H138584   0.819   2.925  11.880  0.1341  0.0944 -1.0524
 5723TIP3    H238585   0.679   2.934  11.822 -0.8888 -1.9090  0.9297
 5724TIP3   OH238586   1.140   3.249  15.318  0.0397 -0.1056  0.0669
 5724TIP3    H138587   1.228   3.252  15.357 -0.1916  2.3083  0.5406
 5724TIP3    H238588   1.121   3.340  15.294 -1.6170 -0.8505 -1.7213
 5725TIP3   OH238589   2.664   2.089   2.702 -0.3425 -0.5156  0.5531
 5725TIP3    H138590   2.665   1.994   2.702 -2.9800 -0.6221  0.2138
 5725TIP3    H238591   2.706   2.114   2.619  3.7612 -1.1170  2.2130
 5726TIP3   OH238592   3.194   3.836  11.238  0.5092  0.0914 -0.6760
 5726TIP3    H138593   3.281   3.805  11.215  0.8440 -0.4361  1.1385
 5726TIP3    H238594   3.160   3.769  11.298 -0.7450  0.7801 -0.5839
 5727TIP3   OH238595   1.912   4.540  13.412  0.2666 -0.2956  0.3300
 5727TIP3    H138596   1.962   4.613  13.374  0.7626 -0.4007  0.7750
 5727TIP3    H238597   1.907   4.476  13.341  1.0051 -0.3971  0.3571
 5728TIP3   OH238598   5.402   2.127   4.865 -0.1141  0.1402 -0.3150
 5728TIP3    H138599   5.425   2.116   4.957 -0.6379  1.4908 -0.0038
 5728TIP3    H238600   5.306   2.123   4.863 -0.1313  0.5813 -0.7275
 5729TIP3   OH238601   5.404   4.389  13.276 -0.1369 -0.0660  0.0901
 5729TIP3    H138602   5.440   4.375  13.189  0.1487 -0.7080  0.3008
 5729TIP3    H238603   5.310   4.401  13.263  0.2966  3.9536 -0.7280
 5730TIP3   OH238604   6.392   0.546   0.458 -0.3963  0.0031 -0.1832
 5730TIP3    H138605   6.437   0.473   0.499 -0.4422  0.4842  0.7492
 5730TIP3    H238606   6.462   0.602   0.424 -0.2988  0.5037  0.8299
 5731TIP3   OH238607   3.021   4.102  15.561 -0.2805 -0.1896  0.6328
 5731TIP3    H138608   2.993   4.192  15.543  1.3252  0.1453 -0.3967
 5731TIP3    H238609   3.005   4.055  15.479  1.9516  0.0027  0.0156
 5732TIP3   OH238610   5.132   0.167  13.740  0.4736 -0.2501 -0.1166
 5732TIP3    H138611   5.174   0.144  13.657  0.5131  1.5023 -0.6114
 5732TIP3    H238612   5.198   0.220  13.786  0.6059 -1.5109  1.2391
 5733TIP3   OH238613   3.099   4.435  14.085 -0.6997  0.9720 -0.4964
 5733TIP3    H138614   3.034   4.400  14.023 -0.6694 -0.7532  0.3906
 5733TIP3    H238615   3.116   4.363  14.145  2.2407  1.2855 -0.8195
 5734TIP3   OH238616   3.386   2.137  15.723 -0.0232  0.0440 -0.0672
 5734TIP3    H138617   3.359   2.191  15.797  0.2029 -0.1984  0.1999
 5734TIP3    H238618   3.333   2.057  15.731 -0.6970  0.4136 -0.7309
 5735TIP3   OH238619   1.142   4.573   4.375  0.6995  0.0375 -0.0247
 5735TIP3    H138620   1.196   4.648   4.350 -0.6240  0.4470 -1.8898
 5735TIP3    H238621   1.205   4.506   4.402  2.0057  1.1484 -0.2035
 5736TIP3   OH238622   4.262   6.735  16.211  0.0832 -0.3227  0.4230
 5736TIP3    H138623   4.353   6.737  16.240  1.0689 -0.7335 -2.3714
 5736TIP3    H238624   4.232   6.825  16.220  1.4911  0.2863 -0.6100
 5737TIP3   OH238625   2.214   2.967   5.635 -0.2591 -0.3011  0.2765
 5737TIP3    H138626   2.254   2.988   5.719 -1.4743  0.0463  0.7948
 5737TIP3    H238627   2.124   2.943   5.657  0.0410 -2.5638 -0.6720
 5738TIP3   OH238628   5.433   1.200   3.092 -0.4367 -0.4126  0.0119
 5738TIP3    H138629   5.397   1.145   3.023  0.3235 -0.1937 -0.5701
 5738TIP3    H238630   5.523   1.170   3.103 -0.2360  0.2318  0.1908
 5739TIP3   OH238631   1.780   5.292   1.157  0.6915  0.3145  0.1487
 5739TIP3    H138632   1.734   5.253   1.232  0.6115  2.3659  1.2388
 5739TIP3    H238633   1.717   5.354   1.120  1.3992  0.6665 -0.4900
 5740TIP3   OH238634   1.699   3.734  16.360 -0.1455 -0.3327  0.3649
 5740TIP3    H138635   1.629   3.682  16.322  0.4788  1.1940 -3.3377
 5740TIP3    H238636   1.779   3.684  16.341  0.2792  0.9615 -1.5613
 5741TIP3   OH238637   1.403   0.360   5.645  0.5450  0.3548 -0.5639
 5741TIP3    H138638   1.396   0.408   5.728 -1.0549 -2.8892  1.3981
 5741TIP3    H238639   1.498   0.347   5.634  0.8547  1.7606  0.1500
 5742TIP3   OH238640   2.372   2.554  15.743  0.5432 -0.7990  0.4376
 5742TIP3    H138641   2.365   2.556  15.839 -0.2069  0.3699  0.3716
 5742TIP3    H238642   2.291   2.512  15.714  1.1781 -2.0075  0.3285
 5743TIP3   OH238643   2.765   2.648  15.542  0.0875  0.3420 -0.0417
 5743TIP3    H138644   2.738   2.607  15.624  0.5879 -0.4611 -0.2667
 5743TIP3    H238645   2.815   2.580  15.496  0.9783  1.2258 -0.4089
 5744TIP3   OH238646   3.104   2.201   6.262 -0.5109 -0.2989 -0.7282
 5744TIP3    H138647   3.117   2.227   6.170  2.5262  2.4760  0.3108
 5744TIP3    H238648   3.171   2.134   6.277 -0.9651 -0.7041 -0.4599
 5745TIP3   OH238649   5.740   4.515   1.969 -0.2396  0.2947  0.3052
 5745TIP3    H138650   5.815   4.568   1.941 -1.9928  2.2022 -1.0781
 5745TIP3    H238651   5.715   4.552   2.054 -0.3666  0.5031  0.1785
 5746TIP3   OH238652   2.115   3.033   3.459  0.3833  0.2683  0.1711
 5746TIP3    H138653   2.116   3.127   3.477 -2.9653  0.5613 -0.6038
 5746TIP3    H238654   2.069   2.995   3.534  1.2320 -0.7238  0.2097
 5747TIP3   OH238655   2.739   2.920   3.908 -0.1387 -0.1272  0.1430
 5747TIP3    H138656   2.718   2.930   3.815 -1.6738 -1.5837  0.2728
 5747TIP3    H238657   2.833   2.907   3.910 -0.2330 -1.4749 -1.3990
 5748TIP3   OH238658   4.675   3.088  10.925  0.3136 -0.2058 -0.6260
 5748TIP3    H138659   4.665   3.023  10.855 -0.9326 -0.0570 -0.6174
 5748TIP3    H238660   4.637   3.168  10.888  0.4994  0.1243 -0.1125
 5749TIP3   OH238661   0.007   4.876  14.553  0.2408 -0.3470  0.3078
 5749TIP3    H138662   0.015   4.894  14.647 -1.2120 -0.8775  0.5547
 5749TIP3    H238663  -0.087   4.872  14.538  0.4677 -1.9609 -0.8449
 5750TIP3   OH238664   3.466   0.208   1.151  0.6568  0.1067  0.0851
 5750TIP3    H138665   3.490   0.276   1.088  0.3020 -0.5328 -0.7455
 5750TIP3    H238666   3.389   0.166   1.114 -0.0334  0.2226  1.3192
 5751TIP3   OH238667   5.058   0.376   0.192  0.2474 -0.2257 -0.4036
 5751TIP3    H138668   5.113   0.358   0.269 -0.8797 -1.1816  0.2204
 5751TIP3    H238669   5.035   0.289   0.159 -2.8570 -0.0139  0.8368
 5752TIP3   OH238670   0.476   6.050  11.548  0.0870  0.2123  0.0956
 5752TIP3    H138671   0.536   5.995  11.497 -2.0922 -2.6030  0.3024
 5752TIP3    H238672   0.428   6.100  11.482  0.4127  0.0023 -0.3067
 5753TIP3   OH238673   3.540   4.127  13.939 -0.3602 -0.4547  0.2186
 5753TIP3    H138674   3.582   4.140  14.024 -0.4527 -0.9496  0.3405
 5753TIP3    H238675   3.450   4.102  13.960 -2.5869  5.6889  0.0491
 5754TIP3   OH238676   2.939   1.346   4.702  0.5813  0.4294 -0.2663
 5754TIP3    H138677   3.024   1.305   4.687  0.3090  0.0811 -0.9030
 5754TIP3    H238678   2.904   1.361   4.614 -0.4326 -0.2971 -0.0085
 5755TIP3   OH238679   4.553   0.198   1.788 -1.0939 -0.2717  0.3684
 5755TIP3    H138680   4.546   0.113   1.830  2.0430 -0.9453 -0.2003
 5755TIP3    H238681   4.563   0.260   1.861 -0.3999 -0.8113  0.7490
 5756TIP3   OH238682   4.056   4.496  11.042 -0.4692  0.2648 -0.1196
 5756TIP3    H138683   4.021   4.545  10.967 -1.5645  0.7370  0.6695
 5756TIP3    H238684   3.980   4.483  11.099  0.6416  1.4745  1.7338
 5757TIP3   OH238685   5.914   3.357   1.671 -0.3546 -0.3708  0.5812
 5757TIP3    H138686   5.973   3.379   1.598 -1.0702  0.0385  0.1140
 5757TIP3    H238687   5.834   3.327   1.628 -0.2258 -1.6795  1.2115
 5758TIP3   OH238688   5.851   4.057   5.387  0.7181  0.6854 -0.7325
 5758TIP3    H138689   5.843   4.101   5.302 -0.6524  0.4838 -0.7394
 5758TIP3    H238690   5.850   3.964   5.365 -0.0867  0.6269 -0.4812
 5759TIP3   OH238691   4.264   3.097  12.467 -0.1345 -0.2624  0.1138
 5759TIP3    H138692   4.188   3.112  12.523  0.5311  0.4537  0.8661
 5759TIP3    H238693   4.275   3.179  12.419 -0.1571 -0.5569 -0.4001
 5760TIP3   OH238694   4.316   4.204  13.301 -0.8744 -0.7141  0.2256
 5760TIP3    H138695   4.300   4.125  13.250 -0.0123 -0.3088 -0.6905
 5760TIP3    H238696   4.408   4.225  13.286 -0.7570 -0.2419  1.4728
 5761TIP3   OH238697   5.355   3.233   2.653  0.6870 -0.5382 -0.2245
 5761TIP3    H138698   5.303   3.171   2.704  1.6778 -0.1536  1.3504
 5761TIP3    H238699   5.292   3.300   2.625 -0.0084 -1.1187 -0.0802
 5762TIP3   OH238700   0.545   5.211   2.144 -0.1710 -0.1256  0.1340
 5762TIP3    H138701   0.464   5.254   2.116 -0.2356 -1.3253 -1.7028
 5762TIP3    H238702   0.614   5.256   2.095  0.0753 -0.2391  0.3733
 5763TIP3   OH238703   4.980   0.217   4.993  0.0761 -0.1880 -0.3409
 5763TIP3    H138704   5.040   0.222   4.918 -0.0560 -0.4769 -0.4677
 5763TIP3    H238705   4.997   0.297   5.042  2.4968 -1.4308  1.0730
 5764TIP3   OH238706   3.565   2.374   5.183  0.2565  0.2210  0.0818
 5764TIP3    H138707   3.618   2.429   5.241  1.7574  0.4816 -1.4569
 5764TIP3    H238708   3.628   2.338   5.121 -0.7742 -2.7868  0.6462
 5765TIP3   OH238709   3.809   0.277  17.282  0.2596 -0.3976  0.5298
 5765TIP3    H138710   3.887   0.234  17.247  0.8288  0.5741  0.5625
 5765TIP3    H238711   3.807   0.250  17.374  0.4471 -0.5774  0.4845
 5766TIP3   OH238712   5.103   5.486  11.959 -0.3712  0.0656 -0.0425
 5766TIP3    H138713   5.095   5.398  11.922 -0.3862 -0.0230  0.1759
 5766TIP3    H238714   5.119   5.472  12.052 -1.3377  0.3111  0.1644
 5767TIP3   OH238715   5.587   6.684   1.129 -0.4826  0.6632 -0.2692
 5767TIP3    H138716   5.508   6.650   1.087 -0.5974 -1.6094  1.5847
 5767TIP3    H238717   5.617   6.613   1.186  1.6075  2.2966  0.8326
 5768TIP3   OH238718   4.861   5.671  11.315  0.2002  0.2437  0.1978
 5768TIP3    H138719   4.922   5.663  11.388  0.6682 -0.7058 -0.2801
 5768TIP3    H238720   4.851   5.766  11.303  0.0548  0.4174  1.5265
 5769TIP3   OH238721   0.200   1.736  15.277  0.2433 -0.2994  0.1558
 5769TIP3    H138722   0.279   1.791  15.281  0.2575 -0.3097  0.0097
 5769TIP3    H238723   0.187   1.719  15.184 -2.5892  3.5308 -0.4040
 5770TIP3   OH238724   4.529   2.962   3.551 -0.1721  0.1642 -0.1472
 5770TIP3    H138725   4.587   2.981   3.478  1.1995  2.0317  1.3365
 5770TIP3    H238726   4.580   2.905   3.609 -0.7434 -0.1900  0.0261
 5771TIP3   OH238727   0.350   3.136  12.076  0.2333 -0.2311 -0.7003
 5771TIP3    H138728   0.344   3.167  11.986  0.0507  0.3131 -0.5015
 5771TIP3    H238729   0.421   3.187  12.115 -0.1792  0.0599 -0.3258
 5772TIP3   OH238730   0.554   0.904   5.670  0.1595  0.5970  0.6894
 5772TIP3    H138731   0.532   0.827   5.723 -0.5596 -1.0684 -1.8838
 5772TIP3    H238732   0.643   0.927   5.698  0.9492 -2.0286  0.6135
 5773TIP3   OH238733   2.128   3.759   4.624  1.2300  0.1037  0.2283
 5773TIP3    H138734   2.157   3.809   4.701 -0.3409  1.7901 -0.2046
 5773TIP3    H238735   2.050   3.711   4.654  0.7402  0.5958 -0.2334
 5774TIP3   OH238736   2.582   0.485  12.536  0.0178  0.4910  0.3393
 5774TIP3    H138737   2.546   0.408  12.492  1.1759 -2.6023  4.1749
 5774TIP3    H238738   2.672   0.490  12.505 -0.4023  1.2066 -0.8554
 5775TIP3   OH238739   5.084   0.452  13.960 -0.1248 -0.5675 -0.0658
 5775TIP3    H138740   5.060   0.453  14.053 -0.5692 -0.0070 -0.1847
 5775TIP3    H238741   5.171   0.490  13.958 -0.6152  0.5934 -0.0096
 5776TIP3   OH238742   3.428   6.124  12.166  0.6141  0.5363  0.1407
 5776TIP3    H138743   3.364   6.171  12.113  0.8774 -0.2423 -0.9083
 5776TIP3    H238744   3.471   6.192  12.218  2.2434  1.7896 -2.5986
 5777TIP3   OH238745   6.548   0.073  12.121  0.3250 -0.4122  0.5287
 5777TIP3    H138746   6.502  -0.005  12.092 -0.2769  0.0604  0.1906
 5777TIP3    H238747   6.575   0.053  12.211  0.5284 -1.1543  0.3092
 5778TIP3   OH238748   1.188   2.359   4.096  0.2119  0.1316 -0.2056
 5778TIP3    H138749   1.273   2.367   4.053  0.0624  0.9930 -0.3607
 5778TIP3    H238750   1.161   2.269   4.080  0.8281  0.0247 -0.6595
 5779TIP3   OH238751   4.903   2.378  16.643  0.0156 -0.1343  0.3066
 5779TIP3    H138752   4.897   2.419  16.729  0.6577  2.9423 -0.9622
 5779TIP3    H238753   4.950   2.442  16.590 -1.0636 -1.5416 -2.5574
 5780TIP3   OH238754   4.539   4.773  14.072 -0.1038  0.0953  0.2430
 5780TIP3    H138755   4.594   4.730  14.007  2.9695 -1.7914  3.7129
 5780TIP3    H238756   4.458   4.722  14.074  0.2256 -0.5254 -1.1619
 5781TIP3   OH238757   6.200   1.342  12.458 -0.1040  0.0064  0.0561
 5781TIP3    H138758   6.147   1.389  12.394 -1.2496 -0.6568  0.4858
 5781TIP3    H238759   6.143   1.272  12.490  1.8240 -2.3395 -1.2804
 5782TIP3   OH238760   3.114   1.938  16.730 -0.0080  0.0478  0.2380
 5782TIP3    H138761   3.161   2.009  16.774 -1.5772  1.5552 -0.4218
 5782TIP3    H238762   3.150   1.937  16.641 -0.4777  0.5169  0.0367
 5783TIP3   OH238763   1.299   6.098  12.923 -0.0765 -0.3665 -0.7459
 5783TIP3    H138764   1.375   6.153  12.945 -0.4000 -0.1826 -0.0442
 5783TIP3    H238765   1.281   6.049  13.003 -1.2002  0.2053 -0.6195
 5784TIP3   OH238766   3.979   0.322  11.310  0.1768  0.4152  0.5993
 5784TIP3    H138767   3.945   0.270  11.237  0.6652  0.5636  0.2595
 5784TIP3    H238768   3.919   0.303  11.382 -2.0428  2.4474 -0.5595
 5785TIP3   OH238769   5.151   4.797  11.636 -0.0311  0.0556  0.1811
 5785TIP3    H138770   5.142   4.868  11.573  0.5156 -0.5614 -0.6182
 5785TIP3    H238771   5.061   4.771  11.656 -0.3268 -1.9769 -2.9939
 5786TIP3   OH238772   1.077   4.266  16.009  0.7653 -0.3804  0.7339
 5786TIP3    H138773   1.085   4.190  16.067 -0.1511 -0.5058  0.7138
 5786TIP3    H238774   1.106   4.233  15.924  1.4075 -0.4010  0.9552
 5787TIP3   OH238775   4.835   4.385  12.316 -1.0487  0.0157 -0.1067
 5787TIP3    H138776   4.887   4.317  12.359 -0.6723  1.7735  2.4752
 5787TIP3    H238777   4.851   4.373  12.223  0.5231 -2.1808  0.3704
 5788TIP3   OH238778   4.899   2.769  12.135  0.4533 -0.2191  0.6835
 5788TIP3    H138779   4.855   2.799  12.214 -0.0717 -0.3166  0.4384
 5788TIP3    H238780   4.887   2.840  12.072  0.1247 -0.4882  0.4331
 5789TIP3   OH238781   0.983   2.775   0.855  0.0697  0.1230  0.2074
 5789TIP3    H138782   0.907   2.721   0.831 -0.8813  0.4370  2.3485
 5789TIP3    H238783   1.040   2.715   0.903  2.0566 -0.5455 -2.6708
 5790TIP3   OH238784   0.704   2.208  13.759  0.1591  0.2731 -0.0596
 5790TIP3    H138785   0.775   2.246  13.810 -1.6507  2.5737  0.9451
 5790TIP3    H238786   0.679   2.277  13.698 -1.5736 -0.2367  0.0204
 5791TIP3   OH238787   3.492   4.844   1.153 -0.4830  0.1485  0.6928
 5791TIP3    H138788   3.551   4.849   1.228 -0.0129 -0.3035  0.3542
 5791TIP3    H238789   3.531   4.901   1.087  0.1484 -0.9681  0.0822
 5792TIP3   OH238790   2.887   1.461   6.160 -0.7188  0.1078  0.2357
 5792TIP3    H138791   2.885   1.405   6.237 -0.7960  0.4163  0.4629
 5792TIP3    H238792   2.962   1.520   6.175 -0.0207 -0.5744 -0.4602
 5793TIP3   OH238793   3.273   5.038   4.687 -0.2611  0.0513 -0.5397
 5793TIP3    H138794   3.287   5.060   4.595 -1.1208 -0.2977 -0.7657
 5793TIP3    H238795   3.190   5.079   4.709  0.1296  0.4688  0.2062
 5794TIP3   OH238796   1.396   5.376   2.556 -0.3154 -0.5200 -0.8129
 5794TIP3    H138797   1.310   5.385   2.596  0.5661  1.1744  0.8776
 5794TIP3    H238798   1.434   5.298   2.597  0.3378  0.8457  1.3433
 5795TIP3   OH238799   1.788   2.284  11.859  0.1257 -0.4543 -0.2605
 5795TIP3    H138800   1.765   2.203  11.906 -0.5111  0.2701  0.7082
 5795TIP3    H238801   1.715   2.299  11.800  0.1178 -0.4385 -0.2464
 5796TIP3   OH238802   4.412   2.298   1.890  0.0089  0.0082  0.3008
 5796TIP3    H138803   4.487   2.323   1.944  0.1129 -0.6526  0.4683
 5796TIP3    H238804   4.400   2.372   1.830  0.1608  0.5566  0.9346
 5797TIP3   OH238805   0.134   2.000   5.039 -0.2967  0.1879 -0.5365
 5797TIP3    H138806   0.158   1.991   5.131  0.5040  2.7366 -0.4374
 5797TIP3    H238807   0.056   2.056   5.040 -0.8425 -0.5246 -1.3879
 5798TIP3   OH238808   3.904   2.121   1.764 -0.1505  0.0440  0.0690
 5798TIP3    H138809   3.842   2.093   1.697  0.6924 -0.5567 -0.4727
 5798TIP3    H238810   3.983   2.146   1.716  0.4190 -0.2737  0.8165
 5799TIP3   OH238811   3.551   3.077   0.853 -0.3331  0.1448 -0.5634
 5799TIP3    H138812   3.585   2.990   0.833 -0.9491 -0.1958 -0.1764
 5799TIP3    H238813   3.492   3.062   0.927 -2.7845  0.4059 -2.3494
 5800TIP3   OH238814   3.621   5.776  10.624 -0.0238 -0.0067 -0.3683
 5800TIP3    H138815   3.643   5.684  10.609  1.5412  0.5095 -1.6272
 5800TIP3    H238816   3.667   5.799  10.705 -0.6328 -0.3869  0.0905
 5801TIP3   OH238817   6.471   3.521   4.266 -0.0337  0.1905  0.0925
 5801TIP3    H138818   6.413   3.451   4.237  1.4414 -0.8750 -0.3975
 5801TIP3    H238819   6.536   3.478   4.322  0.1309  1.3870  0.8544
 5802TIP3   OH238820   6.224   0.820  12.388 -0.0275  0.0589  0.5349
 5802TIP3    H138821   6.243   0.875  12.312 -1.2723  0.8513  0.7851
 5802TIP3    H238822   6.248   0.874  12.463  2.9831 -1.3690  0.7702
 5803TIP3   OH238823   0.405   4.419   5.080 -0.1172 -0.7927  0.3264
 5803TIP3    H138824   0.337   4.372   5.128  1.4032 -3.1900  0.2869
 5803TIP3    H238825   0.437   4.485   5.141 -1.0451 -1.0348  1.0829
 5804TIP3   OH238826   3.590   3.159  14.692  0.1672 -0.7939  0.4703
 5804TIP3    H138827   3.639   3.108  14.756 -0.3362 -0.7475  0.9063
 5804TIP3    H238828   3.654   3.183  14.626  1.7758  2.7183  2.9847
 5805TIP3   OH238829   2.154   3.963  14.011  0.3465  0.6747  0.3354
 5805TIP3    H138830   2.214   3.931  14.078 -1.6878 -1.5017  1.2356
 5805TIP3    H238831   2.169   3.905  13.936  0.4921  1.1775 -0.0306
 5806TIP3   OH238832   2.058   4.983   0.142  0.3401 -0.0835 -0.0796
 5806TIP3    H138833   2.042   5.041   0.216 -0.8228 -0.7687  0.2296
 5806TIP3    H238834   1.985   4.922   0.143  0.6089 -0.4633 -1.4582
 5807TIP3   OH238835   6.562   2.517   2.852  0.2544 -0.2129  0.2949
 5807TIP3    H138836   6.617   2.531   2.928  0.5539  1.4040 -0.1773
 5807TIP3    H238837   6.624   2.506   2.779 -0.0343 -0.3254  0.0634
 5808TIP3   OH238838   2.037   5.014  12.876  0.2413 -0.0720  0.0371
 5808TIP3    H138839   1.952   5.009  12.920  0.4113  0.9477  0.5052
 5808TIP3    H238840   2.090   4.945  12.918 -0.5624 -1.2198 -0.7747
 5809TIP3   OH238841   4.661   0.216  13.646 -0.4981 -0.4952 -0.1839
 5809TIP3    H138842   4.626   0.204  13.734 -0.9313  1.7184  0.0037
 5809TIP3    H238843   4.585   0.238  13.592  0.0348  0.3296 -0.6271
 5810TIP3   OH238844   4.685   4.554   0.951  0.4964  0.1090  0.0004
 5810TIP3    H138845   4.705   4.460   0.955  1.4619  0.3323  0.8208
 5810TIP3    H238846   4.717   4.589   1.034 -1.4384  0.8834  0.4706
 5811TIP3   OH238847   4.405   1.695   0.325  0.3456  0.3638  0.3766
 5811TIP3    H138848   4.338   1.762   0.335 -0.2865 -0.1787 -0.1258
 5811TIP3    H238849   4.458   1.724   0.251  0.7597  0.8569  0.8540
 5812TIP3   OH238850   6.129   6.134   5.024 -0.0751  0.1879 -0.0328
 5812TIP3    H138851   6.146   6.201   5.090  0.1464 -0.2583  0.3674
 5812TIP3    H238852   6.214   6.094   5.007 -0.2818 -0.2952  0.0601
 5813TIP3   OH238853   6.180   2.798  13.443 -0.2693 -0.7460 -0.2194
 5813TIP3    H138854   6.241   2.781  13.515  0.0940  0.0560 -0.3233
 5813TIP3    H238855   6.115   2.857  13.480 -0.5327 -0.9688 -0.3290
 5814TIP3   OH238856   5.631   4.520  14.314  0.0805  0.1959  0.1158
 5814TIP3    H138857   5.633   4.518  14.218  1.0439 -1.6808  0.1422
 5814TIP3    H238858   5.547   4.479  14.336 -0.1555  0.6565  0.0856
 5815TIP3   OH238859   6.035   1.196  10.446  0.3276  0.9454 -0.2147
 5815TIP3    H138860   6.058   1.288  10.458  0.6960  0.9514 -0.9329
 5815TIP3    H238861   6.088   1.150  10.511  1.3136  1.1003 -0.8890
 5816TIP3   OH238862   3.514   0.523  14.388  0.4467  0.6133  0.0219
 5816TIP3    H138863   3.530   0.469  14.310  2.6182  0.7613  0.3071
 5816TIP3    H238864   3.508   0.460  14.460  2.8974  0.6714  0.3426
 5817TIP3   OH238865   3.352   1.955   2.600 -0.1111  0.0489 -0.2465
 5817TIP3    H138866   3.266   1.969   2.638 -0.3558  0.7153 -1.0299
 5817TIP3    H238867   3.338   1.960   2.505  0.5649 -1.0944 -0.4311
 5818TIP3   OH238868   4.422   6.706   3.807  0.6458  0.8127 -0.4831
 5818TIP3    H138869   4.418   6.777   3.871 -0.2449 -0.4151  0.9096
 5818TIP3    H238870   4.330   6.690   3.784  0.8068  0.0005 -0.6076
 5819TIP3   OH238871   2.755   2.700   3.443  0.0347 -0.3199 -0.1602
 5819TIP3    H138872   2.798   2.720   3.526 -0.4188 -0.1992  0.0527
 5819TIP3    H238873   2.753   2.783   3.395  1.7455 -0.7237 -0.9954
 5820TIP3   OH238874   3.505   0.432  13.061 -0.1330  0.3546 -0.5949
 5820TIP3    H138875   3.478   0.341  13.054  0.8931  0.0468 -0.8004
 5820TIP3    H238876   3.557   0.448  12.982 -0.2935  1.1130 -0.5572
 5821TIP3   OH238877   5.844   0.890  16.141 -0.0759 -0.4802 -0.1129
 5821TIP3    H138878   5.802   0.821  16.191  0.8889  0.4922  2.1796
 5821TIP3    H238879   5.937   0.882  16.161  0.2780  0.3404 -1.2926
 5822TIP3   OH238880   4.550   4.821  16.464 -0.1015 -1.1688  0.5888
 5822TIP3    H138881   4.515   4.890  16.408  0.0975 -0.3525  1.4463
 5822TIP3    H238882   4.536   4.740  16.415 -0.9330 -0.5894 -0.1482
 5823TIP3   OH238883   0.965   3.978  11.181 -0.0158 -0.0324 -0.1654
 5823TIP3    H138884   1.037   4.019  11.133 -0.6550 -0.4869 -1.5692
 5823TIP3    H238885   1.000   3.893  11.209  0.0944 -0.1332 -0.5962
 5824TIP3   OH238886   4.204   2.823   1.986  0.2060  0.2765  0.9832
 5824TIP3    H138887   4.191   2.906   2.032 -1.4252  0.4335  0.3008
 5824TIP3    H238888   4.286   2.834   1.940 -1.5420  2.9331 -1.9014
 5825TIP3   OH238889   4.362   0.361  16.440 -0.9100  0.0095  0.5470
 5825TIP3    H138890   4.403   0.446  16.424  1.1507 -0.9430  0.5294
 5825TIP3    H238891   4.433   0.304  16.468 -2.1917 -1.7984  0.3243
 5826TIP3   OH238892   0.313   1.480  13.593 -0.0398  0.3063  0.1639
 5826TIP3    H138893   0.295   1.572  13.615 -0.0308  0.3425  0.0193
 5826TIP3    H238894   0.314   1.478  13.498 -0.5033  0.0692  0.1599
 5827TIP3   OH238895   5.741   1.564  13.810 -0.0793 -0.3434  0.1049
 5827TIP3    H138896   5.828   1.595  13.836  0.8434 -1.2441 -1.7465
 5827TIP3    H238897   5.717   1.617  13.734 -1.4820  0.3292  0.9573
 5828TIP3   OH238898   1.336   4.146  11.600  0.5971 -0.2707 -0.1677
 5828TIP3    H138899   1.414   4.093  11.585  0.9081  0.0382  0.3134
 5828TIP3    H238900   1.266   4.100  11.554  0.6517 -1.6175  1.0298
 5829TIP3   OH238901   2.971   0.063  15.802  0.7495 -0.1780 -0.2858
 5829TIP3    H138902   2.939  -0.011  15.853 -0.6217  1.4207  1.2936
 5829TIP3    H238903   3.066   0.063  15.816  0.9573 -2.1793 -1.1837
 5830TIP3   OH238904   6.425   4.976   5.651  0.4068 -0.0777 -0.0042
 5830TIP3    H138905   6.330   4.966   5.647  0.3344 -0.3450  1.7493
 5830TIP3    H238906   6.439   5.066   5.680  0.6131 -0.5446  1.4370
 5831TIP3   OH238907   0.590   3.561  15.965  0.1624  0.0290 -0.4504
 5831TIP3    H138908   0.658   3.510  15.921 -0.7157 -0.1701 -1.6372
 5831TIP3    H238909   0.533   3.496  16.006  0.3246  0.1636 -0.0108
 5832TIP3   OH238910   2.148   3.776  13.811 -0.0067  0.1597  0.4564
 5832TIP3    H138911   2.071   3.780  13.754  1.0055  0.1675 -0.9850
 5832TIP3    H238912   2.211   3.835  13.769  0.7383  0.2735  1.6934
 5833TIP3   OH238913   3.427   5.646  15.918  0.0875  0.1445  0.0373
 5833TIP3    H138914   3.429   5.675  15.827  0.1316  1.4309  0.4227
 5833TIP3    H238915   3.472   5.562  15.918 -2.1713 -1.1384 -1.5344
 5834TIP3   OH238916   3.538   1.443   3.656 -0.0545  0.1476  0.2862
 5834TIP3    H138917   3.577   1.526   3.630 -1.7832  1.7665  2.4479
 5834TIP3    H238918   3.600   1.405   3.717  0.6743 -0.1211 -0.5972
 5835TIP3   OH238919   4.523   2.183   4.098  0.3748  0.0758  0.1675
 5835TIP3    H138920   4.602   2.209   4.051  0.5360  0.6417  0.7335
 5835TIP3    H238921   4.556   2.146   4.180  0.0947 -0.8508 -0.1247
 5836TIP3   OH238922   4.642   1.933  13.791  0.0700 -0.0081  0.4015
 5836TIP3    H138923   4.593   1.970  13.865  0.1222  0.2221  0.3186
 5836TIP3    H238924   4.731   1.924  13.824  0.4697  1.6478 -0.1734
 5837TIP3   OH238925   4.253   5.040   3.309 -0.1106 -0.3472 -0.5796
 5837TIP3    H138926   4.162   5.062   3.328  0.1237  2.3447 -2.2028
 5837TIP3    H238927   4.293   5.122   3.281  2.2682 -1.8848 -2.0509
 5838TIP3   OH238928   2.268   1.046  13.109  0.5128  0.6535  0.7476
 5838TIP3    H138929   2.240   0.961  13.141 -1.8941  1.0302 -0.1269
 5838TIP3    H238930   2.340   1.027  13.050 -0.9926 -1.0076 -0.6813
 5839TIP3   OH238931   3.113   1.385  15.798  0.0793  0.4418 -0.8161
 5839TIP3    H138932   3.189   1.425  15.840 -0.1300 -1.4568  1.6135
 5839TIP3    H238933   3.070   1.457  15.752  2.6197  1.8090 -1.2010
 5840TIP3   OH238934   0.520   1.610   2.396  0.0453 -0.1662 -0.2184
 5840TIP3    H138935   0.431   1.615   2.360 -0.1134 -0.9872  0.0456
 5840TIP3    H238936   0.508   1.589   2.488  0.5278 -1.3867 -0.4159
 5841TIP3   OH238937   4.216   4.543  14.789 -0.7391  0.3489 -0.1586
 5841TIP3    H138938   4.221   4.467  14.730  0.1399  0.1033  0.2094
 5841TIP3    H238939   4.127   4.543  14.822 -0.3969 -1.3185  0.8534
 5842TIP3   OH238940   3.525   5.967  16.403 -0.7565 -0.4462  0.7012
 5842TIP3    H138941   3.579   6.027  16.453 -0.3512 -0.2957  0.0944
 5842TIP3    H238942   3.568   5.961  16.318 -1.8305 -0.1155  0.1126
 5843TIP3   OH238943   5.802   6.382  13.462 -0.2928 -0.0153 -0.4491
 5843TIP3    H138944   5.835   6.296  13.434  0.0302  0.1560 -0.6044
 5843TIP3    H238945   5.805   6.379  13.558  1.5532  0.5089 -0.4595
 5844TIP3   OH238946   2.801   4.681   4.272 -0.1378  0.1020  0.0804
 5844TIP3    H138947   2.885   4.664   4.229 -0.6660 -1.9354 -0.2524
 5844TIP3    H238948   2.758   4.747   4.217  0.3398 -0.4541 -0.9911
 5845TIP3   OH238949   3.591   5.578  13.750  0.0248 -0.1676  0.3777
 5845TIP3    H138950   3.611   5.489  13.779 -1.1596 -0.8122 -0.6892
 5845TIP3    H238951   3.528   5.610  13.814 -1.6258 -1.1280 -0.6872
 5846TIP3   OH238952   3.796   5.382   5.941 -0.6619 -0.0917  0.3940
 5846TIP3    H138953   3.762   5.391   5.852 -0.0609  1.9985  0.3071
 5846TIP3    H238954   3.735   5.323   5.985 -1.6388 -0.2124 -1.0690
 5847TIP3   OH238955   4.800   3.163  17.271 -0.0277  0.3918 -0.1002
 5847TIP3    H138956   4.797   3.067  17.269 -1.2294  0.4023  0.3113
 5847TIP3    H238957   4.888   3.185  17.241  1.3393 -0.9120  2.6294
 5848TIP3   OH238958   4.900   1.784   4.761  0.3930 -0.0434  0.1816
 5848TIP3    H138959   4.924   1.694   4.783 -1.7694 -0.4074  1.2774
 5848TIP3    H238960   4.850   1.776   4.680 -0.1363  0.1236  0.4903
 5849TIP3   OH238961   2.391   3.032  17.045 -0.2486 -0.4285  0.0336
 5849TIP3    H138962   2.354   3.120  17.041 -0.1302 -0.3246  0.9765
 5849TIP3    H238963   2.317   2.974  17.026 -0.3110 -0.1302 -0.6527
 5850TIP3   OH238964   4.870   1.430   2.613  0.5745  0.1151 -1.0590
 5850TIP3    H138965   4.959   1.462   2.622  0.9288 -0.5504 -2.0248
 5850TIP3    H238966   4.859   1.366   2.684  0.8265  0.2795 -0.8747
 5851TIP3   OH238967   1.422   1.340   4.887 -0.2945  0.4134 -0.8353
 5851TIP3    H138968   1.336   1.379   4.876 -0.0839  1.3645  0.5590
 5851TIP3    H238969   1.426   1.315   4.979  1.9801  3.2558  0.0047
 5852TIP3   OH238970   4.033   3.978   5.308 -0.2991 -0.3461  0.0371
 5852TIP3    H138971   3.946   4.000   5.276 -0.6891 -1.9202 -0.0518
 5852TIP3    H238972   4.091   4.000   5.235 -0.5470  1.1000  0.2505
 5853TIP3   OH238973   3.707   6.449   2.411  0.2462 -0.1850  0.1492
 5853TIP3    H138974   3.740   6.361   2.432 -1.7813 -0.9888  0.1755
 5853TIP3    H238975   3.772   6.508   2.449  0.7799 -1.6654  1.6852
 5854TIP3   OH238976   6.563   1.245  13.793  0.6692  0.1776 -0.0007
 5854TIP3    H138977   6.532   1.332  13.769  1.2606  0.4292  0.1305
 5854TIP3    H238978   6.508   1.219  13.867  1.8803  1.3416  1.3632
 5855TIP3   OH238979   6.176   5.402   4.244 -0.1737  0.5773  0.2579
 5855TIP3    H138980   6.201   5.310   4.232 -0.9449  0.5211 -1.2025
 5855TIP3    H238981   6.228   5.432   4.318  2.3799 -0.1880 -1.1161
 5856TIP3   OH238982   0.470   1.506   1.958 -1.0313  0.1947 -0.0633
 5856TIP3    H138983   0.551   1.515   2.008 -0.9036  1.2980 -0.4337
 5856TIP3    H238984   0.437   1.419   1.982  0.2144 -0.2507  0.1439
 5857TIP3   OH238985   1.425   6.393  12.750  0.1515 -0.2052 -0.1394
 5857TIP3    H138986   1.490   6.368  12.816 -0.3365 -0.7783  0.1325
 5857TIP3    H238987   1.464   6.368  12.667  0.1951 -0.7397  0.0390
 5858TIP3   OH238988   4.068   4.190   3.848 -0.0244 -0.3593  0.1534
 5858TIP3    H138989   4.157   4.209   3.877  0.3447 -1.2622 -0.3489
 5858TIP3    H238990   4.074   4.184   3.753 -0.9954  1.3876 -0.0694
 5859TIP3   OH238991   6.036   1.053  15.849  0.2628  0.6294 -0.3958
 5859TIP3    H138992   5.962   1.047  15.788 -0.3310 -1.0720  0.4292
 5859TIP3    H238993   6.101   0.993  15.812  0.2632  0.2984  0.1328
 5860TIP3   OH238994   4.797   2.621   2.077 -0.1541 -0.6004  0.0989
 5860TIP3    H138995   4.865   2.556   2.057  0.7138  0.6026 -1.0790
 5860TIP3    H238996   4.774   2.604   2.168  0.9938 -1.7074  0.2165
 5861TIP3   OH238997   4.191   2.521  16.833  0.0828 -0.1837 -0.1239
 5861TIP3    H138998   4.178   2.428  16.817  0.0009  0.0327 -1.4357
 5861TIP3    H238999   4.156   2.536  16.921 -3.0270 -0.7898 -1.1092
 5862TIP3   OH239000   3.253   5.846   5.042  0.2449 -0.0426  0.0333
 5862TIP3    H139001   3.308   5.811   4.972  2.9954 -0.2624  2.1519
 5862TIP3    H239002   3.260   5.782   5.112 -0.1291  1.4947  1.5292
 5863TIP3   OH239003   1.041   3.793  14.317  0.4739 -0.2673 -0.0132
 5863TIP3    H139004   0.996   3.750  14.244 -1.3626  1.1301  0.2150
 5863TIP3    H239005   1.042   3.727  14.387 -0.2604 -0.6917 -0.3905
 5864TIP3   OH239006   2.386   3.514  15.103  0.4255  0.0059 -0.0164
 5864TIP3    H139007   2.441   3.436  15.109 -0.1916 -0.3462  1.8204
 5864TIP3    H239008   2.425   3.566  15.032  1.8945 -1.1574 -0.1103
 5865TIP3   OH239009   6.419   2.623  13.002 -0.3020 -0.6248  0.2353
 5865TIP3    H139010   6.424   2.624  12.906 -0.6469  1.2993  0.2056
 5865TIP3    H239011   6.365   2.699  13.024 -0.1821 -1.0126  1.9677
 5866TIP3   OH239012   5.398   0.304   6.195 -0.3176 -0.0675 -0.2962
 5866TIP3    H139013   5.319   0.263   6.159  0.1750 -0.3351 -1.0874
 5866TIP3    H239014   5.410   0.383   6.142  0.5745 -0.6136 -0.9358
 5867TIP3   OH239015   4.952   3.456   4.964 -0.4276  0.6074 -0.8055
 5867TIP3    H139016   4.963   3.513   5.040  0.7645 -1.2667  0.5113
 5867TIP3    H239017   5.042   3.437   4.935 -0.8550  1.1405 -2.6003
 5868TIP3   OH239018   3.368   0.181   5.804  0.0263 -0.6042 -0.1303
 5868TIP3    H139019   3.405   0.094   5.821 -0.5649 -1.2026 -1.7157
 5868TIP3    H239020   3.286   0.163   5.758 -0.7663  0.7844  0.6908
 5869TIP3   OH239021   5.690   5.108  16.113  0.2329  0.3047  0.2851
 5869TIP3    H139022   5.649   5.187  16.148 -1.1344 -0.3482  0.2078
 5869TIP3    H239023   5.632   5.079  16.043 -1.1241 -2.5413  2.3821
 5870TIP3   OH239024   4.838   2.483  11.890 -0.5547 -0.0545 -0.1854
 5870TIP3    H139025   4.825   2.573  11.860 -1.8801  0.5092  1.8852
 5870TIP3    H239026   4.750   2.448  11.902 -0.1558 -0.4356  2.2467
 5871TIP3   OH239027   2.565   4.299  12.937 -0.1312  0.1547  0.5693
 5871TIP3    H139028   2.631   4.365  12.958  1.4411 -1.4121  0.8557
 5871TIP3    H239029   2.519   4.283  13.020 -2.7908  3.0872 -0.1443
 5872TIP3   OH239030   2.845   5.376   6.581 -0.6346  0.6853 -0.3083
 5872TIP3    H139031   2.877   5.327   6.656 -1.8441 -2.9005 -1.9334
 5872TIP3    H239032   2.750   5.362   6.582 -0.6846  0.6179 -2.4349
 5873TIP3   OH239033   5.396   5.296   4.525  0.3747  0.2397 -0.3179
 5873TIP3    H139034   5.431   5.375   4.567 -0.5006  0.7900 -0.5910
 5873TIP3    H239035   5.325   5.329   4.469 -1.8253 -0.9846  1.5789
 5874TIP3   OH239036   0.902   6.118  16.620  0.3028 -0.3854  0.4761
 5874TIP3    H139037   0.849   6.088  16.694  0.8392  0.6979  1.3262
 5874TIP3    H239038   0.856   6.196  16.588  0.4436 -0.4577  0.0969
 5875TIP3   OH239039   1.005   4.849   0.905 -0.1667 -0.1426  0.2417
 5875TIP3    H139040   1.008   4.924   0.845  1.0931 -1.3844 -1.3532
 5875TIP3    H239041   1.077   4.865   0.966 -0.6050  0.4690  0.6149
 5876TIP3   OH239042   4.308   2.645   1.554 -0.7278  0.3191  0.6133
 5876TIP3    H139043   4.299   2.717   1.616  1.2934  0.6393  0.6075
 5876TIP3    H239044   4.341   2.572   1.606  0.6168  0.4774  0.0209
 5877TIP3   OH239045   3.105   3.829   3.606 -0.5327 -0.0654  0.1656
 5877TIP3    H139046   3.120   3.812   3.513  0.2708  1.7015 -0.0702
 5877TIP3    H239047   3.163   3.768   3.652 -0.7137 -0.7403 -0.4881
 5878TIP3   OH239048   2.344   1.520   2.560  0.1121  0.0391 -0.1447
 5878TIP3    H139049   2.352   1.429   2.531 -0.9311  0.0260 -0.4717
 5878TIP3    H239050   2.305   1.565   2.485  1.4590  0.9550 -0.3106
 5879TIP3   OH239051   3.274   4.288   4.880  0.1908  0.2694 -0.2357
 5879TIP3    H139052   3.198   4.339   4.850  0.0573 -0.1872 -0.6991
 5879TIP3    H239053   3.299   4.237   4.803 -0.3506 -1.1645  0.5070
 5880TIP3   OH239054   5.105   5.441  16.484 -0.4461 -0.2817  0.0627
 5880TIP3    H139055   5.138   5.358  16.518  0.4455  0.5082  1.1889
 5880TIP3    H239056   5.010   5.428  16.478 -0.5592 -0.8003  2.0294
 5881TIP3   OH239057   6.328   6.729  11.248  0.3632  0.3262  0.0782
 5881TIP3    H139058   6.269   6.675  11.301  1.2285  0.9626  1.7430
 5881TIP3    H239059   6.272   6.799  11.214 -0.2909 -0.3382 -0.2557
 5882TIP3   OH239060   2.559   0.120   4.428 -0.0672  0.0053  0.3794
 5882TIP3    H139061   2.638   0.117   4.481  0.9822  0.4973 -1.1062
 5882TIP3    H239062   2.499   0.177   4.478  1.4116  1.6392  0.3683
 5883TIP3   OH239063   4.867   0.136   1.225  0.4984  0.0840 -0.3167
 5883TIP3    H139064   4.895   0.129   1.133 -2.8806  0.4775 -1.5264
 5883TIP3    H239065   4.815   0.216   1.228 -1.2736 -1.0467  1.3907
 5884TIP3   OH239066   0.024   5.488  12.382 -0.1374  0.2698 -0.0715
 5884TIP3    H139067   0.072   5.405  12.387 -0.4784 -0.0359 -1.2997
 5884TIP3    H239068  -0.016   5.486  12.294  1.1198  2.4423 -0.7500
 5885TIP3   OH239069   0.876   3.981   5.126  0.1233 -0.0513 -0.2870
 5885TIP3    H139070   0.835   3.989   5.039  3.1753 -1.5709 -2.0449
 5885TIP3    H239071   0.946   4.046   5.125 -0.4156  0.6159  1.5213
 5886TIP3   OH239072   5.610   2.549   6.483  0.3524  0.9612 -0.5246
 5886TIP3    H139073   5.541   2.597   6.530 -0.9068 -0.8449 -0.4194
 5886TIP3    H239074   5.618   2.467   6.531  2.6735  1.1363 -0.5069
 5887TIP3   OH239075   3.602   0.736  15.629 -0.4117  0.2033  0.8001
 5887TIP3    H139076   3.643   0.822  15.617  2.2306 -1.0847 -0.0722
 5887TIP3    H239077   3.542   0.728  15.554  0.4207  0.7127  0.0567
 5888TIP3   OH239078   1.642   6.018  15.772 -0.1302  0.8389 -0.2111
 5888TIP3    H139079   1.549   6.041  15.775 -0.0606  1.0185  1.9564
 5888TIP3    H239080   1.680   6.059  15.850  1.2859 -1.2680  0.2914
 5889TIP3   OH239081   6.156   1.699   0.643 -0.0484 -0.0301 -0.6904
 5889TIP3    H139082   6.215   1.768   0.672 -2.2213  1.5379  0.2880
 5889TIP3    H239083   6.143   1.717   0.549  0.6670 -0.1414 -0.8175
 5890TIP3   OH239084   4.956   0.482   5.926 -0.0071 -0.2030  0.1057
 5890TIP3    H139085   5.039   0.447   5.893  0.6506  1.6519 -0.2839
 5890TIP3    H239086   4.895   0.474   5.852 -0.0157 -0.9553  0.1841
 5891TIP3   OH239087   1.841   4.167  11.586  0.3350 -0.4255 -0.0668
 5891TIP3    H139088   1.773   4.188  11.649  1.3688 -0.3797  1.0793
 5891TIP3    H239089   1.817   4.081  11.552 -0.1340 -0.5401  0.5456
 5892TIP3   OH239090   0.290   4.695  13.842 -0.1486 -1.2543 -0.0006
 5892TIP3    H139091   0.377   4.656  13.834  0.7565  0.4961  0.8838
 5892TIP3    H239092   0.241   4.634  13.897 -0.8113 -4.2599 -3.4849
 5893TIP3   OH239093   2.776   2.278  13.984 -0.7954 -1.0372 -0.2948
 5893TIP3    H139094   2.695   2.282  14.034 -0.5669 -1.9004  0.1608
 5893TIP3    H239095   2.845   2.282  14.050 -0.4305  0.6585 -0.7376
 5894TIP3   OH239096   3.670   2.460  14.971 -0.0037 -0.0561  0.2773
 5894TIP3    H139097   3.733   2.470  15.043 -1.3065  1.0445  1.3228
 5894TIP3    H239098   3.724   2.455  14.892  1.3945  1.0127  1.1219
 5895TIP3   OH239099   1.459   5.441  17.180 -0.5119 -0.1962  0.5154
 5895TIP3    H139100   1.498   5.390  17.109 -0.1345 -0.2350  0.7448
 5895TIP3    H239101   1.426   5.520  17.137 -0.5548 -0.3565  0.2524
 5896TIP3   OH239102   2.159   4.835  15.926 -0.1572  0.0363 -0.2345
 5896TIP3    H139103   2.084   4.894  15.929 -0.6997 -0.4819 -2.1654
 5896TIP3    H239104   2.204   4.857  15.844  1.6234  0.0741  0.6820
 5897TIP3   OH239105   1.844   0.620  15.703 -0.6361 -0.1383  0.1628
 5897TIP3    H139106   1.917   0.557  15.703 -1.2004 -0.8007  0.3401
 5897TIP3    H239107   1.800   0.606  15.619 -0.9910 -0.2432  0.3666
 5898TIP3   OH239108   2.256   4.059   3.883  0.1617 -0.5500  0.3298
 5898TIP3    H139109   2.325   4.117   3.852  1.5772 -1.0884  2.2813
 5898TIP3    H239110   2.243   4.083   3.974 -1.3706 -1.2970  0.3471
 5899TIP3   OH239111   1.489   0.469  15.898 -0.5110 -0.1997  0.4135
 5899TIP3    H139112   1.427   0.479  15.826 -0.7074 -1.9843  0.2976
 5899TIP3    H239113   1.537   0.552  15.900 -1.0761  0.2008 -1.2170
 5900TIP3   OH239114   5.794   1.991   6.698  0.3308 -0.3745 -0.6656
 5900TIP3    H139115   5.724   2.017   6.638 -0.1734  2.1722  0.8828
 5900TIP3    H239116   5.748   1.947   6.770  0.6094 -0.8627 -0.7839
 5901TIP3   OH239117   4.998   1.826   5.731  0.2747  0.1213 -0.3322
 5901TIP3    H139118   4.922   1.788   5.774  0.7139 -0.8943 -0.4323
 5901TIP3    H239119   5.064   1.758   5.733  1.7730  1.5327  1.2351
 5902TIP3   OH239120   1.826   4.921   1.312 -0.3385 -0.1136  0.3095
 5902TIP3    H139121   1.768   4.968   1.372 -0.3374 -0.4576  0.5877
 5902TIP3    H239122   1.783   4.836   1.298  1.4861 -1.6232  2.9172
 5903TIP3   OH239123   2.520   0.983   4.549  0.1663  0.0257  0.2164
 5903TIP3    H139124   2.550   1.058   4.600  2.6337  0.0679 -1.1020
 5903TIP3    H239125   2.537   0.907   4.605  0.0094  0.2800  0.6078
 5904TIP3   OH239126   2.120   0.026   3.679  0.0667  0.6958  0.7886
 5904TIP3    H139127   2.035   0.037   3.722  0.2231 -0.1809  1.3680
 5904TIP3    H239128   2.124   0.095   3.614 -0.8591  1.0865  1.1336
 5905TIP3   OH239129   2.096   1.671   5.576  0.4719  0.5911  0.3087
 5905TIP3    H139130   2.104   1.616   5.498 -0.7720  0.8481 -0.0270
 5905TIP3    H239131   2.002   1.675   5.593  0.6917  0.8581  1.6042
 5906TIP3   OH239132   0.861   1.032   6.555 -0.1171  0.1578 -0.2817
 5906TIP3    H139133   0.860   0.980   6.475  0.1533  1.4684 -1.1661
 5906TIP3    H239134   0.814   0.979   6.619  1.4160 -1.8507 -0.6968
 5907TIP3   OH239135   1.094   4.051   5.570 -0.5080 -0.1671 -0.1469
 5907TIP3    H139136   1.127   3.993   5.639  0.3145 -0.4507 -0.7645
 5907TIP3    H239137   0.999   4.049   5.581 -0.3860 -0.0210  1.1249
 5908TIP3   OH239138   5.237   4.124  13.807  0.2792  0.6342 -0.0805
 5908TIP3    H139139   5.165   4.180  13.834 -0.1402  0.4265 -0.7557
 5908TIP3    H239140   5.195   4.045  13.772  0.8688 -0.5502  1.7560
 5909TIP3   OH239141   6.542   2.438  11.362  0.3350 -0.2663 -0.0129
 5909TIP3    H139142   6.484   2.390  11.302 -0.4791 -1.1221  1.4002
 5909TIP3    H239143   6.560   2.520  11.317 -3.2014  0.7166  0.0769
 5910TIP3   OH239144   3.353   4.928  14.096  0.0959  0.5703 -0.2068
 5910TIP3    H139145   3.338   4.837  14.071 -1.7380  0.9555 -0.6808
 5910TIP3    H239146   3.447   4.940  14.087  0.2073 -0.9044 -1.4825
 5911TIP3   OH239147   2.806   4.597   0.487  0.3955 -0.1321  0.2486
 5911TIP3    H139148   2.820   4.532   0.419 -0.1232 -0.0092  0.0171
 5911TIP3    H239149   2.744   4.660   0.448  0.2004  0.0111  0.7788
 5912TIP3   OH239150   1.463   6.214   1.045 -0.4549  0.1625 -0.3443
 5912TIP3    H139151   1.463   6.183   1.136 -0.0085  0.5023 -0.2289
 5912TIP3    H239152   1.551   6.195   1.013 -0.7109 -0.2579 -0.8126
 5913TIP3   OH239153   3.762   1.612  11.951 -1.2375 -0.6686 -0.4895
 5913TIP3    H139154   3.833   1.619  11.887 -0.3267 -2.0956  0.2961
 5913TIP3    H239155   3.686   1.583  11.901 -0.7687 -0.9132 -1.0725
 5914TIP3   OH239156   3.910   2.590   4.784 -0.4510 -0.1626  0.6601
 5914TIP3    H139157   3.835   2.607   4.842 -1.5611 -1.0723 -0.4629
 5914TIP3    H239158   3.967   2.667   4.796 -2.8418  1.9250 -0.4366
 5915TIP3   OH239159   0.379   4.970   6.023  0.1678 -0.0080 -0.6872
 5915TIP3    H139160   0.451   4.937   6.076 -0.4004  0.7807  0.6460
 5915TIP3    H239161   0.334   4.892   5.992 -0.0507 -0.5274  0.8295
 5916TIP3   OH239162   2.120   0.965  14.233 -0.3024  0.2983  0.6384
 5916TIP3    H139163   2.193   0.987  14.175 -1.4396  0.3662 -0.8000
 5916TIP3    H239164   2.163   0.940  14.315  1.2633  2.0634  0.4272
 5917TIP3   OH239165   1.513   3.554   0.735  0.4323  0.0817  0.0107
 5917TIP3    H139166   1.482   3.644   0.745  0.9446  0.1895  0.6879
 5917TIP3    H239167   1.524   3.522   0.825  2.7547  0.2263 -0.1550
 5918TIP3   OH239168   3.077   1.176  15.991 -0.2910  0.0124  0.2775
 5918TIP3    H139169   3.086   1.239  15.919 -0.7688  1.2490  1.2617
 5918TIP3    H239170   2.991   1.136  15.978  0.1083 -0.6355 -0.4807
 5919TIP3   OH239171   0.862   0.505   0.159 -0.0215 -0.3682  0.7560
 5919TIP3    H139172   0.906   0.532   0.240 -0.4238 -0.9741  1.1909
 5919TIP3    H239173   0.856   0.585   0.107  0.3993 -0.0069  1.2527
 5920TIP3   OH239174   2.614   1.873   6.738 -0.5099  0.1107 -0.0611
 5920TIP3    H139175   2.611   1.965   6.711 -2.1741 -0.1054 -0.6838
 5920TIP3    H239176   2.534   1.834   6.703 -0.7998 -1.1382  1.8162
 5921TIP3   OH239177   5.271   2.350   6.085 -0.0859 -0.1587  0.3754
 5921TIP3    H139178   5.269   2.359   6.180 -1.1503  0.0372  0.3437
 5921TIP3    H239179   5.323   2.426   6.056 -0.8334  0.4995  0.7270
 5922TIP3   OH239180   2.153   4.539   4.716 -0.3371 -0.0907  0.5302
 5922TIP3    H139181   2.176   4.502   4.631 -1.4074 -2.2174  1.1077
 5922TIP3    H239182   2.076   4.490   4.744  0.7770 -0.4112  3.3409
 5923TIP3   OH239183   2.756   2.238   1.113 -0.3288  0.0001  0.5837
 5923TIP3    H139184   2.787   2.186   1.186  0.5165 -0.1722  0.1058
 5923TIP3    H239185   2.732   2.174   1.046 -0.4765  0.1833  0.4600
 5924TIP3   OH239186   4.806   5.384  15.696  0.5163  0.1562  0.1951
 5924TIP3    H139187   4.857   5.359  15.773  0.0313 -0.0292  0.4662
 5924TIP3    H239188   4.770   5.470  15.717 -0.7853 -0.4983  0.7925
 5925TIP3   OH239189   2.636   3.019   2.513  0.5672 -0.0157 -0.0162
 5925TIP3    H139190   2.643   3.028   2.608 -1.5334  0.1060  0.1800
 5925TIP3    H239191   2.625   2.925   2.498  0.0994  0.0399 -0.0498
 5926TIP3   OH239192   0.805   0.166  13.873  0.6219  0.0532  0.1188
 5926TIP3    H139193   0.758   0.139  13.793 -3.0360  0.2880  1.9525
 5926TIP3    H239194   0.853   0.244  13.846 -0.5088  0.1516 -1.8965
 5927TIP3   OH239195   0.677   5.323  16.485 -0.1348 -0.5616  0.0453
 5927TIP3    H139196   0.721   5.387  16.429 -2.5901  0.9186 -0.3281
 5927TIP3    H239197   0.702   5.349  16.574 -1.7104  1.5213 -0.0471
 5928TIP3   OH239198   5.576   1.022   4.160 -0.1266 -0.2817 -0.4745
 5928TIP3    H139199   5.533   0.996   4.241 -0.0883  0.9364 -0.0463
 5928TIP3    H239200   5.518   1.087   4.122  0.9441  0.8221 -0.2792
 5929TIP3   OH239201   6.621   2.389   4.356  0.0069 -0.3856 -0.0985
 5929TIP3    H139202   6.686   2.392   4.286 -0.0821 -0.9308 -0.2146
 5929TIP3    H239203   6.551   2.334   4.320 -0.3025 -0.1904  0.2005
 5930TIP3   OH239204   1.051   5.796   1.264 -0.2859  0.1543 -0.2162
 5930TIP3    H139205   1.044   5.705   1.293 -0.7110  0.7842  1.8746
 5930TIP3    H239206   0.961   5.827   1.262 -0.1293  0.5809 -0.7498
 5931TIP3   OH239207   5.102   2.874  14.421 -0.1306 -0.1772 -0.4629
 5931TIP3    H139208   5.064   2.931  14.354  0.5652 -0.0904 -0.7947
 5931TIP3    H239209   5.164   2.820  14.373 -0.4336 -0.8866 -0.0646
 5932TIP3   OH239210   1.934   3.989  13.428 -0.0424 -0.2911 -1.0724
 5932TIP3    H139211   1.957   4.070  13.384 -2.8477  0.5567 -1.2120
 5932TIP3    H239212   1.912   3.928  13.358  3.4941 -1.8334 -1.0547
 5933TIP3   OH239213   5.322   3.554   2.970 -0.1939  0.0060 -0.4061
 5933TIP3    H139214   5.263   3.495   2.922 -0.7802  0.7352 -0.5910
 5933TIP3    H239215   5.285   3.558   3.058 -0.3671  0.3871 -0.4953
 5934TIP3   OH239216   5.338   1.619  15.302  0.2476 -0.0701  0.1737
 5934TIP3    H139217   5.256   1.664  15.324  0.9751  0.4016  2.1430
 5934TIP3    H239218   5.313   1.554  15.236 -1.9248 -0.6783  1.4869
 5935TIP3   OH239219   5.941   5.294   0.814 -0.3661  0.3016  0.2993
 5935TIP3    H139220   5.913   5.338   0.734 -0.1265  1.0875  0.6276
 5935TIP3    H239221   6.036   5.310   0.818 -0.3391  0.0698  0.6134
 5936TIP3   OH239222   1.941   0.573   6.920  0.1617 -0.7486 -0.0542
 5936TIP3    H139223   1.977   0.648   6.871  1.0885 -0.1833  1.4222
 5936TIP3    H239224   1.850   0.567   6.892  0.5764 -0.2449 -1.5891
 5937TIP3   OH239225   0.809   3.376   0.749 -0.0602  0.0001 -0.3458
 5937TIP3    H139226   0.824   3.371   0.843  0.3575 -0.1589 -0.4156
 5937TIP3    H239227   0.742   3.444   0.738 -0.1040  0.0234  0.0622
 5938TIP3   OH239228   5.174   3.962  14.064  1.4470 -0.5520  0.3746
 5938TIP3    H139229   5.152   3.960  14.158 -1.5723  0.5294 -0.1897
 5938TIP3    H239230   5.258   4.008  14.060  0.9702  0.6327  2.4720
 5939TIP3   OH239231   4.343   4.381   3.008 -0.2488  0.4578  0.3306
 5939TIP3    H139232   4.267   4.354   3.060 -0.9724  1.2400 -0.2857
 5939TIP3    H239233   4.419   4.360   3.063 -0.9916  1.3196  1.7453
 5940TIP3   OH239234   6.735   3.612  13.894  0.8790 -0.5316  0.1444
 5940TIP3    H139235   6.761   3.698  13.928 -0.2895 -0.2272  0.2823
 5940TIP3    H239236   6.749   3.619  13.799  0.7502 -0.1722  0.1509
 5941TIP3   OH239237   4.454   0.569   3.859  0.7101  0.5160 -0.6016
 5941TIP3    H139238   4.549   0.581   3.864  0.7461  0.0096  0.1896
 5941TIP3    H239239   4.433   0.575   3.765  1.5876  0.1511 -0.8256
 5942TIP3   OH239240   3.069   1.638  15.664 -0.6961  0.0927  0.1817
 5942TIP3    H139241   3.111   1.676  15.587 -0.2798 -0.6470  0.0353
 5942TIP3    H239242   2.980   1.616  15.636 -0.3241 -0.8315 -0.3061
 5943TIP3   OH239243   0.564   1.947   4.084  0.0986 -0.0995  0.0919
 5943TIP3    H139244   0.552   1.935   3.990  0.5823  0.0687  0.0013
 5943TIP3    H239245   0.516   2.027   4.105 -1.1282 -0.8647  0.2449
 5944TIP3   OH239246   6.694   5.947   1.435 -0.0014 -0.7745 -0.6367
 5944TIP3    H139247   6.660   6.019   1.488  3.6752 -0.1773  1.1947
 5944TIP3    H239248   6.643   5.871   1.463 -0.9464  0.2972  0.6804
 5945TIP3   OH239249   0.334   4.799  15.486  0.6611 -0.0339  0.9174
 5945TIP3    H139250   0.429   4.792  15.493  0.6790 -0.5996  0.2265
 5945TIP3    H239251   0.316   4.782  15.393  0.0159  1.5260  0.7302
 5946TIP3   OH239252   0.012   0.818   5.080  0.7138  0.2906 -0.0441
 5946TIP3    H139253  -0.003   0.726   5.101  1.1956  0.2606  0.1837
 5946TIP3    H239254   0.078   0.816   5.010 -0.7832  0.3946 -1.5023
 5947TIP3   OH239255   3.931   1.749  14.421 -0.0246  0.0073 -0.2431
 5947TIP3    H139256   3.953   1.708  14.338  0.3323 -0.5726  0.1342
 5947TIP3    H239257   3.998   1.718  14.482 -0.3638  0.3126  0.2945
 5948TIP3   OH239258   3.902   5.615   2.499  0.1733 -0.2810  0.3546
 5948TIP3    H139259   3.855   5.544   2.456 -0.8651  0.4940  0.1792
 5948TIP3    H239260   3.867   5.618   2.588 -1.4651  1.4198 -0.2736
 5949TIP3   OH239261   4.657   2.666  16.939 -0.1476  0.3407  0.4093
 5949TIP3    H139262   4.633   2.733  17.003  1.7114  0.9723  0.5266
 5949TIP3    H239263   4.577   2.616  16.924 -1.0860  1.3567  1.8111
 5950TIP3   OH239264   2.666   6.044   0.990  0.0130  0.1039  0.1250
 5950TIP3    H139265   2.700   6.028   0.902  0.4510  0.9640  0.1274
 5950TIP3    H239266   2.738   6.021   1.049 -0.7769 -1.9687  0.3863
 5951TIP3   OH239267   3.501   4.028   0.543  0.1393  0.2829 -0.4770
 5951TIP3    H139268   3.558   4.015   0.619 -1.0957  0.9814  0.6101
 5951TIP3    H239269   3.468   4.117   0.553 -0.5442  0.1585 -1.4973
 5952TIP3   OH239270   5.329   5.046  11.789  0.5660 -0.3886  0.3792
 5952TIP3    H139271   5.387   5.003  11.727  1.5868 -1.0452  1.7339
 5952TIP3    H239272   5.248   4.994  11.786  1.2048 -1.4243  0.8021
 5953TIP3   OH239273   4.924   0.622  13.358  0.0833 -0.3332 -0.3378
 5953TIP3    H139274   4.939   0.532  13.329 -2.4489 -1.1734  0.6583
 5953TIP3    H239275   4.840   0.618  13.403  0.5967  2.2654  1.0161
 5954TIP3   OH239276   2.873   4.196   4.989 -0.2661  0.2144  0.5447
 5954TIP3    H139277   2.946   4.153   5.034 -1.8845 -1.0076  2.1280
 5954TIP3    H239278   2.800   4.191   5.051 -1.9096  0.7414 -1.2504
 5955TIP3   OH239279   5.369   4.443  11.649 -0.2466  0.3182  0.3656
 5955TIP3    H139280   5.309   4.449  11.574 -0.2597 -1.2280  0.2178
 5955TIP3    H239281   5.390   4.534  11.671 -0.0801  0.8183 -1.6577
 5956TIP3   OH239282   6.243   1.954  16.940  0.1185  0.1655  0.3067
 5956TIP3    H139283   6.291   1.887  16.989  0.3717 -0.2500 -0.4982
 5956TIP3    H239284   6.306   2.025  16.929  1.2522 -1.1386 -2.4017
 5957TIP3   OH239285   6.529   0.425   1.779  0.3782  0.3419  0.4496
 5957TIP3    H139286   6.483   0.490   1.833  0.8269 -0.0056  1.2570
 5957TIP3    H239287   6.620   0.453   1.781  0.4715  0.0470  0.2757
 5958TIP3   OH239288   2.552   3.243   0.924  0.3975  0.3304 -0.1721
 5958TIP3    H139289   2.641   3.238   0.960  0.8160  1.8536 -0.9167
 5958TIP3    H239290   2.504   3.298   0.987  0.5996  1.3350 -0.8617
 5959TIP3   OH239291   1.577   4.856   3.370 -0.0425 -0.5403  0.2632
 5959TIP3    H139292   1.549   4.873   3.280  2.0834 -0.5441 -0.4463
 5959TIP3    H239293   1.553   4.936   3.418 -1.4962 -0.6718 -0.1988
 5960TIP3   OH239294   1.967   4.004   1.594 -0.0839 -0.0200 -0.6426
 5960TIP3    H139295   2.062   4.016   1.592  0.0173 -0.5819  0.2788
 5960TIP3    H239296   1.950   3.936   1.528  0.0691  0.5137 -1.2475
 5961TIP3   OH239297   5.059   2.333  13.543 -0.0914 -0.4370  0.7196
 5961TIP3    H139298   5.001   2.410  13.546  0.3750 -0.1027  1.1909
 5961TIP3    H239299   5.146   2.369  13.530 -0.0561 -0.9772 -0.6896
 5962TIP3   OH239300   0.714   0.722  14.197  0.0506  0.0402 -0.1366
 5962TIP3    H139301   0.643   0.733  14.260  0.1326 -0.5612  0.0622
 5962TIP3    H239302   0.675   0.742  14.112 -0.3793 -0.3783 -0.0416
 5963TIP3   OH239303   5.707   6.207   3.791  0.2085  0.1206 -0.2926
 5963TIP3    H139304   5.719   6.112   3.793  1.0492  0.2266  0.5890
 5963TIP3    H239305   5.668   6.225   3.705 -0.4999 -1.0724 -0.2370
 5964TIP3   OH239306   0.225   1.963  13.043 -0.4043  0.1330  0.2495
 5964TIP3    H139307   0.228   2.015  13.123 -1.8123  1.8772 -0.7465
 5964TIP3    H239308   0.209   2.027  12.973 -1.7859 -1.5672 -1.1020
 5965TIP3   OH239309   5.297   4.750   1.882  0.4930 -0.2278 -0.2290
 5965TIP3    H139310   5.298   4.654   1.887 -0.5306 -0.2407 -0.0873
 5965TIP3    H239311   5.382   4.777   1.916 -0.0959 -0.9934  1.9891
 5966TIP3   OH239312   4.528   1.786  14.934 -0.4409  0.0256 -0.3293
 5966TIP3    H139313   4.516   1.837  15.014  1.2145 -0.6503  0.3972
 5966TIP3    H239314   4.623   1.777  14.925 -0.6388 -1.5480 -1.3205
 5967TIP3   OH239315   6.392   5.297   6.001  0.1235 -1.2267 -0.3337
 5967TIP3    H139316   6.298   5.277   6.005 -0.3302  0.3500 -1.5378
 5967TIP3    H239317   6.428   5.265   6.083 -1.8928  0.0513  1.1294
 5968TIP3   OH239318   0.211   0.022   0.434 -0.2336 -0.1328  0.4814
 5968TIP3    H139319   0.258   0.099   0.404 -1.7462  0.3065 -0.9139
 5968TIP3    H239320   0.251  -0.000   0.518  1.1203  1.3485  0.2653
 5969TIP3   OH239321   1.579   0.101  12.469  0.8377  0.0916  0.3212
 5969TIP3    H139322   1.502   0.050  12.493  0.2257  0.1117 -1.4243
 5969TIP3    H239323   1.613   0.135  12.552 -0.9122 -0.0751  1.1476
 5970TIP3   OH239324   0.413   6.429   1.937 -0.5768  0.2097  0.0058
 5970TIP3    H139325   0.389   6.467   1.852 -0.6937 -0.1007 -0.1023
 5970TIP3    H239326   0.508   6.416   1.931 -0.6554 -0.2591 -0.2615
 5971TIP3   OH239327   2.119   6.377  15.862  0.5342  0.3201 -0.0461
 5971TIP3    H139328   2.133   6.359  15.955 -1.0502  0.2016  0.1992
 5971TIP3    H239329   2.035   6.424  15.859  0.3247 -0.0848 -1.4541
 5972TIP3   OH239330   5.787   5.447  14.421  0.2644 -0.7538 -0.5126
 5972TIP3    H139331   5.817   5.537  14.410 -0.2884 -0.5280 -0.2500
 5972TIP3    H239332   5.694   5.450  14.396  0.4394 -1.4170 -1.2621
 5973TIP3   OH239333   0.018   6.590  11.976 -0.0212  0.0089  0.8077
 5973TIP3    H139334  -0.020   6.558  12.058 -0.3031 -1.3601  0.1763
 5973TIP3    H239335   0.105   6.621  12.000  0.2545 -1.2452  1.4825
 5974TIP3   OH239336   3.770   5.719   1.937 -0.0095  0.6354  0.4638
 5974TIP3    H139337   3.814   5.637   1.956 -1.5533 -0.4863 -0.4975
 5974TIP3    H239338   3.684   5.710   1.978 -0.4527  1.4739 -0.2478
 5975TIP3   OH239339   3.239   0.253   1.347  0.2364 -0.0967  0.1671
 5975TIP3    H139340   3.171   0.291   1.403  0.9731  0.9802  0.3644
 5975TIP3    H239341   3.207   0.267   1.258 -0.2684 -0.5237  0.2745
 5976TIP3   OH239342   3.259   4.493   3.601  0.3782 -0.5155 -0.5968
 5976TIP3    H139343   3.226   4.501   3.691  1.4986 -0.0535 -0.2091
 5976TIP3    H239344   3.309   4.412   3.601  2.8940  0.9329  0.0710
 5977TIP3   OH239345   1.092   1.740  13.087 -0.1696 -0.6627 -0.2378
 5977TIP3    H139346   1.056   1.747  12.999  1.4498  1.3981 -0.7883
 5977TIP3    H239347   1.035   1.795  13.141 -0.0601 -0.4182 -0.3706
 5978TIP3   OH239348   3.604   3.580   1.129 -0.2359  0.1330  0.0654
 5978TIP3    H139349   3.575   3.533   1.052  1.7770 -1.4951  0.2140
 5978TIP3    H239350   3.695   3.605   1.109  0.8532 -1.6115  2.3844
 5979TIP3   OH239351   3.850   3.540  14.255  0.1029 -0.3972 -0.0773
 5979TIP3    H139352   3.897   3.568  14.176 -0.4281 -0.3477 -0.3850
 5979TIP3    H239353   3.794   3.615  14.277 -1.2209 -1.1183 -0.8151
 5980TIP3   OH239354   2.837   2.458  11.409  0.5191  0.2249  0.0790
 5980TIP3    H139355   2.845   2.405  11.488 -0.7503 -2.0245 -1.2204
 5980TIP3    H239356   2.752   2.435  11.373  1.2585  0.8510 -2.2071
 5981TIP3   OH239357   4.760   6.205   2.687 -0.3977 -0.3458 -0.0255
 5981TIP3    H139358   4.852   6.190   2.666 -0.6489  0.7182 -2.2506
 5981TIP3    H239359   4.761   6.255   2.768  1.0263  0.0590 -0.2690
 5982TIP3   OH239360   3.311   0.957  13.731 -0.5043  0.1569 -0.1752
 5982TIP3    H139361   3.225   0.926  13.704 -0.9833  1.3528 -0.0799
 5982TIP3    H239362   3.340   0.893  13.796  0.2821 -2.2587 -2.7037
 5983TIP3   OH239363   5.721   5.647   5.158  0.2852 -0.6805  0.5412
 5983TIP3    H139364   5.808   5.636   5.119  0.4385  0.1293  0.6556
 5983TIP3    H239365   5.723   5.733   5.199 -1.4253  0.5711 -1.7395
 5984TIP3   OH239366   6.506   1.393   4.281  0.3675 -0.4114 -0.0662
 5984TIP3    H139367   6.529   1.477   4.321  1.2039 -1.1221  1.0114
 5984TIP3    H239368   6.501   1.332   4.355  0.1932 -1.4036 -0.8740
 5985TIP3   OH239369   2.823   0.000   5.718  0.1645  0.0170  0.7075
 5985TIP3    H139370   2.815  -0.066   5.787  1.5796 -1.2195 -0.2508
 5985TIP3    H239371   2.789  -0.042   5.639 -0.0929  0.8949  0.3306
 5986TIP3   OH239372   5.199   4.387  12.194  0.3123 -0.3300  0.5412
 5986TIP3    H139373   5.203   4.376  12.099  2.8810  0.0442  0.5353
 5986TIP3    H239374   5.132   4.454  12.208 -0.6048 -0.9080 -0.9322
 5987TIP3   OH239375   0.345   2.101   2.067  0.0328 -0.0572  0.3256
 5987TIP3    H139376   0.280   2.116   1.998 -0.3444 -0.2963  0.6309
 5987TIP3    H239377   0.328   2.012   2.098  0.5489 -0.1491  0.3614
 5988TIP3   OH239378   0.633   2.607  11.924 -0.5976 -0.9075 -0.2001
 5988TIP3    H139379   0.604   2.652  11.845  0.3631  1.5403  0.7312
 5988TIP3    H239380   0.553   2.580  11.969 -1.5587  3.1470  0.9210
 5989TIP3   OH239381   4.906   4.498   0.314 -0.4103  0.5352  0.4421
 5989TIP3    H139382   4.892   4.593   0.324  1.0207  0.9312 -0.8980
 5989TIP3    H239383   4.973   4.491   0.246 -1.3814 -1.4908 -0.3902
 5990TIP3   OH239384   2.119   6.163   3.719 -0.1430  0.1766 -0.1979
 5990TIP3    H139385   2.158   6.246   3.746  0.1163 -0.5285  1.7651
 5990TIP3    H239386   2.128   6.107   3.796  0.2191 -1.8646 -1.6483
 5991TIP3   OH239387   0.298   1.601  11.749 -0.1880 -0.0612 -0.2830
 5991TIP3    H139388   0.297   1.690  11.785 -1.4628 -0.1169 -0.1155
 5991TIP3    H239389   0.338   1.610  11.662  0.9749  0.4274  0.2821
 5992TIP3   OH239390   4.169   4.275  13.527 -0.4759  0.0601  0.0227
 5992TIP3    H139391   4.221   4.350  13.557 -0.9387  1.5710 -2.6520
 5992TIP3    H239392   4.210   4.248  13.445 -0.0641 -3.0065  1.0955
 5993TIP3   OH239393   1.391   5.938   0.935 -0.0283  0.2514  0.1573
 5993TIP3    H139394   1.390   5.990   0.855 -2.6427  1.1129  0.6519
 5993TIP3    H239395   1.307   5.956   0.976  1.1101 -0.3394  2.9981
 5994TIP3   OH239396   0.510   4.525  13.867 -0.0697  0.0880  0.0036
 5994TIP3    H139397   0.548   4.476  13.793 -1.4700  0.1661 -0.8026
 5994TIP3    H239398   0.562   4.498  13.943  1.0374 -0.4399 -0.9032
 5995TIP3   OH239399   3.386   1.721   0.008 -0.2942 -0.0031  0.9403
 5995TIP3    H139400   3.384   1.699  -0.085  0.0520 -0.2404  0.9885
 5995TIP3    H239401   3.309   1.678   0.045  1.5593 -3.1724  1.4785
 5996TIP3   OH239402   4.543   5.087   5.702  0.1488  0.7719 -0.7517
 5996TIP3    H139403   4.503   5.000   5.694 -0.8652  0.8952  1.8684
 5996TIP3    H239404   4.469   5.147   5.693  0.4536  1.2316 -0.2195
 5997TIP3   OH239405   3.199   0.673   5.819 -0.4400 -0.1420  0.2354
 5997TIP3    H139406   3.262   0.627   5.874  0.5080  0.8839  0.0427
 5997TIP3    H239407   3.114   0.650   5.856  0.1418  0.1515  1.8624
 5998TIP3   OH239408   2.925   3.488   5.833  0.0998  0.7198 -0.3443
 5998TIP3    H139409   2.993   3.422   5.844  0.0769  0.6631 -0.5463
 5998TIP3    H239410   2.884   3.467   5.749 -0.0947  0.8196 -0.2747
 5999TIP3   OH239411   3.721   3.768  13.467  0.3016 -0.2279 -0.1823
 5999TIP3    H139412   3.787   3.701  13.482  0.0401 -0.5570 -0.5016
 5999TIP3    H239413   3.746   3.840  13.525  0.8088 -0.4411 -0.1378
 6000TIP3   OH239414   6.311   5.737  15.733  0.1834  0.5886 -0.0547
 6000TIP3    H139415   6.325   5.647  15.763 -0.0102  0.0410 -1.5101
 6000TIP3    H239416   6.237   5.768  15.786 -0.5386 -0.5481 -0.3466
 6001TIP3   OH239417   4.596   3.310   1.560  0.1333 -0.3125 -0.5145
 6001TIP3    H139418   4.689   3.289   1.552  0.2212  0.3514 -1.3254
 6001TIP3    H239419   4.590   3.356   1.644  0.2879 -1.5761  0.2272
 6002TIP3   OH239420   2.099   6.079   0.474 -0.4533 -0.3986  0.6999
 6002TIP3    H139421   2.152   6.049   0.548  0.5486  1.4217  0.7808
 6002TIP3    H239422   2.162   6.115   0.412 -1.2152 -2.5185 -1.4381
 6003TIP3   OH239423   1.626   1.618  13.211  0.3112 -0.1506  0.5110
 6003TIP3    H139424   1.592   1.561  13.280 -0.5379  0.0190  0.2371
 6003TIP3    H239425   1.551   1.637  13.155  1.0894 -0.7356 -0.7954
 6004TIP3   OH239426   6.372   1.064  16.031  0.1564 -0.4138  0.1766
 6004TIP3    H139427   6.312   1.000  15.992 -0.5806  0.4709 -0.1832
 6004TIP3    H239428   6.357   1.144  15.981  0.6870  0.1869  0.9600
 6005TIP3   OH239429   6.456   5.250  12.208  0.6454 -0.0822 -0.0374
 6005TIP3    H139430   6.421   5.199  12.281  1.7904 -0.3127  0.3720
 6005TIP3    H239431   6.380   5.296  12.173 -0.3325 -1.6182 -0.0606
 6006TIP3   OH239432   1.952   5.182   1.424 -0.6682  0.0001  0.0452
 6006TIP3    H139433   1.967   5.276   1.428  0.6890 -0.2249  1.3811
 6006TIP3    H239434   2.038   5.144   1.406 -0.6947 -1.0797  1.9072
 6007TIP3   OH239435   3.169   0.441  12.694 -0.1914  0.2262  0.0930
 6007TIP3    H139436   3.089   0.493  12.689 -1.0309 -0.9703  0.5393
 6007TIP3    H239437   3.199   0.451  12.784 -0.6719 -0.4928  0.3413
 6008TIP3   OH239438   4.929   2.234  13.281  0.0511  0.0863  0.9179
 6008TIP3    H139439   5.019   2.265  13.277  0.8059 -1.9701  0.5142
 6008TIP3    H239440   4.876   2.313  13.284  1.8345  1.3566  0.5136
 6009TIP3   OH239441   0.941   3.880  11.636  0.3663 -0.6004  0.0724
 6009TIP3    H139442   0.908   3.831  11.711 -2.2102 -1.7469 -1.6607
 6009TIP3    H239443   0.868   3.881  11.574  2.6716 -0.6922 -2.8978
 6010TIP3   OH239444   4.294   0.894   3.433  0.6898  0.1518  0.6840
 6010TIP3    H139445   4.307   0.933   3.520  1.8017 -1.6819  1.4188
 6010TIP3    H239446   4.218   0.939   3.397 -1.3450 -0.6770  3.6171
 6011TIP3   OH239447   3.375   0.710  17.132  0.0056  0.4944 -0.1176
 6011TIP3    H139448   3.301   0.652  17.113 -1.6663  1.8152  1.8792
 6011TIP3    H239449   3.378   0.769  17.057 -1.4389  0.8279  0.0455
 6012TIP3   OH239450   5.344   4.174  17.071  0.2938  0.3454 -0.1443
 6012TIP3    H139451   5.419   4.146  17.123  0.1774 -1.8478 -1.0654
 6012TIP3    H239452   5.374   4.254  17.027  1.8113 -0.0608  0.1031
 6013TIP3   OH239453   5.210   4.845  13.322  0.6715 -0.2319  0.6672
 6013TIP3    H139454   5.188   4.862  13.230  0.2855 -1.6438  0.4668
 6013TIP3    H239455   5.160   4.910  13.371 -0.8345 -0.7899 -0.0280
 6014TIP3   OH239456   1.297   0.650  12.037 -0.5055 -0.0400 -0.8622
 6014TIP3    H139457   1.217   0.679  11.993 -1.1511 -0.1456  0.2140
 6014TIP3    H239458   1.366   0.664  11.972 -1.1096  1.8324 -1.1559
 6015TIP3   OH239459   1.288   4.943   3.583  0.1285 -0.4059  0.1741
 6015TIP3    H139460   1.360   4.948   3.647  0.5829 -2.4176 -0.1193
 6015TIP3    H239461   1.217   4.992   3.624  0.1347 -2.2663  2.6275
 6016TIP3   OH239462   5.493   0.966  11.049 -0.1754  0.2916  0.4801
 6016TIP3    H139463   5.420   0.926  11.095 -0.5076  0.4459  0.0890
 6016TIP3    H239464   5.454   1.006  10.972  0.3345  0.3002  0.2232
 6017TIP3   OH239465   3.364   2.732   1.747 -0.6042 -0.7339 -0.1586
 6017TIP3    H139466   3.341   2.813   1.700  1.3887 -0.3327 -0.5360
 6017TIP3    H239467   3.418   2.683   1.685  1.0104 -0.7942  1.2204
 6018TIP3   OH239468   5.152   0.626   6.784 -0.2544 -0.1125  0.0673
 6018TIP3    H139469   5.216   0.556   6.786 -1.1646 -1.0149 -1.0152
 6018TIP3    H239470   5.109   0.617   6.699  0.5160  2.5991 -0.7123
 6019TIP3   OH239471   3.986   5.078  11.436  0.1347 -0.0677 -0.4973
 6019TIP3    H139472   3.962   5.068  11.344 -0.2257  0.6881 -0.4929
 6019TIP3    H239473   3.931   5.013  11.482 -0.0600 -0.0901 -0.7563
 6020TIP3   OH239474   4.496   3.367  15.270 -0.7254  0.3589 -0.6596
 6020TIP3    H139475   4.462   3.346  15.356 -0.8934  2.1785 -0.2475
 6020TIP3    H239476   4.494   3.284  15.222  1.8910 -1.3554  1.8899
 6021TIP3   OH239477   1.698   2.349  13.931 -0.0279  0.6107  0.1916
 6021TIP3    H139478   1.721   2.261  13.960  0.9698  0.9760  0.5557
 6021TIP3    H239479   1.745   2.407  13.992 -1.8779  1.4105  0.9171
 6022TIP3   OH239480   3.871   5.247  17.222 -0.6536 -0.1008  0.1114
 6022TIP3    H139481   3.923   5.258  17.142 -0.1484  2.0038  0.6500
 6022TIP3    H239482   3.930   5.273  17.293 -1.5204 -0.5636  1.0300
 6023TIP3   OH239483   3.670   1.613  14.677 -0.0762  0.4449 -0.3460
 6023TIP3    H139484   3.587   1.585  14.640 -1.1131  0.9844  1.4856
 6023TIP3    H239485   3.698   1.539  14.732 -1.1820  1.6144  1.8870
 6024TIP3   OH239486   0.864   0.408   3.394  0.6364  0.4371 -0.7226
 6024TIP3    H139487   0.878   0.325   3.348 -1.2907  1.1458 -2.7761
 6024TIP3    H239488   0.854   0.473   3.324 -2.0920  1.6769  0.6516
 6025TIP3   OH239489   0.219   0.040  15.682  0.4658 -0.8533  0.3563
 6025TIP3    H139490   0.128   0.064  15.702  0.2929 -0.7559 -0.5021
 6025TIP3    H239491   0.214  -0.050  15.649  0.4256 -0.2631 -1.3659
 6026TIP3   OH239492   3.527   1.522  15.044 -0.0692 -0.6791 -0.2895
 6026TIP3    H139493   3.532   1.428  15.032 -1.6749 -0.6347 -1.7362
 6026TIP3    H239494   3.436   1.539  15.066 -0.2469  0.6720 -1.8647
 6027TIP3   OH239495   3.654   4.577  14.137 -0.3026 -0.0905  0.2534
 6027TIP3    H139496   3.674   4.659  14.182 -1.4791  1.0178 -1.1348
 6027TIP3    H239497   3.629   4.516  14.207  3.1428 -0.1822  1.5955
 6028TIP3   OH239498   5.687   2.080  14.441 -0.1893  0.1951  0.3809
 6028TIP3    H139499   5.606   2.101  14.486 -0.2047 -1.3536  1.1486
 6028TIP3    H239500   5.735   2.025  14.503 -1.1369 -3.8665 -2.1014
 6029TIP3   OH239501   0.140   4.117  11.403  0.7573 -0.1391 -0.3860
 6029TIP3    H139502   0.211   4.161  11.356 -0.1129  0.8563 -0.8123
 6029TIP3    H239503   0.067   4.119  11.342 -0.4864  1.4202  1.0482
 6030TIP3   OH239504   2.400   2.888   1.957 -0.1238 -0.8307 -0.7926
 6030TIP3    H139505   2.411   2.815   2.018  0.4982 -0.2461 -0.2038
 6030TIP3    H239506   2.370   2.961   2.010 -0.7660 -0.6449 -1.3866
 6031TIP3   OH239507   0.021   3.353   2.648 -0.2509  0.0280 -0.4521
 6031TIP3    H139508   0.115   3.356   2.665 -0.2556 -0.7009 -0.2889
 6031TIP3    H239509  -0.004   3.445   2.639  0.8061  0.1739 -2.3701
 6032TIP3   OH239510   4.679   1.860  15.503 -0.1743  0.2237 -0.1781
 6032TIP3    H139511   4.754   1.806  15.480  0.6859  0.5543  1.6923
 6032TIP3    H239512   4.711   1.949  15.502 -0.6779  0.4167  0.0817
 6033TIP3   OH239513   2.616   0.083  16.372  0.2801  0.0771  0.4597
 6033TIP3    H139514   2.703   0.056  16.342  0.3078 -0.7125  1.2208
 6033TIP3    H239515   2.614   0.178  16.356  0.8654 -0.0653 -0.5670
 6034TIP3   OH239516   4.023   1.313  16.150  0.2237 -0.5270  0.6087
 6034TIP3    H139517   4.038   1.335  16.242  1.3432 -1.8148  0.7509
 6034TIP3    H239518   4.106   1.336  16.106 -0.4534  0.5157 -0.1874
 6035TIP3   OH239519   1.200   6.693   2.010 -0.4395  0.3332  0.3749
 6035TIP3    H139520   1.260   6.631   1.969  0.7044  0.3445  1.9169
 6035TIP3    H239521   1.222   6.778   1.971 -0.1475  0.1818  0.2089
 6036TIP3   OH239522   0.647   5.101   0.015 -0.3678  0.1461  0.6242
 6036TIP3    H139523   0.722   5.157   0.034 -0.7114  0.4229  1.1720
 6036TIP3    H239524   0.576   5.136   0.069 -0.7354 -0.4662  0.5464
 6037TIP3   OH239525   1.384   4.134  17.343 -0.1356 -0.5196 -0.0144
 6037TIP3    H139526   1.355   4.110  17.254 -0.7079  0.5636 -0.1351
 6037TIP3    H239527   1.319   4.198  17.373  0.7686  0.0977  0.6876
 6038TIP3   OH239528   3.843   2.504  17.141  0.1603 -0.2415  0.1756
 6038TIP3    H139529   3.773   2.441  17.124  0.7332 -1.0427  0.6991
 6038TIP3    H239530   3.923   2.451  17.141  0.8294  0.7237 -0.8782
 6039TIP3   OH239531   2.872   1.071  16.487  0.1183  0.1714  0.5181
 6039TIP3    H139532   2.954   1.029  16.458  0.2570  0.6684  0.1842
 6039TIP3    H239533   2.886   1.089  16.580  0.5867  0.7066  0.3514
 6040TIP3   OH239534   1.785   6.595   0.885  0.4487 -0.3461 -0.3693
 6040TIP3    H139535   1.868   6.588   0.933 -0.2563  1.0110  1.1760
 6040TIP3    H239536   1.786   6.684   0.851 -0.1129 -0.5277 -0.8609
 6041TIP3   OH239537   3.581   2.851   3.786  0.0291  0.0743 -0.0085
 6041TIP3    H139538   3.608   2.896   3.706  0.6627  1.9459  1.1817
 6041TIP3    H239539   3.498   2.809   3.763  0.3124  0.3835 -1.6968
 6042TIP3   OH239540   2.479   4.462   0.288  0.0776 -0.0590 -0.4790
 6042TIP3    H139541   2.562   4.486   0.247 -0.2724  1.1638 -0.5148
 6042TIP3    H239542   2.449   4.543   0.331 -1.1200 -0.4575 -0.5162
 6043TIP3   OH239543   1.522   1.477  15.139  0.2942 -0.2134 -0.4830
 6043TIP3    H139544   1.434   1.501  15.111  0.7369 -0.2665 -1.9997
 6043TIP3    H239545   1.574   1.555  15.123  0.4959 -0.0983  0.6413
 6044TIP3   OH239546   5.235   3.833  11.925 -0.3575 -0.1573  0.0476
 6044TIP3    H139547   5.196   3.775  11.991 -0.5534  0.3733  0.4092
 6044TIP3    H239548   5.324   3.800  11.913  0.6731  1.3247  2.6147
 6045TIP3   OH239549   4.826   3.620  16.228 -0.4433  0.2736 -0.0022
 6045TIP3    H139550   4.807   3.552  16.164 -0.5312 -2.1088  2.3500
 6045TIP3    H239551   4.795   3.701  16.188 -2.0143 -1.3280 -2.2454
 6046TIP3   OH239552   2.777   2.392  13.447 -0.5787 -0.4645 -0.1123
 6046TIP3    H139553   2.781   2.397  13.543  1.5546 -0.8519 -0.1388
 6046TIP3    H239554   2.722   2.466  13.422  0.3070  0.7518  1.3409
 6047TIP3   OH239555   6.128   4.492   6.286  0.5011 -0.0451  0.4235
 6047TIP3    H139556   6.147   4.398   6.284  0.1177 -0.2134  2.4470
 6047TIP3    H239557   6.048   4.502   6.234  1.6503 -0.4828 -1.5394
 6048TIP3   OH239558   2.408   2.769  13.365  0.0276 -0.1323  0.3580
 6048TIP3    H139559   2.388   2.793  13.275 -0.2568  1.5009  0.8340
 6048TIP3    H239560   2.326   2.737  13.401  0.0164 -0.2894  0.1934
 6049TIP3   OH239561   4.623   4.528  12.095 -0.6148  0.0424  0.5689
 6049TIP3    H139562   4.575   4.446  12.104  0.6019 -0.6871  0.5946
 6049TIP3    H239563   4.561   4.588  12.053 -1.9582 -0.4804  1.7555
 6050TIP3   OH239564   1.329   2.128  10.985 -0.0809  0.1411  0.1929
 6050TIP3    H139565   1.234   2.118  10.990 -0.2837  1.2803 -0.8105
 6050TIP3    H239566   1.356   2.071  10.912  0.0763 -0.4774  0.7205
 6051TIP3   OH239567   3.648   1.967  15.396  0.2806 -0.2003 -0.2667
 6051TIP3    H139568   3.649   1.973  15.301 -2.9078  0.8301 -0.3731
 6051TIP3    H239569   3.567   2.013  15.422  0.9050 -0.6596  2.9112
 6052TIP3   OH239570   4.215   0.679   3.207 -0.5081  0.6626 -0.0119
 6052TIP3    H139571   4.218   0.643   3.118  1.0491  1.7291 -0.4347
 6052TIP3    H239572   4.247   0.608   3.263  1.4409  0.9534 -0.6955
 6053TIP3   OH239573   6.640   1.131   4.319 -0.2427  0.1648 -0.4711
 6053TIP3    H139574   6.723   1.114   4.363 -0.7832  0.8365  0.8457
 6053TIP3    H239575   6.575   1.132   4.389 -0.9955  2.1844 -1.1322
 6054TIP3   OH239576   4.340   1.652  11.630 -0.0876 -0.1194 -0.4712
 6054TIP3    H139577   4.353   1.710  11.705  1.6560  1.4954 -1.8908
 6054TIP3    H239578   4.423   1.656  11.582 -1.3312 -0.5154 -2.8333
 6055TIP3   OH239579   1.894   4.466  16.712  0.3503 -0.2262  0.9132
 6055TIP3    H139580   1.879   4.378  16.746  0.9945 -0.6191  0.2048
 6055TIP3    H239581   1.965   4.456  16.648  0.7041  0.8710  1.1068
 6056TIP3   OH239582   5.930   5.527  11.705 -0.2436  0.1768  0.3861
 6056TIP3    H139583   5.971   5.459  11.758 -0.1658 -0.0200  0.0715
 6056TIP3    H239584   5.918   5.487  11.619 -2.6002 -0.3691  0.8766
 6057TIP3   OH239585   0.605   6.336   0.887  0.0415 -0.2402  0.3215
 6057TIP3    H139586   0.589   6.269   0.821  0.7943  0.4197 -0.5630
 6057TIP3    H239587   0.597   6.419   0.840 -0.2720  0.2772  1.2593
 6058TIP3   OH239588   1.779   0.124  17.210  0.3666 -0.2340  0.3599
 6058TIP3    H139589   1.726   0.194  17.248  0.8601  1.0296 -1.1725
 6058TIP3    H239590   1.868   0.142  17.239  0.5607  0.0628 -0.3751
 6059TIP3   OH239591   6.477   1.992   4.711 -0.6398  0.1511  0.2458
 6059TIP3    H139592   6.405   1.930   4.726 -1.3783  0.8708 -0.2583
 6059TIP3    H239593   6.531   1.985   4.790  0.1238 -2.2141 -0.3865
 6060TIP3   OH239594   5.528   2.399  17.304  0.3797 -0.6807  0.3823
 6060TIP3    H139595   5.579   2.461  17.356 -2.4255  2.3056 -0.1083
 6060TIP3    H239596   5.555   2.414  17.213 -1.6523  1.4424  0.0361
 6061TIP3   OH239597   0.958   5.302   1.057 -0.0451 -0.2246  0.1097
 6061TIP3    H139598   1.036   5.280   1.108 -0.4953  1.1894  1.5180
 6061TIP3    H239599   0.984   5.380   1.007  0.3933 -1.6045 -1.9197
 6062TIP3   OH239600   0.496   6.136   0.705 -0.4943 -0.3232  0.2212
 6062TIP3    H139601   0.430   6.195   0.669  0.0178  0.4645  0.5332
 6062TIP3    H239602   0.542   6.102   0.628  0.8289  1.6250  0.0693
 6063TIP3   OH239603   5.081   5.455   6.037 -0.2835  0.1426 -0.1145
 6063TIP3    H139604   5.039   5.376   6.003  0.3858  0.2122 -1.1545
 6063TIP3    H239605   5.121   5.428   6.119 -1.4331 -0.1852  0.3624
 6064TIP3   OH239606   1.023   3.746  12.048 -0.4986  0.4320  0.5653
 6064TIP3    H139607   0.987   3.783  12.129  0.1399  2.0295  0.1558
 6064TIP3    H239608   1.115   3.728  12.069 -0.8191 -1.0816  0.7856
 6065TIP3   OH239609   0.999   5.938   3.626  0.6280 -0.3377  0.1970
 6065TIP3    H139610   0.931   5.894   3.677  1.0248 -1.2713 -0.0496
 6065TIP3    H239611   0.955   6.014   3.588  0.1102 -0.1113  1.2184
 6066TIP3   OH239612   3.026   0.483  14.517  0.1040  0.0971  0.2712
 6066TIP3    H139613   2.964   0.419  14.481 -0.6778  1.0394 -0.1153
 6066TIP3    H239614   3.095   0.430  14.556  0.8399 -1.0277 -2.3201
 6067TIP3   OH239615   3.431   1.979   1.582 -0.3981  0.0194 -0.4812
 6067TIP3    H139616   3.474   2.051   1.628 -0.2239  1.0247 -2.1426
 6067TIP3    H239617   3.465   1.900   1.623 -1.0564  0.8585  1.7945
 6068TIP3   OH239618   3.023   2.054   0.064  0.0733  0.3980 -0.4995
 6068TIP3    H139619   3.063   1.967   0.070 -2.5324 -0.9410 -1.1997
 6068TIP3    H239620   3.096   2.115   0.081  2.0018 -1.8743 -0.0689
 6069TIP3   OH239621   3.283   4.130  14.008 -0.3640  0.3798  0.1171
 6069TIP3    H139622   3.238   4.174  13.935  0.0840 -0.4241 -0.6628
 6069TIP3    H239623   3.250   4.174  14.086 -0.9518  1.1841 -0.5593
 6070TIP3   OH239624   0.752   3.120  16.801 -0.2465  0.0306  0.1718
 6070TIP3    H139625   0.733   3.063  16.726 -0.1346  0.0420  0.1338
 6070TIP3    H239626   0.847   3.114  16.812 -0.2183  0.3128  0.0848
 6071TIP3   OH239627   4.791   0.445   4.563 -0.1491  0.1325  0.4349
 6071TIP3    H139628   4.802   0.465   4.656 -2.0382  1.9174  0.3431
 6071TIP3    H239629   4.871   0.476   4.522  0.6375 -0.5279  1.4157
 6072TIP3   OH239630   1.327   6.040  15.226  0.0528 -0.5088 -0.2437
 6072TIP3    H139631   1.320   6.080  15.139 -2.9255  0.1525  0.2118
 6072TIP3    H239632   1.391   6.094  15.272  1.1061 -0.4163 -1.7545
 6073TIP3   OH239633   3.825   5.852  16.656 -0.1680 -0.2062  0.6047
 6073TIP3    H139634   3.869   5.861  16.741 -0.6954 -0.6575  0.9367
 6073TIP3    H239635   3.758   5.786  16.671 -0.2326 -0.3299 -0.1872
 6074TIP3   OH239636   2.949   5.629  14.065 -0.2333 -0.7906 -0.5160
 6074TIP3    H139637   2.934   5.637  13.971  1.4821 -1.7766 -0.9146
 6074TIP3    H239638   2.894   5.698  14.104  1.8416  2.2186 -2.5046
 6075TIP3   OH239639   6.173   1.765   2.434  0.4512 -0.1866 -0.2497
 6075TIP3    H139640   6.119   1.689   2.453 -2.8536  1.6384 -1.5558
 6075TIP3    H239641   6.171   1.817   2.514  0.9560 -0.4834 -0.0416
 6076TIP3   OH239642   3.442   0.041  14.696 -0.6035 -0.2768 -0.2362
 6076TIP3    H139643   3.435  -0.054  14.690 -1.2760 -0.1889 -1.0815
 6076TIP3    H239644   3.536   0.059  14.688 -0.0877 -1.0137  2.9754
 6077TIP3   OH239645   3.522   1.336  11.531 -0.3054 -0.0066 -0.3378
 6077TIP3    H139646   3.470   1.262  11.562  1.2601 -0.1872  2.1843
 6077TIP3    H239647   3.578   1.359  11.606  1.0831  2.0823 -1.8936
 6078TIP3   OH239648   0.497   1.841  13.065 -0.0912  0.1772  0.0613
 6078TIP3    H139649   0.416   1.861  13.019  0.3922  0.0364 -0.8883
 6078TIP3    H239650   0.528   1.760  13.025  0.0786 -0.2363  1.0125
 6079TIP3   OH239651   0.603   0.090   3.368 -0.2310  0.1263 -0.7060
 6079TIP3    H139652   0.510   0.088   3.347 -0.1450  0.0629 -1.0851
 6079TIP3    H239653   0.606   0.073   3.462 -0.7247  1.9941 -0.3065
 6080TIP3   OH239654   5.809   6.052  15.482  0.3285 -0.2183 -0.6721
 6080TIP3    H139655   5.765   6.061  15.567 -1.7550  0.5062 -1.7613
 6080TIP3    H239656   5.879   6.118  15.484  0.5312 -0.4430  0.5819
 6081TIP3   OH239657   2.637   3.735  16.588 -0.4711 -0.6451 -0.0592
 6081TIP3    H139658   2.663   3.793  16.517 -0.7791 -0.2524  0.1454
 6081TIP3    H239659   2.568   3.680  16.550 -1.3251  0.2163  0.1971
 6082TIP3   OH239660   3.293   2.182   6.949  0.3062  0.1131  0.2195
 6082TIP3    H139661   3.209   2.225   6.960  0.8560  1.0889  0.7378
 6082TIP3    H239662   3.326   2.212   6.864 -0.0338 -0.5895 -0.1748
 6083TIP3   OH239663   2.115   0.236   2.155 -0.0026 -0.3304  0.6770
 6083TIP3    H139664   2.075   0.204   2.236  0.7216 -0.3384  1.0399
 6083TIP3    H239665   2.167   0.162   2.124 -2.6936 -1.4911 -1.5104
 6084TIP3   OH239666   0.760   3.426   5.752  0.0043  0.1425 -0.4514
 6084TIP3    H139667   0.775   3.414   5.658  0.0998 -2.6661 -0.1536
 6084TIP3    H239668   0.813   3.358   5.793 -2.3456 -0.6542  1.4664
 6085TIP3   OH239669   1.046   6.472  16.617  0.5388 -0.1618  0.4479
 6085TIP3    H139670   0.992   6.411  16.568 -0.3326  0.3935  0.7023
 6085TIP3    H239671   1.060   6.546  16.558 -0.3117  0.3999  0.9308
 6086TIP3   OH239672   4.727   1.229   3.358  0.2219 -0.2984 -0.4757
 6086TIP3    H139673   4.761   1.142   3.378 -0.9334 -0.2019  2.3305
 6086TIP3    H239674   4.650   1.213   3.304  0.4187 -0.9662 -0.5703
 6087TIP3   OH239675   1.989   0.881  11.532  0.1952  0.1823  0.1917
 6087TIP3    H139676   2.016   0.863  11.442  2.6578  1.5027  0.5854
 6087TIP3    H239677   1.916   0.943  11.523  1.5280  1.6890 -0.9475
 6088TIP3   OH239678   2.621   2.925   3.652  0.3730 -0.6949 -0.2328
 6088TIP3    H139679   2.602   2.952   3.562  0.5648  2.5465  0.5655
 6088TIP3    H239680   2.536   2.920   3.695  0.3815 -0.8263 -0.2295
 6089TIP3   OH239681   1.620   0.644  13.151  0.0971 -0.0042  1.0620
 6089TIP3    H139682   1.586   0.723  13.193 -1.6964  0.5002 -1.1040
 6089TIP3    H239683   1.547   0.582  13.155  0.2504 -0.3001 -0.2947
 6090TIP3   OH239684   1.471   0.525   4.336  0.3504  0.2410  0.2416
 6090TIP3    H139685   1.527   0.507   4.260 -0.0931  1.0461 -0.2832
 6090TIP3    H239686   1.533   0.535   4.409  0.7884 -0.3534 -0.0352
 6091TIP3   OH239687   6.684   1.031  14.018 -0.4881  0.0126 -0.5901
 6091TIP3    H139688   6.660   0.956  13.963  0.5045  0.2196 -1.3422
 6091TIP3    H239689   6.740   1.085  13.961  2.3083 -0.7914  1.2223
 6092TIP3   OH239690   3.342   1.813  11.296  0.4754 -0.1411 -0.3822
 6092TIP3    H139691   3.426   1.817  11.341 -0.1625 -1.7921  1.0976
 6092TIP3    H239692   3.355   1.862  11.215  1.9405  2.2069  1.1718
 6093TIP3   OH239693   3.708   3.087  12.065 -0.6523 -0.0176 -0.3467
 6093TIP3    H139694   3.657   3.134  11.999 -0.3084  0.1967 -0.4635
 6093TIP3    H239695   3.667   3.110  12.148 -2.1403 -1.6040 -0.5891
 6094TIP3   OH239696   4.567   0.324  10.740 -0.0607  0.3102 -0.5186
 6094TIP3    H139697   4.619   0.358  10.667  0.0371  1.0347 -0.1272
 6094TIP3    H239698   4.629   0.272  10.791  1.0244  3.1261  1.2984
 6095TIP3   OH239699   0.152   5.398  16.951  0.5348 -0.2944 -0.0234
 6095TIP3    H139700   0.228   5.341  16.943  0.6267 -0.1653 -0.0589
 6095TIP3    H239701   0.138   5.433  16.863  1.3854  0.9108  0.2957
 6096TIP3   OH239702   1.508   5.282   3.023  0.1908 -0.1357 -0.1160
 6096TIP3    H139703   1.418   5.268   2.995 -1.0101  3.1521  1.5540
 6096TIP3    H239704   1.555   5.305   2.943 -1.1672  0.9516 -0.6245
 6097TIP3   OH239705   0.234   0.546  12.670 -0.4448 -0.2279 -0.3711
 6097TIP3    H139706   0.316   0.537  12.621  0.4366 -0.4611  1.0648
 6097TIP3    H239707   0.258   0.523  12.760 -2.3392 -1.2867 -0.1003
 6098TIP3   OH239708   5.039   2.208   2.868 -0.0755 -0.8562 -0.5134
 6098TIP3    H139709   5.044   2.170   2.781 -0.4394  1.2462 -1.5138
 6098TIP3    H239710   5.101   2.157   2.920  0.1946 -2.1088 -1.9837
 6099TIP3   OH239711   6.738   1.104   2.278  0.7886  0.3470 -0.5998
 6099TIP3    H139712   6.698   1.019   2.257 -0.1455  0.3177  1.1001
 6099TIP3    H239713   6.683   1.167   2.232 -0.5799  0.2176  0.7541
 6100TIP3   OH239714   1.646   5.001   1.510 -0.0011  0.4382  0.7183
 6100TIP3    H139715   1.601   5.018   1.593 -0.8110  0.0099  0.3769
 6100TIP3    H239716   1.590   5.041   1.444 -1.5266 -2.6102 -0.0344
 6101TIP3   OH239717   2.638   3.258   0.267 -0.0012  0.6742  0.3904
 6101TIP3    H139718   2.636   3.163   0.276  2.1283  0.4414 -0.8157
 6101TIP3    H239719   2.547   3.282   0.247 -0.3241 -1.3248 -0.8890
 6102TIP3   OH239720   1.162   2.634   2.939  0.2131 -0.3684 -0.1758
 6102TIP3    H139721   1.160   2.641   2.844  1.1504 -1.0596 -0.2692
 6102TIP3    H239722   1.255   2.637   2.961 -0.0399  0.8555  0.8235
 6103TIP3   OH239723   0.800   2.253   0.663  0.1938 -0.4330 -0.3945
 6103TIP3    H139724   0.831   2.243   0.572 -2.3688  1.3069 -1.5697
 6103TIP3    H239725   0.879   2.275   0.713  2.0472 -3.3285 -1.7238
 6104TIP3   OH239726   4.138   5.594  15.130  0.2546 -0.2358 -0.0072
 6104TIP3    H139727   4.088   5.594  15.212  1.2982  1.5480  0.6812
 6104TIP3    H239728   4.160   5.502  15.116 -1.1992 -0.7634  0.9101
 6105TIP3   OH239729   0.495   3.422  10.689 -0.1384 -0.0728 -0.2767
 6105TIP3    H139730   0.516   3.334  10.658  1.0612 -0.5116  1.6094
 6105TIP3    H239731   0.564   3.477  10.651  0.1658 -0.2694 -0.0191
 6106TIP3   OH239732   2.807   2.825   4.889  0.4819 -0.3148  0.5391
 6106TIP3    H139733   2.886   2.785   4.851  0.2307 -0.3716  0.0684
 6106TIP3    H239734   2.779   2.889   4.824 -0.0345 -0.5094  0.5657
 6107TIP3   OH239735   6.654   4.825   1.582 -0.3298  0.2280 -0.2384
 6107TIP3    H139736   6.697   4.898   1.537 -1.2570  1.0895  0.2364
 6107TIP3    H239737   6.561   4.843   1.574 -0.5387  0.0251  1.3745
 6108TIP3   OH239738   4.972   2.070   3.905  0.0850 -0.3457  0.3187
 6108TIP3    H139739   5.025   2.040   3.979 -0.0221 -1.0593  0.1076
 6108TIP3    H239740   5.032   2.123   3.852  1.5860 -3.7186 -1.6425
 6109TIP3   OH239741   6.681   6.677   1.435 -0.3927  0.2754  0.3084
 6109TIP3    H139742   6.709   6.717   1.518 -0.7853 -0.9810  1.0652
 6109TIP3    H239743   6.762   6.667   1.385  0.3028 -1.5670  1.7074
 6110TIP3   OH239744   5.606   6.064   5.545 -0.1170  0.0468  0.3858
 6110TIP3    H139745   5.670   6.126   5.578 -0.9099  1.3798 -0.5107
 6110TIP3    H239746   5.527   6.080   5.596  0.1107 -1.3368  1.2304
 6111TIP3   OH239747   4.649   0.901  14.916 -0.0606 -0.0492 -0.0073
 6111TIP3    H139748   4.626   0.885  15.007  0.7186  0.4408  0.2850
 6111TIP3    H239749   4.741   0.875  14.909 -0.5209 -1.5572 -1.0410
 6112TIP3   OH239750   0.729   0.047   5.036  0.5503 -0.0156  0.3707
 6112TIP3    H139751   0.719   0.005   5.121 -0.2768 -0.0900  0.2484
 6112TIP3    H239752   0.815   0.020   5.006  0.6232 -0.4414  0.9396
 6113TIP3   OH239753   6.262   3.488   1.555  0.1461  0.0446  0.1637
 6113TIP3    H139754   6.188   3.498   1.615 -0.3180 -1.0461 -0.1885
 6113TIP3    H239755   6.327   3.440   1.606 -0.3052 -1.0116 -0.2153
 6114TIP3   OH239756   2.218   3.150  13.302 -0.2632  0.4304  0.0665
 6114TIP3    H139757   2.203   3.237  13.337  0.1045  0.8423 -0.7584
 6114TIP3    H239758   2.264   3.165  13.219 -2.7252 -0.3940 -1.5525
 6115TIP3   OH239759   4.385   5.394  13.785 -0.7209  0.4933  0.5692
 6115TIP3    H139760   4.450   5.463  13.797  0.0158 -0.0202 -0.3306
 6115TIP3    H239761   4.341   5.416  13.703  0.9333 -1.1516 -0.8618
 6116TIP3   OH239762   3.147   3.520   3.012 -0.0775 -0.0867 -0.2672
 6116TIP3    H139763   3.115   3.585   2.950  0.8489  0.9128  0.2629
 6116TIP3    H239764   3.181   3.449   2.957 -0.4177  0.2094 -0.8680
 6117TIP3   OH239765   2.916   0.726  13.750 -0.6204 -0.7225 -0.0794
 6117TIP3    H139766   2.838   0.768  13.715 -0.9058  0.1984  1.5543
 6117TIP3    H239767   2.916   0.749  13.843  1.9399 -0.0955 -0.1425
 6118TIP3   OH239768   3.675   0.310  14.245 -0.1879  0.6653 -0.1874
 6118TIP3    H139769   3.692   0.226  14.202 -0.1390  0.1092  0.8926
 6118TIP3    H239770   3.759   0.334  14.285 -0.2954  1.0493 -0.1883
 6119TIP3   OH239771   5.349   4.710  15.680 -0.4233 -0.1055  0.4591
 6119TIP3    H139772   5.367   4.764  15.603  0.7950 -0.8218  0.2093
 6119TIP3    H239773   5.380   4.622  15.655  1.6507 -0.0092  2.3512
 6120TIP3   OH239774   4.682   4.387   6.416 -0.0708 -0.2426 -0.1869
 6120TIP3    H139775   4.648   4.466   6.375 -1.1011  0.0939  1.2060
 6120TIP3    H239776   4.624   4.373   6.492  1.6597 -0.8536  1.0941
 6121TIP3   OH239777   2.503   5.514   5.376 -0.2188 -0.3349  0.1283
 6121TIP3    H139778   2.530   5.551   5.460  0.1908 -0.3423  0.0023
 6121TIP3    H239779   2.523   5.421   5.383  0.1154 -0.2830 -0.0913
 6122TIP3   OH239780   1.788   0.614   5.998  0.3049 -0.0732  0.2922
 6122TIP3    H139781   1.868   0.617   6.051 -0.2606 -0.5651  1.2187
 6122TIP3    H239782   1.769   0.520   5.991 -0.3921  0.0536  0.4169
 6123TIP3   OH239783   3.631   4.491   5.160 -0.3116 -0.1592  0.1153
 6123TIP3    H139784   3.652   4.433   5.233  0.1596  0.1958  0.2595
 6123TIP3    H239785   3.537   4.479   5.147  0.0336 -2.2988 -0.9890
 6124TIP3   OH239786   2.764   5.821  14.144  0.4325  0.1213 -0.3976
 6124TIP3    H139787   2.670   5.820  14.157  0.3691  0.5992 -0.8065
 6124TIP3    H239788   2.788   5.914  14.145  0.8983  0.0052 -0.2961
 6125TIP3   OH239789   3.245   3.975  15.436 -0.0573  0.0515 -0.1111
 6125TIP3    H139790   3.195   4.003  15.513 -1.2547 -4.0268  0.8359
 6125TIP3    H239791   3.183   3.924  15.385  2.2593 -2.7402 -0.4064
 6126TIP3   OH239792   2.876   4.411   2.880 -0.4621 -0.1485  0.3226
 6126TIP3    H139793   2.812   4.480   2.866  0.7049  0.5419 -2.3397
 6126TIP3    H239794   2.919   4.433   2.963 -0.4082  2.1181 -0.2492
 6127TIP3   OH239795   4.942   6.343  16.353 -0.0548  0.0782 -0.6406
 6127TIP3    H139796   5.021   6.326  16.301 -0.3051  0.5074 -1.1662
 6127TIP3    H239797   4.905   6.422  16.316 -1.2828 -0.6570 -1.0475
 6128TIP3   OH239798   6.330   1.816  12.555  0.8616  0.9492  0.0104
 6128TIP3    H139799   6.396   1.752  12.579 -0.7498 -0.4688  0.9178
 6128TIP3    H239800   6.349   1.892  12.610  1.1365  0.1751  1.0163
 6129TIP3   OH239801   0.206   2.432  11.424 -0.3859 -0.0540  0.1323
 6129TIP3    H139802   0.292   2.455  11.388 -0.7437  1.7448  0.3276
 6129TIP3    H239803   0.226   2.385  11.505  0.4136 -3.4480 -1.8273
 6130TIP3   OH239804   2.600   2.413   0.648  0.4020  0.1656  0.1422
 6130TIP3    H139805   2.591   2.418   0.743 -0.4770 -0.1449  0.0839
 6130TIP3    H239806   2.670   2.349   0.633  2.0230  1.7621  0.6068
 6131TIP3   OH239807   3.959   1.594   0.319 -0.1339  0.3268  0.0546
 6131TIP3    H139808   3.894   1.664   0.325  1.0523  1.4426  0.4410
 6131TIP3    H239809   3.915   1.525   0.270 -1.7266  0.8823  0.6304
 6132TIP3   OH239810   6.418   3.485  14.992  0.4963  0.4144 -0.3223
 6132TIP3    H139811   6.502   3.485  15.038  0.6587 -0.7556 -0.5941
 6132TIP3    H239812   6.369   3.413  15.031 -0.0355  0.5198 -0.7851
 6133TIP3   OH239813   0.645   0.200  12.009  0.1287 -0.2522 -0.1755
 6133TIP3    H139814   0.562   0.191  12.055  1.4946 -0.1333  2.5278
 6133TIP3    H239815   0.649   0.124  11.951 -0.7722 -1.6987  1.5463
 6134TIP3   OH239816   0.479   1.395  14.212  0.0163  0.0433  0.3001
 6134TIP3    H139817   0.497   1.416  14.120 -1.4987 -0.4230 -0.1349
 6134TIP3    H239818   0.505   1.304  14.222  1.2629  0.4241  0.6612
 6135TIP3   OH239819   1.412   0.896  11.763 -0.4724  0.0345 -0.0424
 6135TIP3    H139820   1.434   0.809  11.797  0.5011  0.8968  1.6874
 6135TIP3    H239821   1.326   0.885  11.723  0.7528 -2.3317 -2.3559
 6136TIP3   OH239822   5.730   3.585   3.708 -0.0883 -0.1950  0.3787
 6136TIP3    H139823   5.756   3.577   3.617 -0.3711 -0.4123  0.3137
 6136TIP3    H239824   5.771   3.510   3.752  0.8946  0.4790  0.6346
 6137TIP3   OH239825   1.978   4.190  14.256 -0.6276 -0.2639  0.8224
 6137TIP3    H139826   2.040   4.158  14.190 -0.2768  0.1123  0.9618
 6137TIP3    H239827   2.007   4.280  14.275 -0.5131 -0.4789  1.7314
 6138TIP3   OH239828   4.187   3.323  13.651  0.8894  0.1769 -0.0514
 6138TIP3    H139829   4.257   3.258  13.655  1.4082  0.6977 -0.4302
 6138TIP3    H239830   4.120   3.290  13.711  0.5527 -1.3857 -1.2228
 6139TIP3   OH239831   3.983   5.980   1.304 -0.7142  0.5351  0.0097
 6139TIP3    H139832   3.975   5.971   1.209 -2.3943  0.7975  0.1075
 6139TIP3    H239833   4.061   5.929   1.326  0.6125  1.7224 -1.6799
 6140TIP3   OH239834   1.120   5.676  12.838  0.0501  0.6147  0.0491
 6140TIP3    H139835   1.154   5.765  12.837  1.1657  0.2356  1.2841
 6140TIP3    H239836   1.036   5.682  12.885  0.8208  0.8073  1.4372
 6141TIP3   OH239837   4.881   0.729   1.513  0.1596  0.2816  0.2424
 6141TIP3    H139838   4.837   0.718   1.598 -1.3342  1.6315 -0.3225
 6141TIP3    H239839   4.972   0.706   1.531 -0.2294 -0.0002  2.0823
 6142TIP3   OH239840   1.204   3.742   1.441 -0.1606 -0.1984  0.7002
 6142TIP3    H139841   1.131   3.779   1.392  0.6748  0.5578 -0.0173
 6142TIP3    H239842   1.221   3.806   1.511  0.6227  0.2767  0.0872
 6143TIP3   OH239843   3.381   5.884  11.825  0.4097 -0.2573  0.2121
 6143TIP3    H139844   3.326   5.947  11.779 -0.7910 -0.5230  1.2370
 6143TIP3    H239845   3.456   5.935  11.855 -0.0252  0.4520  0.1132
 6144TIP3   OH239846   1.718   2.765  10.889 -0.4522 -0.0363 -0.3210
 6144TIP3    H139847   1.766   2.683  10.876 -0.0499  0.1659 -0.1306
 6144TIP3    H239848   1.766   2.830  10.838 -0.1795  0.2835  0.3231
 6145TIP3   OH239849   2.846   6.295  16.550 -0.2308 -0.2928 -0.0033
 6145TIP3    H139850   2.810   6.246  16.624  0.2419  0.7123  0.9171
 6145TIP3    H239851   2.804   6.257  16.473 -1.1731 -0.9674  0.8248
 6146TIP3   OH239852   3.904   5.445   0.754  0.3188  0.1290 -0.0201
 6146TIP3    H139853   3.887   5.509   0.685 -1.3068 -0.8437 -0.5912
 6146TIP3    H239854   3.820   5.400   0.766  0.7556 -0.2046  2.1237
 6147TIP3   OH239855   5.975   2.328  17.175  0.0093 -0.2436  0.6168
 6147TIP3    H139856   6.025   2.264  17.124 -0.2651  0.5273 -0.6557
 6147TIP3    H239857   5.887   2.291  17.179  0.3483 -0.9959  1.7994
 6148TIP3   OH239858   1.315   5.080  13.141 -0.6916 -0.5603 -0.5702
 6148TIP3    H139859   1.378   5.107  13.208 -0.5111 -0.5064 -0.7613
 6148TIP3    H239860   1.258   5.156  13.129 -1.0608 -0.7558 -0.0874
 6149TIP3   OH239861   6.246   2.342   1.352  0.0097  0.6486  0.2473
 6149TIP3    H139862   6.154   2.339   1.380  0.3979 -0.3524  1.5025
 6149TIP3    H239863   6.242   2.335   1.256 -1.3201  3.0998  0.0365
 6150TIP3   OH239864   5.532   2.646   0.042 -0.2139  0.2390 -0.0942
 6150TIP3    H139865   5.527   2.661   0.136  0.9443  0.3787 -0.0409
 6150TIP3    H239866   5.611   2.694   0.014  0.6059 -1.4356 -0.7915
 6151TIP3   OH239867   3.074   0.075  13.485  0.4065 -0.4243  0.0026
 6151TIP3    H139868   3.024   0.154  13.468  0.3262 -0.5625 -0.3959
 6151TIP3    H239869   3.063   0.060  13.579  0.1064 -0.1809  0.0067
 6152TIP3   OH239870   1.442   6.558   2.794  0.3973 -0.6822  0.5501
 6152TIP3    H139871   1.522   6.536   2.747 -0.5894 -1.3503 -0.8610
 6152TIP3    H239872   1.464   6.540   2.886  2.1688  0.1143  0.3352
 6153TIP3   OH239873   2.197   3.685  12.442  0.3971  0.6394  0.3367
 6153TIP3    H139874   2.168   3.774  12.424 -1.6664  0.4465  2.2327
 6153TIP3    H239875   2.282   3.677  12.398  0.8435  3.6719  0.4608
 6154TIP3   OH239876   1.424   4.790   2.529  0.1902  0.2372  0.1970
 6154TIP3    H139877   1.478   4.715   2.504  0.8484  0.8966 -0.4046
 6154TIP3    H239878   1.398   4.830   2.446 -1.8583 -0.4830  0.4477
 6155TIP3   OH239879   4.837   6.216   3.903  0.0567 -0.2717 -0.0045
 6155TIP3    H139880   4.853   6.294   3.956  1.7550 -0.2073 -0.5474
 6155TIP3    H239881   4.846   6.143   3.964 -1.2047 -0.0904  0.4343
 6156TIP3   OH239882   5.800   2.570  17.185 -0.6135  0.3266  0.0329
 6156TIP3    H139883   5.842   2.651  17.214 -1.3669  0.5487  0.5223
 6156TIP3    H239884   5.870   2.505  17.189 -0.3418  0.6551  0.9776
 6157TIP3   OH239885   5.952   6.064  14.349  0.5221  0.2645 -0.1069
 6157TIP3    H139886   5.866   6.053  14.309  0.2981 -0.0623  0.4496
 6157TIP3    H239887   5.972   5.978  14.386  0.2329  0.8216  1.4248
 6158TIP3   OH239888   1.452   4.364  16.386  0.1873 -0.1500 -0.2218
 6158TIP3    H139889   1.383   4.348  16.322 -1.6384 -2.7558  2.1331
 6158TIP3    H239890   1.486   4.276  16.406  4.2540  0.9891 -1.1781
 6159TIP3   OH239891   3.719   5.568  12.364  0.1995 -0.9202 -0.6312
 6159TIP3    H139892   3.650   5.572  12.298 -0.2236  0.0262 -0.1454
 6159TIP3    H239893   3.797   5.543  12.315 -0.2022 -0.6661 -1.4172
 6160TIP3   OH239894   4.324   5.314  16.316  0.4178  0.2947 -0.1516
 6160TIP3    H139895   4.403   5.369  16.316 -0.3218  1.4475  1.7114
 6160TIP3    H239896   4.266   5.357  16.253  0.3081  0.9549  0.3883
 6161TIP3   OH239897   2.725   4.802  11.531 -0.5213 -0.6160  0.2394
 6161TIP3    H139898   2.632   4.821  11.541 -1.0836 -1.8108 -1.9784
 6161TIP3    H239899   2.741   4.728  11.589 -0.9791 -0.4973  0.5216
 6162TIP3   OH239900   3.334   4.241   5.273 -0.0929 -0.4925 -0.1205
 6162TIP3    H139901   3.259   4.259   5.330  1.3486 -0.7522  1.9521
 6162TIP3    H239902   3.348   4.322   5.225 -0.2634  0.3658  1.2304
 6163TIP3   OH239903   1.052   2.585   4.494 -0.0076 -0.1574 -0.0259
 6163TIP3    H139904   0.987   2.627   4.550  0.0418 -0.2117  0.0730
 6163TIP3    H239905   1.035   2.491   4.504 -1.5373 -0.1274 -1.9395
 6164TIP3   OH239906   5.028   4.446   1.937  0.3869  0.2340 -0.6332
 6164TIP3    H139907   4.978   4.433   1.857 -2.6619 -1.5955  1.4044
 6164TIP3    H239908   4.982   4.516   1.983  1.2046  0.2314  0.2219
 6165TIP3   OH239909   5.805   1.437  16.767  0.4198  0.5355  0.0903
 6165TIP3    H139910   5.819   1.353  16.811  1.4250  0.6955  0.1058
 6165TIP3    H239911   5.893   1.469  16.749  0.0537  1.7402  0.3638
 6166TIP3   OH239912   3.626   2.648  12.962  0.3582 -0.0766  0.0193
 6166TIP3    H139913   3.638   2.589  12.888  0.6982  0.0341 -0.0161
 6166TIP3    H239914   3.687   2.720  12.945  0.6387 -0.1888  0.5545
 6167TIP3   OH239915   3.763   6.461   5.189 -0.2518 -0.3171  0.4250
 6167TIP3    H139916   3.704   6.511   5.246 -0.8632 -1.5536  0.9115
 6167TIP3    H239917   3.848   6.505   5.197 -0.6864  0.4190  1.1030
 6168TIP3   OH239918   5.191   3.544   3.222 -0.9116  0.5699 -0.1741
 6168TIP3    H139919   5.262   3.555   3.285 -0.9221 -1.0625  0.1631
 6168TIP3    H239920   5.157   3.455   3.238 -0.6340 -0.0930 -2.7422
 6169TIP3   OH239921   0.173   6.153  12.042 -0.2080  0.3567  0.2667
 6169TIP3    H139922   0.149   6.226  12.099  1.5463  0.7267  0.5688
 6169TIP3    H239923   0.267   6.142  12.055 -0.5327 -2.5196  0.8810
 6170TIP3   OH239924   2.669   0.193   2.668 -0.0741  0.1433 -0.1059
 6170TIP3    H139925   2.731   0.208   2.739  0.1094  2.5648 -0.6906
 6170TIP3    H239926   2.719   0.144   2.602  0.7949  0.8426  0.0256
 6171TIP3   OH239927   1.186   2.349   4.420  0.0046  0.1133 -0.2424
 6171TIP3    H139928   1.227   2.275   4.376  0.4390 -0.0379  0.4099
 6171TIP3    H239929   1.129   2.387   4.354 -1.5937 -1.8528 -0.1168
 6172TIP3   OH239930   2.239   4.047  14.451  0.3431 -0.2003  0.6120
 6172TIP3    H139931   2.261   3.996  14.373  2.4295  1.1191  0.2285
 6172TIP3    H239932   2.152   4.018  14.476 -0.7529 -0.1354 -2.6784
 6173TIP3   OH239933   1.460   1.066  15.942  0.8766 -0.2493 -0.4742
 6173TIP3    H139934   1.510   1.020  16.009  0.1138  1.9097  1.7594
 6173TIP3    H239935   1.517   1.137  15.914  0.5688 -0.1725 -0.9166
 6174TIP3   OH239936   1.166   2.210   2.723  0.1833 -0.0785 -0.3042
 6174TIP3    H139937   1.230   2.254   2.779  0.5129  0.3881 -1.0199
 6174TIP3    H239938   1.082   2.231   2.762  0.4378 -0.2695  0.3575
 6175TIP3   OH239939   2.724   5.665  11.294  0.0495  0.3405  0.0985
 6175TIP3    H139940   2.812   5.634  11.318 -0.1935  1.2019  2.4625
 6175TIP3    H239941   2.668   5.589  11.305 -0.1089  0.7458  3.0602
 6176TIP3   OH239942   1.280   3.504   2.421 -0.1406  0.4943 -0.4588
 6176TIP3    H139943   1.239   3.583   2.388  1.2822  1.6391  0.3961
 6176TIP3    H239944   1.346   3.481   2.355  0.3051  0.7660 -0.1173
 6177TIP3   OH239945   0.482   6.235   3.821 -0.3135 -0.0970  0.0547
 6177TIP3    H139946   0.431   6.299   3.771  1.0373  1.6979  0.8325
 6177TIP3    H239947   0.570   6.241   3.786 -0.0050 -1.0471  0.6208
 6178TIP3   OH239948   3.065   5.530  13.820 -0.6077  0.0731  0.2022
 6178TIP3    H139949   3.069   5.450  13.872  3.0822  0.2097  0.4324
 6178TIP3    H239950   3.078   5.501  13.730  1.8352  0.3383  0.3877
 6179TIP3   OH239951   6.741   6.654  17.183  0.1170  0.3409  0.3527
 6179TIP3    H139952   6.671   6.591  17.167  1.4505 -0.7369 -1.6008
 6179TIP3    H239953   6.696   6.738  17.190 -1.5836 -0.6236  1.7729
 6180TIP3   OH239954   4.766   3.274   2.229 -0.0823 -0.0951  0.6621
 6180TIP3    H139955   4.676   3.265   2.259 -0.5622 -0.2310 -0.7373
 6180TIP3    H239956   4.761   3.262   2.134  1.3638  0.2086  0.5215
 6181TIP3   OH239957   4.993   4.680  13.994 -0.3584 -0.6600  0.4317
 6181TIP3    H139958   5.004   4.632  13.913 -2.5286 -0.0502 -0.2971
 6181TIP3    H239959   5.040   4.763  13.981 -1.5925 -0.0973 -0.6842
 6182TIP3   OH239960   4.051   4.652  16.459  0.5431 -0.2987  0.1465
 6182TIP3    H139961   3.986   4.637  16.390  0.8734 -1.7782  0.1047
 6182TIP3    H239962   4.124   4.594  16.435  0.1754 -1.8053  2.3403
 6183TIP3   OH239963   0.225   5.337  15.377  0.0399 -0.5285  0.0818
 6183TIP3    H139964   0.266   5.261  15.337 -0.5032 -0.7446 -0.0761
 6183TIP3    H239965   0.239   5.325  15.471  2.0325  0.3917 -0.0444
 6184TIP3   OH239966   1.297   0.165   4.353 -0.1293  0.0327 -0.0909
 6184TIP3    H139967   1.223   0.146   4.295  1.2522  1.0549 -2.2808
 6184TIP3    H239968   1.272   0.246   4.397 -0.7850 -0.2399  0.0586
 6185TIP3   OH239969   6.340   2.405  13.969 -0.1681  0.3028  0.7719
 6185TIP3    H139970   6.317   2.488  13.927  2.6082  0.9472  0.3038
 6185TIP3    H239971   6.366   2.348  13.896  0.7406  0.0353  1.2882
 6186TIP3   OH239972   2.331   4.885  14.576  0.0647  0.0637  0.2256
 6186TIP3    H139973   2.381   4.819  14.623 -0.0122 -0.0457  0.1555
 6186TIP3    H239974   2.366   4.969  14.606  1.7754 -0.0104 -1.3863
 6187TIP3   OH239975   4.805   1.376   5.953  0.0167  0.3495 -0.1879
 6187TIP3    H139976   4.776   1.291   5.987  1.1300  0.0010 -0.0799
 6187TIP3    H239977   4.743   1.397   5.884 -1.8715  0.7139  1.5156
 6188TIP3   OH239978   4.367   1.949   5.792 -0.0318 -0.2207 -0.3383
 6188TIP3    H139979   4.314   1.947   5.872 -1.9413 -1.6464 -1.5534
 6188TIP3    H239980   4.457   1.959   5.823 -0.8270  0.6195  1.8994
 6189TIP3   OH239981   5.967   0.106   5.884  0.1274 -0.1441 -0.0575
 6189TIP3    H139982   5.938   0.095   5.974 -1.2079 -2.2004 -0.6757
 6189TIP3    H239983   6.029   0.035   5.869  0.6843  0.4502 -0.6573
 6190TIP3   OH239984   5.779   2.158  12.430 -0.5520 -0.5340 -0.3013
 6190TIP3    H139985   5.837   2.163  12.353 -0.5369 -0.8076 -0.3092
 6190TIP3    H239986   5.838   2.142  12.503 -0.7346 -2.3325 -0.5095
 6191TIP3   OH239987   0.727   3.701   4.762 -0.2551  0.4317  0.5548
 6191TIP3    H139988   0.785   3.686   4.687 -1.0491 -1.4795  0.2787
 6191TIP3    H239989   0.653   3.750   4.724 -1.1220 -1.3605 -0.1806
 6192TIP3   OH239990   5.266   2.170   5.891 -0.7085 -0.5986 -0.3766
 6192TIP3    H139991   5.215   2.093   5.916  0.0193 -0.9931 -0.0797
 6192TIP3    H239992   5.280   2.217   5.973  0.4722 -1.1528 -0.2413
 6193TIP3   OH239993   1.367   2.394   0.090  0.1596 -0.0888  0.0233
 6193TIP3    H139994   1.306   2.455   0.132 -1.4783 -1.6766  0.0719
 6193TIP3    H239995   1.407   2.347   0.163 -0.1622 -0.5158 -0.0715
 6194TIP3   OH239996   2.665   0.445  15.382  0.3717  0.6994 -0.4173
 6194TIP3    H139997   2.714   0.400  15.452 -0.2255 -0.5057 -0.7396
 6194TIP3    H239998   2.623   0.374  15.334 -0.3342  1.6126 -1.1709
 6195TIP3   OH239999   6.542   3.012  12.291  0.0181 -0.2199 -0.4217
 6195TIP3    H140000   6.587   3.093  12.315 -1.8208  0.4931  0.8048
 6195TIP3    H240001   6.613   2.950  12.273  1.5638  0.4615  2.6134
 6196TIP3   OH240002   3.565   5.301   6.997  0.2609 -0.8890  0.6824
 6196TIP3    H140003   3.607   5.232   7.048  0.3686 -0.7202  0.8228
 6196TIP3    H240004   3.475   5.271   6.985  0.8947 -2.2183 -1.3202
 6197TIP3   OH240005   1.995   0.320   5.511  0.0003  0.4256  0.0088
 6197TIP3    H140006   2.025   0.311   5.601  0.7651 -0.6053 -0.3241
 6197TIP3    H240007   1.923   0.256   5.504  0.5697 -0.1829 -0.3617
 6198TIP3   OH240008   3.461   2.218   5.406  0.0359 -0.2496  0.1498
 6198TIP3    H140009   3.419   2.132   5.400  2.4486 -1.4533 -0.7056
 6198TIP3    H240010   3.462   2.250   5.316  1.4618 -0.5456  0.0406
 6199TIP3   OH240011   5.807   5.186   3.409 -0.3636 -0.1901 -0.0211
 6199TIP3    H140012   5.870   5.151   3.472 -1.8199 -0.6935  1.2276
 6199TIP3    H240013   5.818   5.281   3.413 -0.7498 -0.1836  1.3815
 6200TIP3   OH240014   5.428   1.274   0.427  0.4351 -0.6167 -0.2469
 6200TIP3    H140015   5.383   1.331   0.364 -2.5454 -0.4392  1.7959
 6200TIP3    H240016   5.473   1.335   0.485  1.7986 -0.6990 -1.1783
 6201TIP3   OH240017   5.446   6.310   1.016  0.1188 -0.3179 -0.0979
 6201TIP3    H140018   5.408   6.236   0.969 -0.6325  0.1508 -0.2507
 6201TIP3    H240019   5.538   6.310   0.992 -0.3628  0.2959 -2.1287
 6202TIP3   OH240020   4.326   6.173   5.765 -0.2592 -0.3869  0.1544
 6202TIP3    H140021   4.309   6.179   5.859  1.3217  0.2871  0.4291
 6202TIP3    H240022   4.374   6.254   5.744 -0.5878 -0.5276 -1.2312
 6203TIP3   OH240023   6.478   5.761   5.960 -1.1598 -0.3383  0.5340
 6203TIP3    H140024   6.552   5.707   5.987 -0.1560  0.3303 -0.7817
 6203TIP3    H240025   6.500   5.849   5.990 -0.7442  0.1234 -1.0055
 6204TIP3   OH240026   2.013   3.033   0.045  0.0452  0.4174 -0.6503
 6204TIP3    H140027   1.987   2.971   0.112 -1.7517 -0.7731 -2.3258
 6204TIP3    H240028   2.089   3.078   0.081  2.3716 -3.6799  0.2001
 6205TIP3   OH240029   6.166   2.162  10.894 -0.3419 -0.6101  0.2552
 6205TIP3    H140030   6.173   2.129  10.983 -1.1290  0.2524  0.6662
 6205TIP3    H240031   6.256   2.171  10.863 -0.0959 -2.4586  0.3493
 6206TIP3   OH240032   3.675   3.932  16.686 -0.4665 -0.3716  0.5513
 6206TIP3    H140033   3.693   3.986  16.762  0.1409 -0.4106  0.4420
 6206TIP3    H240034   3.682   3.992  16.612 -0.8278 -0.3808  0.5118
 6207TIP3   OH240035   4.127   2.264  14.912 -0.4250  0.5193  0.3017
 6207TIP3    H140036   4.218   2.256  14.882 -0.4200  0.5663  0.3037
 6207TIP3    H240037   4.076   2.210  14.852 -0.8045  2.7481 -1.4951
 6208TIP3   OH240038   5.070   3.320  12.887 -0.5971  0.4808  0.3539
 6208TIP3    H140039   5.121   3.250  12.846 -1.1585  0.0638  0.3627
 6208TIP3    H240040   5.122   3.399  12.873  1.1283 -0.2301  2.1832
 6209TIP3   OH240041   2.354   5.509  14.914 -0.5564  0.4256  0.7763
 6209TIP3    H140042   2.349   5.605  14.917 -0.1568  0.5271 -1.0102
 6209TIP3    H240043   2.388   5.489  14.827 -1.7298 -1.3984  0.6969
 6210TIP3   OH240044   6.268   1.958  14.786 -0.3336  0.7672 -0.4244
 6210TIP3    H140045   6.299   2.032  14.734 -0.7198  1.1159 -0.1654
 6210TIP3    H240046   6.219   1.998  14.858  0.1150  0.2885  0.1590
 6211TIP3   OH240047   5.168   5.191   2.409 -0.1181 -0.3259  0.2118
 6211TIP3    H140048   5.219   5.272   2.403 -0.7577  0.1713  1.2037
 6211TIP3    H240049   5.098   5.202   2.344 -0.2426 -0.0429  0.3896
 6212TIP3   OH240050   4.719   4.934  14.581 -0.0806  0.5276  0.5847
 6212TIP3    H140051   4.800   4.982  14.570  0.6100 -0.4214  1.2828
 6212TIP3    H240052   4.736   4.848  14.544 -0.5551  0.1225  1.2656
 6213TIP3   OH240053   3.727   3.638   5.494 -0.0997 -0.5946  0.2805
 6213TIP3    H140054   3.809   3.632   5.543  0.7566  0.2903 -0.9943
 6213TIP3    H240055   3.738   3.576   5.422 -0.8344 -0.9522  0.4620
 6214TIP3   OH240056   6.669   4.856   2.711 -0.2298  0.1089  0.2611
 6214TIP3    H140057   6.761   4.854   2.737  0.0188  1.0245 -0.4742
 6214TIP3    H240058   6.672   4.875   2.617 -1.1912  1.1085  0.4212
 6215TIP3   OH240059   6.113   6.738   5.434 -0.7346 -0.2373  0.5252
 6215TIP3    H140060   6.172   6.727   5.360  0.5456  0.8294  1.3203
 6215TIP3    H240061   6.069   6.821   5.418 -0.5189 -0.0457  0.8839
 6216TIP3   OH240062   3.528   5.375   5.316 -0.1299 -0.5167  0.0428
 6216TIP3    H140063   3.551   5.296   5.364  0.9320 -1.0624 -1.3045
 6216TIP3    H240064   3.587   5.376   5.240 -0.3856  1.3468 -0.1994
 6217TIP3   OH240065   0.620   2.041   0.625  0.4949 -0.2123 -0.0761
 6217TIP3    H140066   0.631   1.948   0.646 -1.7645 -0.1300  1.9321
 6217TIP3    H240067   0.695   2.084   0.666  0.5055 -0.9643  0.7201
 6218TIP3   OH240068   2.164   5.503  15.263  0.7815  0.4028  0.6013
 6218TIP3    H140069   2.240   5.521  15.318 -0.8702  0.8393  2.9008
 6218TIP3    H240070   2.089   5.526  15.318 -1.0338 -0.1221 -1.5146
 6219TIP3   OH240071   5.625   3.761   1.355 -0.5901  0.3111 -0.0230
 6219TIP3    H140072   5.690   3.827   1.379 -1.1718  0.6040  0.7822
 6219TIP3    H240073   5.594   3.726   1.438 -1.1375 -0.1509 -0.4113
 6220TIP3   OH240074   4.797   3.888   4.629  1.2691 -0.6766  0.2302
 6220TIP3    H140075   4.850   3.809   4.640  2.0319 -0.0521  1.1866
 6220TIP3    H240076   4.751   3.897   4.712 -1.0821 -1.6986 -0.8784
 6221TIP3   OH240077   5.529   5.947  16.710 -0.7430 -0.0195  0.4155
 6221TIP3    H140078   5.624   5.934  16.714 -0.4202  2.0076  0.0312
 6221TIP3    H240079   5.511   6.014  16.776 -1.7063  0.6618 -0.5141
 6222TIP3   OH240080   0.470   3.168   1.869  0.1700  0.0769 -0.5748
 6222TIP3    H140081   0.554   3.122   1.861  0.6346  1.0190 -1.3302
 6222TIP3    H240082   0.427   3.126   1.944  1.8572  0.4110  0.6390
 6223TIP3   OH240083   6.284   2.274  12.022 -0.0409 -0.5367 -0.1544
 6223TIP3    H140084   6.344   2.342  12.051 -1.0089 -0.1974  1.1357
 6223TIP3    H240085   6.336   2.218  11.964  1.3011  0.1445  0.3751
 6224TIP3   OH240086   3.065   3.638   3.968 -0.1758  0.6505  0.2871
 6224TIP3    H140087   2.986   3.601   4.008 -0.2611 -0.8599 -1.1641
 6224TIP3    H240088   3.080   3.584   3.890  1.1687  2.1602 -0.5609
 6225TIP3   OH240089   1.020   4.908  11.748  0.0594  0.0758  0.0316
 6225TIP3    H140090   1.047   4.829  11.702  0.6982 -0.1641  0.7818
 6225TIP3    H240091   0.942   4.883  11.797  0.0648  0.0054  0.0037
 6226TIP3   OH240092   0.660   0.458   5.369 -0.2766 -0.4589  0.2847
 6226TIP3    H140093   0.599   0.449   5.442  0.6144  0.3268  1.1512
 6226TIP3    H240094   0.700   0.371   5.360 -0.9830 -0.7781  0.1844
 6227TIP3   OH240095   5.687   0.710   0.031 -0.2145 -0.0223 -0.1841
 6227TIP3    H140096   5.675   0.641   0.097 -3.3277  0.5154 -0.0307
 6227TIP3    H240097   5.668   0.791   0.077 -2.9761  0.3255 -1.7358
 6228TIP3   OH240098   2.936   3.092  14.233  0.1974 -0.2507 -0.8942
 6228TIP3    H140099   2.945   2.998  14.247 -0.0721  0.0254  1.4835
 6228TIP3    H240100   3.024   3.127  14.247 -0.1468  0.0724  0.6917
 6229TIP3   OH240101   3.968   0.380   1.469 -0.0607 -0.3577 -0.0477
 6229TIP3    H140102   3.990   0.366   1.377 -1.1744  0.4894 -0.4731
 6229TIP3    H240103   4.018   0.314   1.517  1.3134 -0.1791 -1.1646
 6230TIP3   OH240104   6.569   4.874   5.439  0.0953 -0.3402  0.1110
 6230TIP3    H140105   6.514   4.889   5.516  0.1192 -0.2652  0.1133
 6230TIP3    H240106   6.591   4.962   5.407 -1.8794 -0.3050 -1.3967
 6231TIP3   OH240107   1.678   2.993  10.567 -0.1866 -0.3093  0.3105
 6231TIP3    H140108   1.772   3.007  10.574  0.0743 -2.1455  1.0133
 6231TIP3    H240109   1.639   3.056  10.629  0.9207 -2.6558  3.6653
 6232TIP3   OH240110   4.097   3.446  14.724  0.1342 -0.3745 -0.8316
 6232TIP3    H140111   4.079   3.469  14.633 -3.3285  0.9626  0.0572
 6232TIP3    H240112   4.116   3.529  14.767 -0.3186 -0.7197  0.0706
 6233TIP3   OH240113   4.280   6.429  14.719 -0.2002  0.4320 -0.0490
 6233TIP3    H140114   4.216   6.500  14.715 -0.7682 -0.1366 -1.9211
 6233TIP3    H240115   4.229   6.352  14.742 -0.0544  0.1293 -0.7242
 6234TIP3   OH240116   1.273   3.460  13.832  0.3870  0.4297 -0.9477
 6234TIP3    H140117   1.352   3.436  13.784  1.0616  1.2613 -0.2880
 6234TIP3    H240118   1.298   3.453  13.924 -0.8650 -1.0855 -0.6826
 6235TIP3   OH240119   1.149   3.334   1.811  0.1469 -0.4076  0.4524
 6235TIP3    H140120   1.107   3.256   1.774 -2.0208 -0.1611  2.2211
 6235TIP3    H240121   1.092   3.407   1.786  0.6187  0.2338  1.2050
 6236TIP3   OH240122   0.552   4.867  17.276 -0.1990  0.4928  0.0899
 6236TIP3    H140123   0.583   4.955  17.301  1.9167 -0.3677  0.7018
 6236TIP3    H240124   0.516   4.831  17.357  1.8905 -0.3551  0.6988
 6237TIP3   OH240125   3.338   3.401  17.221  0.2025  0.1272 -0.1554
 6237TIP3    H140126   3.317   3.320  17.266  1.3052  0.7034  1.5177
 6237TIP3    H240127   3.282   3.467  17.263  0.5150  0.4982 -0.3125
 6238TIP3   OH240128   0.371   0.455  16.454 -0.8024  0.5395  0.0815
 6238TIP3    H140129   0.292   0.490  16.496 -0.7361 -0.8351  1.4297
 6238TIP3    H240130   0.338   0.394  16.388 -0.8815  0.1040  0.5198
 6239TIP3   OH240131   0.380   1.896  13.970 -0.1997 -0.0048  0.0333
 6239TIP3    H140132   0.475   1.884  13.964 -0.2998 -2.1627  1.6321
 6239TIP3    H240133   0.360   1.883  14.063 -2.0489  0.7698 -0.2097
 6240TIP3   OH240134   2.378   1.222   6.471 -0.5368  0.0933 -0.8660
 6240TIP3    H140135   2.391   1.287   6.402 -0.0204  0.8612 -0.0734
 6240TIP3    H240136   2.447   1.241   6.535 -0.5374 -1.0776 -0.4891
 6241TIP3   OH240137   0.599   3.524   0.402 -0.3246 -0.0589  0.3005
 6241TIP3    H140138   0.563   3.493   0.319  2.2973 -0.2479 -0.8346
 6241TIP3    H240139   0.686   3.486   0.407 -0.0048  0.8168  2.6507
 6242TIP3   OH240140   3.916   6.604   2.909 -0.1190  0.3250  0.3151
 6242TIP3    H140141   3.886   6.598   2.819 -0.2663  1.8801  0.2258
 6242TIP3    H240142   3.995   6.550   2.912  0.4955  1.0840 -1.0471
 6243TIP3   OH240143   1.536   1.820   1.061 -0.0472  0.3658 -0.3367
 6243TIP3    H140144   1.461   1.880   1.053 -0.3369  0.2853  1.3507
 6243TIP3    H240145   1.578   1.823   0.976 -0.5495  2.3357 -0.5756
 6244TIP3   OH240146   3.725   2.656  10.646  0.0934 -0.6469 -0.8987
 6244TIP3    H140147   3.811   2.617  10.660  0.4782 -0.0954 -1.6565
 6244TIP3    H240148   3.681   2.595  10.586 -0.2931 -1.2527 -0.0235
 6245TIP3   OH240149   3.323   5.910   3.366  0.5749  0.2915  0.9263
 6245TIP3    H140150   3.319   5.944   3.456 -1.8516 -0.4439  1.1422
 6245TIP3    H240151   3.405   5.860   3.363  1.0686  0.9492  2.4748
 6246TIP3   OH240152   0.170   0.027   3.910 -0.0630 -0.0062 -0.3406
 6246TIP3    H140153   0.193  -0.061   3.879  0.8470  0.0421  0.1569
 6246TIP3    H240154   0.203   0.030   4.000 -1.5920  0.2700  0.2507
 6247TIP3   OH240155   0.987   1.941   0.809 -0.0750  0.2239  0.0324
 6247TIP3    H140156   1.026   2.009   0.865  0.9145 -0.3578  0.0664
 6247TIP3    H240157   0.919   1.901   0.863  0.3901  0.1504  0.5733
 6248TIP3   OH240158   1.366   1.845  12.541 -0.4492 -0.0997 -0.4265
 6248TIP3    H140159   1.317   1.825  12.462 -0.7009 -0.5134 -0.1723
 6248TIP3    H240160   1.405   1.761  12.567  1.1433  0.3969 -1.1215
 6249TIP3   OH240161   5.041   4.729   2.840  0.2686  1.0838  0.6529
 6249TIP3    H140162   5.132   4.701   2.849  0.7986  1.8902 -1.4644
 6249TIP3    H240163   5.031   4.799   2.904  0.8335  0.3461  1.5699
 6250TIP3   OH240164   3.913   3.784   0.745 -0.1984 -0.2629 -0.2227
 6250TIP3    H140165   3.895   3.704   0.696  0.0129 -0.1447 -0.4946
 6250TIP3    H240166   3.829   3.830   0.747 -0.0107  0.1544 -1.2512
 6251TIP3   OH240167   5.387   1.103   1.078 -0.2023  0.2424 -0.2711
 6251TIP3    H140168   5.322   1.170   1.058  0.3817  1.0003  0.3251
 6251TIP3    H240169   5.352   1.023   1.038 -1.6130  0.5698  0.2548
 6252TIP3   OH240170   0.560   2.023  16.113 -0.3472  0.0736  0.5616
 6252TIP3    H140171   0.558   2.117  16.097  1.2904 -0.0456 -0.6824
 6252TIP3    H240172   0.469   1.995  16.102 -0.5036  1.1728 -1.5562
 6253TIP3   OH240173   5.020   1.106  14.139  0.1418  0.4943 -0.2486
 6253TIP3    H140174   4.989   1.031  14.189 -1.2987  0.0041 -1.7634
 6253TIP3    H240175   5.114   1.088  14.125 -0.1002 -0.8562 -0.3026
 6254TIP3   OH240176   1.233   5.180  15.162 -0.0377 -0.1531 -0.3922
 6254TIP3    H140177   1.163   5.217  15.108 -0.7109 -0.7632  0.0500
 6254TIP3    H240178   1.312   5.192  15.109 -0.3629  1.1528 -0.6119
 6255TIP3   OH240179   4.913   4.539  16.346 -0.1644 -0.0465  0.1602
 6255TIP3    H140180   4.975   4.512  16.279 -1.5316 -0.5213 -0.9802
 6255TIP3    H240181   4.923   4.634  16.352  1.0085 -0.1750  0.3823
 6256TIP3   OH240182   4.059   5.701   1.143  0.0628 -0.4700 -0.8114
 6256TIP3    H140183   3.967   5.721   1.161  0.0153  1.2449 -2.6725
 6256TIP3    H240184   4.065   5.606   1.152 -1.4098 -0.4369  1.2462
 6257TIP3   OH240185   4.392   2.731   2.804  0.6966 -0.2067 -0.0419
 6257TIP3    H140186   4.416   2.657   2.747 -2.3036 -0.7852 -0.7390
 6257TIP3    H240187   4.433   2.711   2.888  2.5037 -1.0371 -1.0690
 6258TIP3   OH240188   0.236   2.757   3.873  0.0075 -0.0120 -0.6880
 6258TIP3    H140189   0.305   2.750   3.807 -0.8419 -0.1196 -1.5777
 6258TIP3    H240190   0.265   2.827   3.931 -0.9855  2.7801 -3.3226
 6259TIP3   OH240191   4.338   4.456   2.748 -0.0257  0.7823 -0.8073
 6259TIP3    H140192   4.279   4.380   2.747 -1.0652  1.5416 -0.2980
 6259TIP3    H240193   4.394   4.442   2.824  0.4197  0.0696 -1.2652
 6260TIP3   OH240194   5.868   4.754  10.472  0.0063  0.5340  0.9426
 6260TIP3    H140195   5.925   4.728  10.544  0.4237 -1.6567 -0.0671
 6260TIP3    H240196   5.783   4.716  10.494  0.0469  0.1530  0.4575
 6261TIP3   OH240197   1.370   3.546   4.741  0.0239 -0.0901  0.3415
 6261TIP3    H140198   1.457   3.562   4.704 -0.1248 -0.9073 -0.4111
 6261TIP3    H240199   1.339   3.632   4.768  0.4751  0.4208 -0.7218
 6262TIP3   OH240200   6.289   4.623  12.791  0.1525 -0.6227  0.2985
 6262TIP3    H140201   6.355   4.689  12.771 -1.0993  0.4361 -0.5454
 6262TIP3    H240202   6.252   4.652  12.875 -0.5118 -0.1139 -0.1528
 6263TIP3   OH240203   6.488   5.138  14.959  0.3960  0.1174  0.4824
 6263TIP3    H140204   6.442   5.171  15.036  0.9592  1.7389  0.1658
 6263TIP3    H240205   6.560   5.086  14.994 -0.0536 -0.1532  1.0219
 6264TIP3   OH240206   1.714   2.288   4.095 -0.2312  0.3678  0.3643
 6264TIP3    H140207   1.776   2.354   4.064 -0.9012 -0.0864 -2.2372
 6264TIP3    H240208   1.728   2.213   4.037 -0.1576 -1.4684  2.6260
 6265TIP3   OH240209   0.421   5.270  13.861  0.8253  0.7143 -0.2218
 6265TIP3    H140210   0.433   5.343  13.800  0.5764  0.8363 -0.1277
 6265TIP3    H240211   0.341   5.227  13.830  0.1900  1.3094  0.5460
 6266TIP3   OH240212   2.640   5.109  14.526  0.7345 -0.1542  0.0976
 6266TIP3    H140213   2.723   5.118  14.573  0.4276 -2.2860  1.1686
 6266TIP3    H240214   2.573   5.126  14.592  0.3222 -1.1827 -0.0304
 6267TIP3   OH240215   3.850   3.957   3.096 -0.2759 -0.0543  0.3875
 6267TIP3    H140216   3.799   3.997   3.025  1.6281 -1.3299 -1.8518
 6267TIP3    H240217   3.852   3.864   3.074  1.7718 -0.2393  1.1772
 6268TIP3   OH240218   6.310   5.615   2.479 -0.3398  0.4318  0.0944
 6268TIP3    H140219   6.362   5.553   2.530 -0.8214 -0.5889 -0.6196
 6268TIP3    H240220   6.220   5.584   2.487 -0.3416 -0.2764 -2.0349
 6269TIP3   OH240221   1.989   2.898   3.674 -0.6786  0.1969 -0.4663
 6269TIP3    H140222   1.914   2.849   3.641  0.9016 -3.0779  0.4254
 6269TIP3    H240223   1.980   2.894   3.770 -0.2971  1.3915 -0.3625
 6270TIP3   OH240224   2.032   5.479  13.580 -0.8243 -0.0950 -0.3149
 6270TIP3    H140225   1.962   5.545  13.580  0.7127  1.6446 -2.0900
 6270TIP3    H240226   2.039   5.452  13.672 -0.8774  2.9567  0.6882
 6271TIP3   OH240227   0.686   0.744   4.920 -0.4718 -0.0045  0.4149
 6271TIP3    H140228   0.733   0.822   4.892  1.0479  0.2943  3.3873
 6271TIP3    H240229   0.674   0.756   5.014 -0.6332 -3.1339  0.8973
 6272TIP3   OH240230   6.642   0.013   4.241 -0.4049  0.1586  0.1346
 6272TIP3    H140231   6.640  -0.062   4.181 -1.7295  0.3960 -0.1493
 6272TIP3    H240232   6.597   0.083   4.193  0.5723  1.0592  0.5041
 6273TIP3   OH240233   6.677   2.423  13.309 -0.9684  0.1483  0.3498
 6273TIP3    H140234   6.741   2.354  13.326  0.4744  0.9871 -1.3608
 6273TIP3    H240235   6.615   2.417  13.381  0.4148 -1.4309  1.4666
 6274TIP3   OH240236   4.555   4.222  13.186 -0.1031  0.0570 -0.0399
 6274TIP3    H140237   4.616   4.159  13.224 -0.0958 -0.4264 -0.8393
 6274TIP3    H240238   4.572   4.219  13.092 -0.5569  0.7694 -0.1490
 6275TIP3   OH240239   4.200   0.616   0.679  1.3247  0.3569 -0.2565
 6275TIP3    H140240   4.278   0.588   0.632  0.1224  0.2879 -2.3187
 6275TIP3    H240241   4.157   0.678   0.621 -1.4469 -1.4640 -0.3876
 6276TIP3   OH240242   5.087   2.534   3.868 -0.6819 -0.5079  0.0731
 6276TIP3    H140243   5.077   2.439   3.858  1.1823 -0.5873 -1.8769
 6276TIP3    H240244   5.180   2.550   3.851 -1.1607  1.7824 -0.7850
 6277TIP3   OH240245   0.506   1.402  15.995  0.1060 -0.5788 -0.4052
 6277TIP3    H140246   0.556   1.412  15.914  0.4209 -1.1884 -0.2884
 6277TIP3    H240247   0.548   1.462  16.056 -0.6411  0.4987 -0.9181
 6278TIP3   OH240248   6.456   3.091   2.377  0.4014  0.4931 -0.1934
 6278TIP3    H140249   6.421   3.085   2.466 -0.4145  1.3523 -0.4382
 6278TIP3    H240250   6.413   3.168   2.339  0.7249  0.1396 -1.3368
 6279TIP3   OH240251   4.667   4.792   2.323 -0.2791 -0.6203  0.0038
 6279TIP3    H140252   4.722   4.822   2.251 -0.8304  0.9748  0.2034
 6279TIP3    H240253   4.708   4.827   2.402  0.7971 -3.0617  0.6132
 6280TIP3   OH240254   0.783   3.476   3.560 -0.4505  0.4209 -0.3970
 6280TIP3    H140255   0.702   3.439   3.526 -2.1805  2.9849  0.6409
 6280TIP3    H240256   0.755   3.548   3.617  2.4856 -0.0303  1.8644
 6281TIP3   OH240257   6.680   1.833  16.676 -0.3744  0.2355 -0.1683
 6281TIP3    H140258   6.741   1.865  16.610  0.8924 -1.5673  0.0660
 6281TIP3    H240259   6.698   1.740  16.683 -1.7229  0.0380  1.4452
 6282TIP3   OH240260   4.196   6.539   0.298  0.0617 -0.1777 -0.1207
 6282TIP3    H140261   4.153   6.483   0.363  0.2721  0.8091  0.9008
 6282TIP3    H240262   4.123   6.580   0.250 -0.0945 -0.9151 -0.5357
 6283TIP3   OH240263   5.046   3.634  14.398  0.2852  0.5338  0.2946
 6283TIP3    H140264   4.966   3.585  14.417  0.0769  0.0498 -1.6019
 6283TIP3    H240265   5.116   3.583  14.438 -0.0020 -1.0176 -1.0772
 6284TIP3   OH240266   2.458   5.105   4.439 -0.5886  0.2390 -0.3118
 6284TIP3    H140267   2.529   5.061   4.484  0.0055  2.7121  1.3551
 6284TIP3    H240268   2.496   5.131   4.355  0.4527  1.3626  0.4781
 6285TIP3   OH240269   3.795   1.194   3.763  0.2540  0.1396 -0.0704
 6285TIP3    H140270   3.818   1.282   3.792 -0.9928  0.5763 -0.3469
 6285TIP3    H240271   3.722   1.168   3.819 -0.4339 -0.0643 -1.0214
 6286TIP3   OH240272   5.138   1.131  13.364 -0.0763  0.0045 -0.5925
 6286TIP3    H140273   5.167   1.044  13.389  1.4050  0.0133 -2.0630
 6286TIP3    H240274   5.081   1.117  13.288  0.0224  0.2905 -0.7239
 6287TIP3   OH240275   4.049   6.215   3.345 -0.2295 -0.1465 -0.5162
 6287TIP3    H140276   3.986   6.286   3.329  0.4759  1.0996  1.7604
 6287TIP3    H240277   4.135   6.255   3.330  0.2257 -0.1639  1.7034
 6288TIP3   OH240278   2.988   4.475   3.132  0.3812  0.2577 -0.6774
 6288TIP3    H140279   2.991   4.555   3.184 -0.1180  0.1104 -0.4141
 6288TIP3    H240280   2.952   4.409   3.191  0.9385 -0.2022 -0.8417
 6289TIP3   OH240281   1.349   4.677   3.499 -0.3164 -0.1206  0.2371
 6289TIP3    H140282   1.341   4.770   3.517 -0.7524 -0.0159 -0.4903
 6289TIP3    H240283   1.389   4.641   3.579  0.1963  0.7357  0.3847
 6290TIP3   OH240284   5.900   5.777   1.534 -0.1399  0.3641 -0.1895
 6290TIP3    H140285   5.994   5.783   1.514 -0.5246  1.6816 -1.8413
 6290TIP3    H240286   5.893   5.702   1.593  1.9765  0.3901  0.1868
 6291TIP3   OH240287   3.090   6.270   4.483  0.1468  0.3653 -0.2004
 6291TIP3    H140288   3.003   6.235   4.502 -0.2469  1.5893  0.3326
 6291TIP3    H240289   3.143   6.246   4.558  0.1214  0.1398 -0.2527
 6292TIP3   OH240290   1.402   1.842  11.550  0.1855 -0.0915  0.3683
 6292TIP3    H140291   1.382   1.791  11.472  0.2332  1.0230 -0.3867
 6292TIP3    H240292   1.317   1.871  11.583  0.2256  0.3440  0.1000
 6293TIP3   OH240293   4.852   1.332   1.279  0.4859  0.4875 -0.1405
 6293TIP3    H140294   4.900   1.253   1.254  0.3704  0.9720 -2.0553
 6293TIP3    H240295   4.794   1.304   1.349 -0.1662 -1.3371 -1.3515
 6294TIP3   OH240296   2.148   1.418   6.468 -0.5177  0.0550 -0.5196
 6294TIP3    H140297   2.221   1.479   6.475  0.0217 -0.5455 -0.7506
 6294TIP3    H240298   2.175   1.342   6.521 -1.2486  0.0832 -0.0883
 6295TIP3   OH240299   5.554   1.007  11.830 -0.0514  0.0803  0.2965
 6295TIP3    H140300   5.500   1.041  11.901 -0.8561  0.2331 -0.3632
 6295TIP3    H240301   5.495   0.952  11.779  1.0110 -1.6320  0.8397
 6296TIP3   OH240302   0.142   1.318   4.305 -0.3021 -0.3244 -0.4421
 6296TIP3    H140303   0.109   1.384   4.365  1.2331  0.7732 -0.7393
 6296TIP3    H240304   0.110   1.235   4.340 -0.8929  0.4382  0.8751
 6297TIP3   OH240305   4.806   4.110   4.428  0.2413 -0.3634  0.6041
 6297TIP3    H140306   4.724   4.060   4.421  0.8898 -1.1952 -2.3715
 6297TIP3    H240307   4.867   4.048   4.469  0.2987 -1.0892 -0.5208
 6298TIP3   OH240308   0.628   0.833  17.289  0.5952  0.5723  0.3012
 6298TIP3    H140309   0.642   0.839  17.195  0.5425 -0.3366  0.2295
 6298TIP3    H240310   0.666   0.914  17.324  2.7558 -0.1468 -0.2513
 6299TIP3   OH240311   5.864   2.534   0.452  1.1388  0.1429 -0.2257
 6299TIP3    H140312   5.871   2.571   0.539  0.5879 -1.2330  0.4396
 6299TIP3    H240313   5.921   2.456   0.454 -0.2288 -0.9048 -0.4916
 6300TIP3   OH240314   2.397   0.633   6.379 -0.0834 -0.0360 -0.1649
 6300TIP3    H140315   2.351   0.691   6.439 -0.3407  0.5334 -0.8985
 6300TIP3    H240316   2.476   0.606   6.427 -0.9313 -0.6556  0.9254
 6301TIP3   OH240317   6.619   2.296   4.776 -0.0115 -0.1344  0.0438
 6301TIP3    H140318   6.525   2.314   4.773  0.0036 -0.0527 -2.5777
 6301TIP3    H240319   6.636   2.247   4.696  1.9804 -1.3540  1.1312
 6302TIP3   OH240320   0.474   4.134  10.825  0.5432  0.8647  0.4654
 6302TIP3    H140321   0.423   4.094  10.755 -0.5131  1.7326  0.6989
 6302TIP3    H240322   0.564   4.107  10.809  0.1582  0.1525 -0.5759
 6303TIP3   OH240323   4.440   2.734   3.367  0.4737 -0.2074 -0.5327
 6303TIP3    H140324   4.476   2.654   3.330  1.6413  0.6655 -1.3674
 6303TIP3    H240325   4.516   2.780   3.404 -0.2250  0.3484  0.2523
 6304TIP3   OH240326   4.561   5.198   3.320 -0.0409  0.1429  0.1114
 6304TIP3    H140327   4.522   5.248   3.248 -0.8693 -0.5006  0.1005
 6304TIP3    H240328   4.566   5.108   3.287  0.0819 -0.0584  0.6622
 6305TIP3   OH240329   2.080   3.646   2.896 -1.0399  0.4584 -0.0131
 6305TIP3    H140330   2.064   3.638   2.802  1.0708 -0.3883 -0.3654
 6305TIP3    H240331   2.119   3.561   2.920 -1.5194  0.6804  1.6153
 6306TIP3   OH240332   3.769   1.442  11.204  0.4769  0.0711 -0.6463
 6306TIP3    H140333   3.790   1.535  11.195  2.3900  0.2030  2.9977
 6306TIP3    H240334   3.806   1.418  11.290  0.3045 -4.1300 -1.5454
 6307TIP3   OH240335   3.575   3.986  13.702 -0.0402 -0.0082  0.1619
 6307TIP3    H140336   3.553   4.046  13.773  0.4563  0.0136  0.2972
 6307TIP3    H240337   3.490   3.952  13.673 -0.3206  0.6821  0.1460
 6308TIP3   OH240338   4.867   2.299  15.983  0.0689 -0.3878 -0.2046
 6308TIP3    H140339   4.793   2.354  16.006  0.4484 -0.2621  0.7363
 6308TIP3    H240340   4.876   2.310  15.888  0.2928  1.3850 -0.0092
 6309TIP3   OH240341   5.254   4.901  10.619 -0.0782  0.0718 -0.0417
 6309TIP3    H140342   5.291   4.964  10.681  0.9896 -0.5868  0.0274
 6309TIP3    H240343   5.220   4.830  10.674 -1.0844  0.4726 -0.1281
 6310TIP3   OH240344   6.605   6.272   5.957 -0.0463 -0.1283  0.3958
 6310TIP3    H140345   6.522   6.312   5.930 -0.1929 -0.7832 -0.1382
 6310TIP3    H240346   6.644   6.337   6.016  0.4320  1.4716 -1.5846
 6311TIP3   OH240347   1.720   1.742   3.088 -0.3477 -0.3610  0.2230
 6311TIP3    H140348   1.701   1.813   3.148 -0.8300 -1.1054  0.9691
 6311TIP3    H240349   1.708   1.662   3.139  0.8639 -0.9785 -0.3918
 6312TIP3   OH240350   2.935   1.095   0.937 -0.1104 -0.4227 -0.2117
 6312TIP3    H140351   2.905   1.069   0.850 -0.3779  0.3405 -0.3520
 6312TIP3    H240352   2.902   1.183   0.949 -0.1991 -0.5734  0.7353
 6313TIP3   OH240353   6.243   6.520  14.716 -0.1432  0.9828  0.0739
 6313TIP3    H140354   6.253   6.601  14.667 -0.0538  0.1225 -1.3683
 6313TIP3    H240355   6.150   6.501  14.713  0.0174  0.2688 -0.8919
 6314TIP3   OH240356   1.458   6.238   5.691 -0.5343  0.1006 -0.0777
 6314TIP3    H140357   1.407   6.240   5.610  0.0779  0.3987 -0.4670
 6314TIP3    H240358   1.425   6.312   5.742 -1.8378 -0.8667  0.5370
 6315TIP3   OH240359   5.338   2.407  13.513  0.3394  0.2190  0.2117
 6315TIP3    H140360   5.302   2.484  13.558  2.0694  1.0075  0.3240
 6315TIP3    H240361   5.370   2.441  13.430  1.5415 -0.2762  0.4522
 6316TIP3   OH240362   0.622   6.270  10.704  0.0127  0.2957  0.1679
 6316TIP3    H140363   0.545   6.213  10.704 -0.1831  0.5536 -0.2786
 6316TIP3    H240364   0.696   6.210  10.699 -0.1488  0.0357  0.8184
 6317TIP3   OH240365   5.219   0.222   1.894 -0.2613 -0.3737 -0.4226
 6317TIP3    H140366   5.188   0.149   1.840  0.7559 -1.5312  0.4816
 6317TIP3    H240367   5.309   0.198   1.916  0.4707  1.6997 -0.9637
 6318TIP3   OH240368   3.077   2.299   1.061 -0.0842  0.1593  0.4080
 6318TIP3    H140369   3.083   2.210   1.096  0.4971 -0.3516 -0.9572
 6318TIP3    H240370   3.079   2.355   1.139 -1.6945 -1.0451  1.3661
 6319TIP3   OH240371   6.575   0.116   0.377  0.1796 -1.0421 -0.1139
 6319TIP3    H140372   6.511   0.109   0.306 -1.8366 -0.2429  1.5485
 6319TIP3    H240373   6.657   0.140   0.332 -1.1540  0.0780 -2.1113
 6320TIP3   OH240374   3.284   4.685   1.733 -0.3005  0.0421 -0.2103
 6320TIP3    H140375   3.323   4.720   1.813  0.1965  0.7314 -0.7436
 6320TIP3    H240376   3.317   4.595   1.728 -0.3170 -0.0013  0.3330
 6321TIP3   OH240377   5.378   6.417  12.419 -0.2169 -0.3627  0.0609
 6321TIP3    H140378   5.362   6.334  12.375  1.8712 -2.1509  2.3169
 6321TIP3    H240379   5.430   6.468  12.356  0.3269 -1.6764 -0.5967
 6322TIP3   OH240380   6.734   4.669   1.789  0.0214  0.0417 -0.0325
 6322TIP3    H140381   6.687   4.736   1.739  0.6908  0.0299 -0.7034
 6322TIP3    H240382   6.680   4.655   1.867 -0.8015  0.4177 -0.5141
 6323TIP3   OH240383   1.812   3.151  13.512 -0.7007 -0.0341 -0.2256
 6323TIP3    H140384   1.770   3.237  13.508 -1.8754 -0.1741  4.1814
 6323TIP3    H240385   1.765   3.104  13.581  2.0357 -2.9989 -0.1329
 6324TIP3   OH240386   2.935   2.328  14.799  0.6414  0.3419 -0.3979
 6324TIP3    H140387   2.910   2.410  14.840 -0.4390 -0.1128 -0.1118
 6324TIP3    H240388   3.022   2.345  14.762 -0.1416  2.0351 -1.5904
 6325TIP3   OH240389   5.450   4.015   0.552  0.2387 -0.1292 -0.3011
 6325TIP3    H140390   5.363   3.978   0.565 -0.0089  0.2951 -0.7268
 6325TIP3    H240391   5.462   4.076   0.625 -0.2010  0.5036 -0.7501
 6326TIP3   OH240392   3.789   2.408   1.214 -1.3405 -0.1556 -0.1301
 6326TIP3    H140393   3.878   2.438   1.232 -0.5636 -1.6472 -1.2454
 6326TIP3    H240394   3.750   2.480   1.163 -0.0307 -0.3357 -1.4692
 6327TIP3   OH240395   6.444   4.382  14.437  0.0145 -0.0152 -0.0176
 6327TIP3    H140396   6.536   4.409  14.439  0.0926 -0.3058  0.5339
 6327TIP3    H240397   6.401   4.436  14.503  0.1050 -0.9722  0.8445
 6328TIP3   OH240398   0.084   3.702  15.945  0.2101  0.3674  0.1458
 6328TIP3    H140399   0.128   3.681  16.027  0.5873 -2.8955 -0.7374
 6328TIP3    H240400  -0.009   3.683  15.963  0.5117 -2.1053 -0.5669
 6329TIP3   OH240401   4.883   4.569   4.528 -0.0751  0.4181 -0.3086
 6329TIP3    H140402   4.928   4.588   4.446  1.4192  0.5170  0.5014
 6329TIP3    H240403   4.918   4.484   4.556 -1.2210 -0.0390 -0.1950
 6330TIP3   OH240404   4.765   5.976   5.039  0.1440 -0.2429  0.5038
 6330TIP3    H140405   4.808   6.062   5.043 -1.2880  0.5954 -0.9104
 6330TIP3    H240406   4.754   5.950   5.130  0.3589  1.1998  0.9671
 6331TIP3   OH240407   0.648   0.356  13.995 -0.6932 -0.5376  0.0607
 6331TIP3    H140408   0.666   0.346  14.089 -0.8528 -0.0912  0.1419
 6331TIP3    H240409   0.672   0.272  13.957  2.2550  0.2265  0.0466
 6332TIP3   OH240410   2.207   4.942  14.925  0.3892  0.7490 -0.0775
 6332TIP3    H140411   2.284   4.926  14.979 -0.2297  1.7248  1.1398
 6332TIP3    H240412   2.133   4.930  14.985 -0.3028  2.3007 -0.5779
 6333TIP3   OH240413   2.207   2.454  16.610 -0.6015  0.0455 -0.1512
 6333TIP3    H140414   2.115   2.476  16.597 -0.6591 -0.5760 -0.8372
 6333TIP3    H240415   2.254   2.535  16.590 -0.9311  0.0755 -0.8040
 6334TIP3   OH240416   1.629   5.290  10.896  0.2587 -0.0666  0.3441
 6334TIP3    H140417   1.580   5.208  10.888  0.2238  0.1118 -2.0817
 6334TIP3    H240418   1.721   5.263  10.896  0.2616 -0.1445 -0.8616
 6335TIP3   OH240419   1.107   3.493   3.467  0.4727 -0.1176  0.1926
 6335TIP3    H140420   1.110   3.410   3.421  1.8796 -0.0215  0.0797
 6335TIP3    H240421   1.015   3.502   3.495  0.1450 -1.3245 -0.4512
 6336TIP3   OH240422   6.351   2.277   6.026  0.1012 -0.0473  0.1499
 6336TIP3    H140423   6.383   2.246   5.941  0.6962  0.2051  0.2807
 6336TIP3    H240424   6.429   2.290   6.079 -0.1551  1.2630  0.2448
 6337TIP3   OH240425   3.961   1.646  16.648  0.2662  0.0832  0.1929
 6337TIP3    H140426   3.888   1.694  16.609  0.2595  0.4045  0.5918
 6337TIP3    H240427   3.920   1.573  16.695  0.0709  1.0305  1.5563
 6338TIP3   OH240428   3.823   3.347   4.342 -0.4627  0.2598 -0.1245
 6338TIP3    H140429   3.750   3.286   4.336 -1.2917  1.3448 -2.3279
 6338TIP3    H240430   3.887   3.313   4.278 -0.7394  1.3960 -1.0357
 6339TIP3   OH240431   0.682   3.956  13.118 -0.3264  0.2173 -0.3973
 6339TIP3    H140432   0.701   4.004  13.199 -2.2563  1.9153 -0.8582
 6339TIP3    H240433   0.760   3.966  13.064  0.9654 -0.8760  1.1614
 6340TIP3   OH240434   0.568   5.673  13.206  0.0975  1.2698  0.3745
 6340TIP3    H140435   0.587   5.589  13.163 -0.8472  0.6753  1.0776
 6340TIP3    H240436   0.630   5.734  13.167  0.9299  0.2053 -0.0254
 6341TIP3   OH240437   4.732   3.582  12.985 -0.7799 -0.1068  0.3074
 6341TIP3    H140438   4.734   3.669  12.945 -1.6736 -0.6071 -0.9069
 6341TIP3    H240439   4.654   3.583  13.040  0.8605  0.8387  2.7880
 6342TIP3   OH240440   5.332   3.650  12.734 -0.5496 -0.1924  0.5039
 6342TIP3    H140441   5.287   3.707  12.796 -1.6431 -0.6023  0.1072
 6342TIP3    H240442   5.269   3.581  12.714  0.1868 -0.6804 -0.2185
 6343TIP3   OH240443   5.810   0.986   2.850 -0.5326 -0.0726 -0.2872
 6343TIP3    H140444   5.862   1.063   2.874  0.4995 -0.6854 -0.5288
 6343TIP3    H240445   5.829   0.922   2.919 -0.1358 -0.6726 -0.9484
 6344TIP3   OH240446   3.204   4.779   2.455 -0.4826 -0.1224  0.0892
 6344TIP3    H140447   3.124   4.745   2.494 -0.8205  0.0532 -0.4417
 6344TIP3    H240448   3.238   4.706   2.402 -1.1499  0.3039 -0.9631
 6345TIP3   OH240449   3.968   3.890  14.254 -0.2656 -0.6084  0.1379
 6345TIP3    H140450   3.956   3.984  14.268  0.9195 -0.0813 -1.8742
 6345TIP3    H240451   4.041   3.866  14.312 -2.2826 -0.9680  2.6922
 6346TIP3   OH240452   2.387   3.301  16.969  0.4989  0.0084 -0.1056
 6346TIP3    H140453   2.477   3.327  16.948  0.4546  0.2010 -0.0560
 6346TIP3    H240454   2.350   3.377  17.013  0.4269 -0.2057  0.2028
 6347TIP3   OH240455   4.517   3.612   0.423 -0.4596 -0.1769 -1.3998
 6347TIP3    H140456   4.470   3.557   0.485 -1.9351  0.6932 -1.6792
 6347TIP3    H240457   4.609   3.587   0.432 -0.9455 -1.8510 -0.7219
 6348TIP3   OH240458   2.531   4.516   5.764  0.0905 -0.0060  0.3099
 6348TIP3    H140459   2.612   4.522   5.713 -1.0652  0.7076 -1.5336
 6348TIP3    H240460   2.548   4.570   5.841  0.7589  1.6700 -0.9437
 6349TIP3   OH240461   3.443   4.846   5.226  0.4259 -0.0512 -0.1559
 6349TIP3    H140462   3.396   4.879   5.150 -0.3460 -1.6688 -0.4261
 6349TIP3    H240463   3.375   4.806   5.281  1.2895 -1.1536  0.1463
 6350TIP3   OH240464   2.729   0.397  13.027 -0.1815 -0.0318 -0.1464
 6350TIP3    H140465   2.802   0.335  13.025 -1.1511 -1.2653  0.5633
 6350TIP3    H240466   2.704   0.408  12.936  1.0793  0.6617 -0.4251
 6351TIP3   OH240467   3.449   5.086  13.089 -0.1750  0.4941 -0.3317
 6351TIP3    H140468   3.406   5.121  13.011  1.0518 -0.3410 -1.4271
 6351TIP3    H240469   3.397   5.010  13.113 -0.8639  1.0564  0.0030
 6352TIP3   OH240470   2.878   5.311   5.359 -0.9623 -0.6474  0.0273
 6352TIP3    H140471   2.785   5.325   5.342 -0.8341  0.4090  0.1351
 6352TIP3    H240472   2.899   5.231   5.311 -1.4155  0.3080 -1.8819
 6353TIP3   OH240473   4.529   2.721   3.031  0.2989 -0.5824  0.5425
 6353TIP3    H140474   4.594   2.698   3.098 -0.5444  0.5569  1.8281
 6353TIP3    H240475   4.485   2.798   3.067  1.5187  1.7332 -2.4750
 6354TIP3   OH240476   2.322   0.775   2.115  0.4408 -0.4414 -0.1295
 6354TIP3    H140477   2.406   0.731   2.103  0.7310 -0.8413  2.6896
 6354TIP3    H240478   2.281   0.773   2.029  2.9113 -1.0677 -1.3720
 6355TIP3   OH240479   1.735   4.514   0.814  0.1136  0.3510  0.4828
 6355TIP3    H140480   1.669   4.582   0.796 -0.9090 -0.7130  0.1262
 6355TIP3    H240481   1.772   4.539   0.899 -0.6545  1.0429  0.6227
 6356TIP3   OH240482   3.488   3.329  13.513 -0.2379 -0.2719  0.3696
 6356TIP3    H140483   3.521   3.248  13.553  0.3039 -0.9510 -1.3564
 6356TIP3    H240484   3.402   3.304  13.479  0.2070 -0.3367 -0.7477
 6357TIP3   OH240485   5.529   5.299  16.213  0.0559 -0.7808  0.2116
 6357TIP3    H140486   5.438   5.328  16.218 -0.4267 -2.2215  0.2898
 6357TIP3    H240487   5.580   5.378  16.228 -1.1491  0.4283 -1.6966
 6358TIP3   OH240488   5.841   5.637   0.610  0.2962 -0.5573 -0.0189
 6358TIP3    H140489   5.770   5.654   0.672 -1.0844 -2.3504 -1.0511
 6358TIP3    H240490   5.919   5.673   0.653 -1.1183  1.0221  1.3558
 6359TIP3   OH240491   5.318   2.747   3.249  0.1347  0.2773  0.0186
 6359TIP3    H140492   5.355   2.817   3.196 -0.0870  0.5556  0.2263
 6359TIP3    H240493   5.359   2.759   3.335 -0.0336  0.2588  0.1010
 6360TIP3   OH240494   6.455   0.592   5.294 -0.1669  0.7932  0.1359
 6360TIP3    H140495   6.418   0.671   5.332 -1.2138  1.1812 -1.5431
 6360TIP3    H240496   6.395   0.570   5.222  1.0747 -0.4930 -0.5691
 6361TIP3   OH240497   3.729   5.351   5.105  0.4423  0.2016  0.2844
 6361TIP3    H140498   3.798   5.287   5.119 -1.2046 -1.7385 -0.1056
 6361TIP3    H240499   3.770   5.421   5.054  2.0162 -1.0361 -0.1983
 6362TIP3   OH240500   2.293   0.586   1.608  0.1250  0.4981 -0.1175
 6362TIP3    H140501   2.211   0.586   1.558 -1.1144  1.8176  1.7612
 6362TIP3    H240502   2.275   0.530   1.683  0.4108  1.9513  1.0725
 6363TIP3   OH240503   2.436   6.141   1.097 -0.4506  0.2618 -0.4734
 6363TIP3    H140504   2.373   6.087   1.049 -1.4414  0.9144  0.0644
 6363TIP3    H240505   2.522   6.111   1.066 -1.0410  0.3177 -2.2773
 6364TIP3   OH240506   5.353   2.661  15.689  0.0395  0.4101 -0.1806
 6364TIP3    H140507   5.434   2.702  15.719  0.7883 -0.9667 -0.2482
 6364TIP3    H240508   5.326   2.604  15.761  0.9590 -1.6671 -1.4068
 6365TIP3   OH240509   6.230   3.721   4.292 -0.5266 -0.2667  0.3028
 6365TIP3    H140510   6.182   3.673   4.359  0.3488 -2.3841 -0.4836
 6365TIP3    H240511   6.304   3.664   4.271  0.4902  1.3881 -0.8510
 6366TIP3   OH240512   4.677   3.914  13.194  0.3983  0.6182  0.1527
 6366TIP3    H140513   4.768   3.940  13.181  0.6270  0.0494  0.5766
 6366TIP3    H240514   4.637   3.921  13.108  0.9805  0.3447 -0.1440
 6367TIP3   OH240515   3.513   5.062   3.686 -0.4505 -0.3180  0.3662
 6367TIP3    H140516   3.498   5.143   3.734  1.0929 -0.0904  0.5170
 6367TIP3    H240517   3.458   5.071   3.608  0.7672  1.5723 -0.3677
 6368TIP3   OH240518   1.504   3.424  12.524 -0.6477 -0.3875 -0.0026
 6368TIP3    H140519   1.529   3.424  12.616  3.6398 -1.2589 -0.9682
 6368TIP3    H240520   1.511   3.516  12.498  1.0634 -0.5212 -0.0795
 6369TIP3   OH240521   4.630   3.581   0.817 -0.2027  0.0591  0.2136
 6369TIP3    H140522   4.696   3.512   0.806  0.4244  0.6308  0.3139
 6369TIP3    H240523   4.651   3.645   0.749 -1.0922 -0.0829 -0.2084
 6370TIP3   OH240524   0.060   4.792  12.114  0.0213 -0.7316 -0.0722
 6370TIP3    H140525   0.139   4.840  12.090  0.3108 -0.4795  1.3336
 6370TIP3    H240526   0.048   4.728  12.043  0.1137  0.8146 -1.5402
 6371TIP3   OH240527   0.876   4.453   6.125  0.1948  0.3988  0.3705
 6371TIP3    H140528   0.805   4.448   6.189  0.5677 -1.1343  0.6884
 6371TIP3    H240529   0.920   4.535   6.146 -0.1603  0.2958  1.5874
 6372TIP3   OH240530   4.585   1.292  14.638  0.0153 -0.3010  0.2124
 6372TIP3    H140531   4.651   1.225  14.620  1.0779  0.3865  1.4055
 6372TIP3    H240532   4.634   1.373  14.644 -1.2369  0.5898 -0.9930
 6373TIP3   OH240533   1.205   4.219  13.652 -0.3130 -0.1964  0.4152
 6373TIP3    H140534   1.137   4.287  13.654 -0.6494 -0.4195 -1.4310
 6373TIP3    H240535   1.286   4.265  13.674 -0.5057  0.8767 -0.9903
 6374TIP3   OH240536   3.470   5.742  15.609 -0.2498 -0.3126  0.7714
 6374TIP3    H140537   3.464   5.671  15.546 -1.0653  0.0617  0.4184
 6374TIP3    H240538   3.429   5.817  15.566  2.0873  0.8906  0.4419
 6375TIP3   OH240539   5.932   0.888   3.066 -0.6314 -0.0310 -0.5001
 6375TIP3    H140540   6.019   0.919   3.088  0.0397 -1.4776 -0.9863
 6375TIP3    H240541   5.900   0.848   3.146 -0.3473 -0.5810 -0.6583
 6376TIP3   OH240542   3.945   0.975   0.831 -0.1611 -0.3040  0.2055
 6376TIP3    H140543   3.909   0.892   0.800 -0.4367 -0.1928  0.2188
 6376TIP3    H240544   4.038   0.971   0.810 -0.4012 -0.0859 -0.9813
 6377TIP3   OH240545   1.224   5.941   3.444 -0.3893 -0.5427  0.4185
 6377TIP3    H140546   1.150   5.920   3.501 -0.5005  0.7289  0.7711
 6377TIP3    H240547   1.184   5.957   3.358 -0.4197 -0.6648  0.4089
 6378TIP3   OH240548   0.422   3.781   3.753 -1.1296  0.5403  0.0192
 6378TIP3    H140549   0.382   3.774   3.666 -2.7014 -0.1162  0.7573
 6378TIP3    H240550   0.347   3.783   3.814 -0.0479  0.1673  1.4065
 6379TIP3   OH240551   2.746   1.310   5.957  0.3069  0.2823  0.1893
 6379TIP3    H140552   2.809   1.334   6.024  0.6055 -0.9017  0.3654
 6379TIP3    H240553   2.790   1.330   5.874 -0.5274  2.8939  0.2847
 6380TIP3   OH240554   4.965   4.888   6.300  0.0143 -0.1117  0.2345
 6380TIP3    H140555   5.002   4.975   6.312 -0.0309 -0.2373  1.4010
 6380TIP3    H240556   5.009   4.834   6.367  2.8450 -1.8929 -2.7692
 6381TIP3   OH240557   2.440   0.164  11.524  0.5767 -0.6735 -0.4207
 6381TIP3    H140558   2.518   0.115  11.500  1.0666 -0.1733  0.1191
 6381TIP3    H240559   2.408   0.122  11.604  0.8687 -0.2647 -0.0833
 6382TIP3   OH240560   6.620   6.308   0.529  0.1389  0.8818 -0.3023
 6382TIP3    H140561   6.620   6.330   0.436  0.5888  0.5475 -0.3881
 6382TIP3    H240562   6.678   6.374   0.568 -0.3097  1.2243 -0.2026
 6383TIP3   OH240563   3.018   4.611  12.428 -0.0145  0.1857  0.0187
 6383TIP3    H140564   3.093   4.579  12.478  0.4764  1.3149  0.0372
 6383TIP3    H240565   2.994   4.693  12.470 -1.0853 -0.0103 -0.1712
 6384TIP3   OH240566   6.296   4.260  15.587  0.5047 -0.3189  0.3703
 6384TIP3    H140567   6.288   4.347  15.625  1.3657  0.0255 -0.2264
 6384TIP3    H240568   6.241   4.262  15.509  1.1186 -0.0666 -0.0588
 6385TIP3   OH240569   3.346   3.678   0.255  0.1382 -0.2561 -0.6646
 6385TIP3    H140570   3.392   3.605   0.214  1.0067 -0.6366  0.8914
 6385TIP3    H240571   3.300   3.638   0.329 -1.9898  0.2814 -1.6212
 6386TIP3   OH240572   2.402   1.881   4.063 -0.2328 -0.2902  0.1674
 6386TIP3    H140573   2.425   1.827   3.988  0.2922  0.8129 -0.4780
 6386TIP3    H240574   2.443   1.966   4.046  0.1498 -0.1025  1.8348
 6387TIP3   OH240575   2.231   3.175   0.128 -0.2037 -0.0386  0.4879
 6387TIP3    H140576   2.284   3.124   0.066  0.4841 -0.2803  1.2579
 6387TIP3    H240577   2.290   3.244   0.158 -1.0406  1.0778 -0.3414
 6388TIP3   OH240578   2.232   6.565   1.861 -0.3638 -0.3097 -0.4191
 6388TIP3    H140579   2.138   6.561   1.878 -0.5080  0.8983 -0.8194
 6388TIP3    H240580   2.254   6.658   1.870  0.4566 -0.3094 -2.0372
 6389TIP3   OH240581   0.755   1.492   3.624  0.1930 -0.2802  0.2785
 6389TIP3    H140582   0.827   1.461   3.569  0.7224  1.8828 -0.3552
 6389TIP3    H240583   0.756   1.435   3.701 -0.3434 -3.1916 -1.7214
 6390TIP3   OH240584   1.984   5.153   2.661  0.2701 -0.8741  0.2094
 6390TIP3    H140585   2.007   5.245   2.672  0.6081 -0.7884 -0.9887
 6390TIP3    H240586   2.063   5.105   2.688 -0.2009 -0.8700  1.6502
 6391TIP3   OH240587   3.522   6.594  14.952  0.2023 -0.0048  0.0097
 6391TIP3    H140588   3.617   6.587  14.966  0.6758  2.8405 -1.0933
 6391TIP3    H240589   3.507   6.557  14.865 -0.1944 -2.7794  1.1529
 6392TIP3   OH240590   5.540   4.335   1.023  0.1360 -0.1048  0.0041
 6392TIP3    H140591   5.549   4.412   0.966  1.3218 -0.2853 -0.0746
 6392TIP3    H240592   5.502   4.268   0.966  1.5393 -0.3589 -0.6656
 6393TIP3   OH240593   6.664   2.997  13.261 -0.2438  0.0748  0.1123
 6393TIP3    H140594   6.671   3.033  13.350 -0.5625  0.1341  0.1129
 6393TIP3    H240595   6.595   3.047  13.220  0.6271  0.7834 -0.5337
 6394TIP3   OH240596   4.292   2.188  12.182  0.5660  0.2243 -0.2190
 6394TIP3    H140597   4.295   2.093  12.194  1.2840  0.2033 -0.4749
 6394TIP3    H240598   4.292   2.200  12.087 -2.8660  0.4379 -0.3162
 6395TIP3   OH240599   6.672   0.614   1.071 -0.3583  0.0880 -0.2098
 6395TIP3    H140600   6.727   0.538   1.051 -1.8926 -1.4976  1.2490
 6395TIP3    H240601   6.708   0.684   1.017  1.7219 -1.4119 -0.9127
 6396TIP3   OH240602   3.847   6.230   5.560  0.1330 -0.1040 -0.0615
 6396TIP3    H140603   3.831   6.231   5.654  0.5971 -1.6706  0.0684
 6396TIP3    H240604   3.923   6.287   5.548 -0.4983  0.8626  0.3628
 6397TIP3   OH240605   1.152   0.415   0.137 -0.0583  0.7054  0.1503
 6397TIP3    H140606   1.114   0.431   0.051 -0.0094 -0.5077 -0.1128
 6397TIP3    H240607   1.128   0.324   0.157 -0.6949  1.1976  1.7395
 6398TIP3   OH240608   4.795   4.861  12.090 -0.4024 -0.0998 -0.2850
 6398TIP3    H140609   4.808   4.954  12.074  0.3539 -0.1669 -0.0983
 6398TIP3    H240610   4.859   4.839  12.158 -1.5799 -0.4450  0.7469
 6399TIP3   OH240611   1.007   0.959   2.592  0.0398  0.0734 -0.5103
 6399TIP3    H140612   1.031   1.049   2.616 -0.9410  0.1798  0.1015
 6399TIP3    H240613   1.062   0.904   2.647 -0.1841  0.3118 -0.0416
 6400TIP3   OH240614   6.231   1.668  11.907 -0.0681 -0.3152 -0.7224
 6400TIP3    H140615   6.315   1.700  11.941 -1.2107  1.7915  0.2562
 6400TIP3    H240616   6.211   1.592  11.961 -0.0271  0.7322  0.8235
 6401TIP3   OH240617   1.176   0.267  12.442 -0.2943  0.0707 -0.0607
 6401TIP3    H140618   1.099   0.213  12.427 -1.3881  1.6875 -0.5592
 6401TIP3    H240619   1.146   0.335  12.503  1.5622 -0.9612  2.1697
 6402TIP3   OH240620   1.082   2.958   5.213  0.2170  0.8261 -0.7192
 6402TIP3    H140621   1.085   2.864   5.192  0.0633  0.6425  0.0226
 6402TIP3    H240622   1.119   2.963   5.302 -2.7106  1.0373  0.6025
 6403TIP3   OH240623   2.419   0.139  16.913 -0.3617  0.2642  0.2911
 6403TIP3    H140624   2.480   0.198  16.870 -0.4177 -0.8645 -1.4382
 6403TIP3    H240625   2.366   0.103  16.842 -2.3313  0.3820  1.6177
 6404TIP3   OH240626   6.070   4.556  16.545 -0.0800  0.6454  0.0162
 6404TIP3    H140627   5.997   4.601  16.588 -0.2280  0.6760 -0.2613
 6404TIP3    H240628   6.044   4.464  16.544 -0.5828  0.7905 -0.9945
 6405TIP3   OH240629   1.128   3.901   0.673  0.3410 -0.2605  0.6780
 6405TIP3    H140630   1.132   3.955   0.752  3.0541  0.0604  0.4017
 6405TIP3    H240631   1.066   3.947   0.616  0.1602  0.7979  1.6937
 6406TIP3   OH240632   4.202   5.704  12.364 -0.0027  0.1005  0.1419
 6406TIP3    H140633   4.130   5.766  12.356  0.6935  0.8221 -0.8639
 6406TIP3    H240634   4.241   5.702  12.276 -1.0536 -3.1137 -0.3726
 6407TIP3   OH240635   2.058   5.098  14.748  0.1052 -0.1113 -0.1802
 6407TIP3    H140636   2.112   5.033  14.794  0.5332 -0.2075 -0.8039
 6407TIP3    H240637   2.095   5.182  14.774 -0.3977 -0.1110  0.5661
 6408TIP3   OH240638   6.445   2.642   4.608  0.0555 -0.0932 -0.0127
 6408TIP3    H140639   6.408   2.562   4.646 -0.6951  0.1142 -0.2972
 6408TIP3    H240640   6.538   2.623   4.599  0.0987 -0.4827  1.0739
 6409TIP3   OH240641   2.590   3.351   3.738 -0.0160  0.1048  0.2356
 6409TIP3    H140642   2.522   3.417   3.752 -0.3850 -0.2526  0.1675
 6409TIP3    H240643   2.545   3.267   3.751  0.1900 -0.1673 -0.6919
 6410TIP3   OH240644   5.749   5.088   2.269 -0.2009  0.4754 -0.5297
 6410TIP3    H140645   5.661   5.113   2.297 -0.5426 -0.3233 -0.8627
 6410TIP3    H240646   5.790   5.052   2.348  0.5473  2.6728  0.1396
 6411TIP3   OH240647   3.958   6.647   4.133  0.1822 -0.1679  0.5336
 6411TIP3    H140648   3.972   6.567   4.082  0.1215 -0.0667  0.3543
 6411TIP3    H240649   3.889   6.693   4.085  0.4875  0.1743  0.4226
 6412TIP3   OH240650   1.134   1.545   1.987 -0.0736 -0.2710 -0.2733
 6412TIP3    H140651   1.158   1.631   2.023 -0.3683 -0.2210 -0.1873
 6412TIP3    H240652   1.052   1.523   2.032  0.4282 -0.9811  0.3191
 6413TIP3   OH240653   0.054   2.606   2.390  0.0488 -0.3805 -0.6293
 6413TIP3    H140654   0.113   2.552   2.337  2.7339  1.5369  0.2282
 6413TIP3    H240655   0.026   2.548   2.461  1.4913 -1.1783 -0.6665
 6414TIP3   OH240656   0.406   0.252  14.197 -0.2355  0.0944 -0.5681
 6414TIP3    H140657   0.382   0.220  14.283  0.3742 -3.0427 -1.4467
 6414TIP3    H240658   0.349   0.328  14.183 -1.7899 -0.5407  1.7266
 6415TIP3   OH240659   4.310   4.627  15.953 -0.4830  0.3668 -0.0910
 6415TIP3    H140660   4.288   4.719  15.964  0.7319  0.8540 -1.3807
 6415TIP3    H240661   4.405   4.623  15.966 -0.1095 -0.2198 -2.4400
 6416TIP3   OH240662   3.564   4.260  16.138 -0.0529  0.0693 -0.7518
 6416TIP3    H140663   3.579   4.353  16.154  0.9856 -0.0437 -1.0478
 6416TIP3    H240664   3.492   4.258  16.075 -0.5663  0.6457 -0.1957
 6417TIP3   OH240665   6.317   6.550  14.245  0.3214 -0.1136 -0.0796
 6417TIP3    H140666   6.393   6.582  14.294 -0.8683  2.5754  0.1768
 6417TIP3    H240667   6.355   6.504  14.170  2.2045  0.4884  0.4440
 6418TIP3   OH240668   2.039   0.630   2.300 -0.3014 -0.0283 -0.8270
 6418TIP3    H140669   2.072   0.615   2.388 -0.4838 -0.1592 -0.7795
 6418TIP3    H240670   2.102   0.690   2.260 -0.4970  0.4443 -0.4349
 6419TIP3   OH240671   5.156   4.401  16.467 -0.6314  0.2513  0.0538
 6419TIP3    H140672   5.228   4.366  16.519 -2.6005 -1.5140  1.7768
 6419TIP3    H240673   5.174   4.495  16.460  2.0153 -0.2090 -0.0069
 6420TIP3   OH240674   6.347   0.720   0.840 -0.9169 -0.8525  0.0925
 6420TIP3    H140675   6.430   0.734   0.795 -1.8580  1.4513 -1.0998
 6420TIP3    H240676   6.365   0.740   0.932 -0.0206 -1.0910 -0.0197
 6421TIP3   OH240677   5.347   0.525  14.047  0.2618 -0.3217 -0.0599
 6421TIP3    H140678   5.441   0.520  14.027  0.1163  1.2788 -1.3468
 6421TIP3    H240679   5.319   0.609  14.010 -1.7257 -0.8453  0.1416
 6422TIP3   OH240680   0.098   1.644   4.771  0.2531 -0.2041  0.3156
 6422TIP3    H140681   0.187   1.621   4.745  0.3537  1.1895 -0.7149
 6422TIP3    H240682   0.098   1.740   4.774 -1.3864 -0.1410 -0.4371
 6423TIP3   OH240683   2.182   2.960  14.995 -0.3293 -0.0512 -0.1099
 6423TIP3    H140684   2.249   3.027  14.981 -2.2154  1.9036 -0.2494
 6423TIP3    H240685   2.167   2.962  15.090 -0.7816  0.1042 -0.1869
 6424TIP3   OH240686   4.669   5.044  14.003  0.6621 -0.1071  0.1325
 6424TIP3    H140687   4.644   4.962  14.046 -2.9855  1.0940  0.6362
 6424TIP3    H240688   4.744   5.075  14.054 -0.3720 -1.2039  2.5068
 6425TIP3   OH240689   6.068   2.442  14.940  0.0454  0.1201  0.4275
 6425TIP3    H140690   6.072   2.426  14.846 -3.1885  0.4980  0.1377
 6425TIP3    H240691   6.137   2.385  14.976 -0.9773 -2.8570 -1.8674
 6426TIP3   OH240692   4.937   5.516  15.151  0.4357 -0.5590 -0.5550
 6426TIP3    H140693   4.917   5.470  15.233  2.6207 -0.7252 -0.0520
 6426TIP3    H240694   4.947   5.446  15.087  0.5106 -0.5723 -0.5307
 6427TIP3   OH240695   6.572   2.755  11.662  0.0310  0.3990  0.2640
 6427TIP3    H140696   6.545   2.837  11.620 -0.7083  0.1794  0.2957
 6427TIP3    H240697   6.637   2.718  11.603 -0.5172  0.4180 -0.3672
 6428TIP3   OH240698   6.438   2.715  12.738 -0.2875 -0.4869 -0.0822
 6428TIP3    H140699   6.433   2.645  12.673 -0.0825  0.1469 -0.7956
 6428TIP3    H240700   6.381   2.784  12.704  0.8198  0.3746 -0.2700
 6429TIP3   OH240701   6.561   1.710   1.469  0.1740  0.1142  0.7851
 6429TIP3    H140702   6.495   1.745   1.529  0.9189 -0.5442  2.0187
 6429TIP3    H240703   6.643   1.712   1.519  0.5521 -1.7611  0.3018
 6430TIP3   OH240704   4.070   1.154   1.674 -0.5308 -1.0114 -0.0094
 6430TIP3    H140705   4.158   1.123   1.651 -0.6252 -1.0190 -0.3580
 6430TIP3    H240706   4.073   1.164   1.769 -0.3743 -1.7121  0.0671
 6431TIP3   OH240707   2.524   3.125   3.175 -0.2302  0.2023 -0.1865
 6431TIP3    H140708   2.445   3.178   3.173 -0.3926  0.1528  2.2139
 6431TIP3    H240709   2.500   3.048   3.226  1.3081  0.0957  0.4248
 6432TIP3   OH240710   5.551   1.633   2.506  0.0998 -0.6405 -0.0925
 6432TIP3    H140711   5.536   1.644   2.600  0.1944  1.5467 -0.2965
 6432TIP3    H240712   5.468   1.602   2.472 -0.3988  0.0421  0.4895
 6433TIP3   OH240713   4.348   2.711  11.575 -0.5036 -0.2009 -0.1065
 6433TIP3    H140714   4.312   2.652  11.509 -2.1959  1.4990 -0.8128
 6433TIP3    H240715   4.376   2.788  11.525  1.2093 -0.1626  0.8380
 6434TIP3   OH240716   3.720   3.318   1.365 -0.1422 -0.1850  0.0561
 6434TIP3    H140717   3.796   3.375   1.381  0.8523 -1.5199  0.2264
 6434TIP3    H240718   3.666   3.368   1.303  0.7202  0.9143  0.1494
 6435TIP3   OH240719   0.754   3.160  12.094 -0.1717 -0.6187 -0.3436
 6435TIP3    H140720   0.724   3.080  12.051 -0.5277 -0.3873 -0.5323
 6435TIP3    H240721   0.674   3.202  12.126 -0.1268  0.3272 -1.4053
 6436TIP3   OH240722   3.670   0.339  16.220 -0.0382  0.1668 -0.2068
 6436TIP3    H140723   3.614   0.262  16.208  0.3588  0.0324 -1.3062
 6436TIP3    H240724   3.737   0.330  16.153  1.4886  0.1881  1.2311
 6437TIP3   OH240725   6.009   3.533   6.333 -0.1525 -0.0380  0.0738
 6437TIP3    H140726   6.020   3.438   6.328 -1.0712 -0.2501  1.4538
 6437TIP3    H240727   5.961   3.556   6.253 -0.0717 -0.7590 -0.1897
 6438TIP3   OH240728   4.392   6.351   0.995  0.2962  0.1689 -0.0546
 6438TIP3    H140729   4.444   6.277   0.965  0.9204 -0.0833  1.5604
 6438TIP3    H240730   4.404   6.418   0.928  0.0751 -1.0132 -1.3208
 6439TIP3   OH240731   5.748   0.785  14.549 -0.6100  0.2268 -0.2400
 6439TIP3    H140732   5.748   0.880  14.561  0.8911  0.3781 -1.1044
 6439TIP3    H240733   5.768   0.750  14.636 -1.0690  0.7016  0.0612
 6440TIP3   OH240734   4.162   5.811  11.903 -0.1209  0.5371  0.5991
 6440TIP3    H140735   4.090   5.873  11.891  0.3107  1.9453  4.1219
 6440TIP3    H240736   4.119   5.725  11.905 -1.2834  1.0736 -0.2570
 6441TIP3   OH240737   1.091   0.655  16.358 -0.3393 -0.4442  0.2855
 6441TIP3    H140738   1.150   0.624  16.427  2.3518  0.6466 -1.3388
 6441TIP3    H240739   1.052   0.734  16.394  0.5480 -0.2240  0.8008
 6442TIP3   OH240740   0.848   5.964  12.932 -0.3150 -0.5658 -0.2655
 6442TIP3    H140741   0.823   5.872  12.940  0.6605 -0.8565 -0.3660
 6442TIP3    H240742   0.933   5.969  12.976  0.1980  0.0341 -1.2927
 6443TIP3   OH240743   4.437   3.359   1.344  0.3460 -0.3053  0.4434
 6443TIP3    H140744   4.431   3.330   1.253 -2.3570 -1.4412  0.9034
 6443TIP3    H240745   4.527   3.392   1.352  1.2215 -1.7444 -2.1488
 6444TIP3   OH240746   4.132   2.217   5.572  0.4329 -0.2542  0.3131
 6444TIP3    H140747   4.077   2.248   5.500  1.6465  0.3186 -0.3984
 6444TIP3    H240748   4.122   2.283   5.640  0.7320  0.1917 -0.0684
 6445TIP3   OH240749   3.294   6.417  10.931 -0.0915  0.1910  0.2195
 6445TIP3    H140750   3.204   6.448  10.922 -0.1880  0.5788  2.0284
 6445TIP3    H240751   3.286   6.324  10.953 -0.0056  0.0145 -0.4815
 6446TIP3   OH240752   1.550   1.246   1.648  0.2225 -0.7539  1.0926
 6446TIP3    H140753   1.617   1.295   1.601 -0.5854  1.1043  1.7831
 6446TIP3    H240754   1.598   1.205   1.721  0.8156 -0.4584  0.8781
 6447TIP3   OH240755   0.560   0.292  15.068  0.2270  0.3182 -0.0229
 6447TIP3    H140756   0.604   0.271  15.151  1.1021 -0.7102 -0.7161
 6447TIP3    H240757   0.481   0.239  15.068 -0.1630  0.8853  0.4710
 6448TIP3   OH240758   0.133   0.749  15.611  0.4513 -0.0521 -0.2819
 6448TIP3    H140759   0.063   0.785  15.666 -0.1079 -0.7112 -0.5541
 6448TIP3    H240760   0.116   0.785  15.524  1.5456  1.2833  0.0096
 6449TIP3   OH240761   6.619   2.281   2.620 -0.5449  0.3031  0.2599
 6449TIP3    H140762   6.558   2.345   2.583  0.4578  0.1451 -1.8100
 6449TIP3    H240763   6.688   2.334   2.660 -0.8173  0.4991  0.4723
 6450TIP3   OH240764   5.640   4.552   4.116 -0.0628  0.5834 -0.0809
 6450TIP3    H140765   5.639   4.496   4.039 -0.7325 -0.0910  0.3992
 6450TIP3    H240766   5.656   4.640   4.082 -0.1012  0.2600 -0.9551
 6451TIP3   OH240767   2.444   5.137  16.914 -0.2858 -0.3817  0.0865
 6451TIP3    H140768   2.372   5.097  16.867  0.3930 -0.5507 -0.8427
 6451TIP3    H240769   2.452   5.086  16.995 -0.1971 -1.3622 -0.5275
 6452TIP3   OH240770   1.886   4.634   4.192  0.0219 -0.1665  0.6588
 6452TIP3    H140771   1.963   4.643   4.136 -0.0420 -2.7061  0.0072
 6452TIP3    H240772   1.812   4.644   4.132 -0.1532  1.1154  1.0689
 6453TIP3   OH240773   4.821   2.967   5.866 -0.0705  0.1276 -0.0143
 6453TIP3    H140774   4.763   2.940   5.795 -1.0274 -0.7529  1.0611
 6453TIP3    H240775   4.770   3.031   5.916  0.2526  0.0866  0.3738
 6454TIP3   OH240776   0.504   0.552   1.757  0.2169 -0.2445 -0.5670
 6454TIP3    H140777   0.453   0.471   1.762 -1.6112  0.9473  1.4839
 6454TIP3    H240778   0.592   0.526   1.787 -0.0777 -1.6286 -0.8177
 6455TIP3   OH240779   4.113   5.530   0.070 -0.3061 -0.4122  0.1281
 6455TIP3    H140780   4.175   5.479   0.018 -1.1938  0.4612 -1.8490
 6455TIP3    H240781   4.167   5.595   0.115  0.4548 -1.0787  0.2040
 6456TIP3   OH240782   2.570   6.388  12.673 -0.4484 -0.3437  0.5088
 6456TIP3    H140783   2.656   6.403  12.635 -0.4233  0.8248  0.9917
 6456TIP3    H240784   2.565   6.293  12.684  0.2875 -0.5294 -0.6340
 6457TIP3   OH240785   3.177   5.269   1.239 -0.3715  0.0148 -0.2379
 6457TIP3    H140786   3.107   5.208   1.263 -0.3657 -0.1186 -0.5508
 6457TIP3    H240787   3.188   5.256   1.145  0.2046 -0.0971 -0.1560
 6458TIP3   OH240788   3.776   0.316   2.413  0.1946 -0.3771  0.0895
 6458TIP3    H140789   3.843   0.385   2.413 -0.5631  0.4149 -1.3904
 6458TIP3    H240790   3.824   0.236   2.392  0.8810 -0.0669  0.4486
 6459TIP3   OH240791   3.265   0.271   3.004 -0.0213  0.1099 -0.3218
 6459TIP3    H140792   3.257   0.341   2.940 -2.3828  0.1430 -0.0928
 6459TIP3    H240793   3.217   0.303   3.081  0.7238 -0.8790  0.5858
 6460TIP3   OH240794   4.661   5.483   3.377 -0.5998 -0.7839  0.7478
 6460TIP3    H140795   4.670   5.389   3.364 -2.7031 -0.7068 -2.2714
 6460TIP3    H240796   4.683   5.521   3.292  0.3264  1.5181  1.9305
 6461TIP3   OH240797   3.507   2.156  13.061 -0.2468 -0.4068 -0.1252
 6461TIP3    H140798   3.520   2.250  13.070 -1.8976 -0.0853 -0.7929
 6461TIP3    H240799   3.422   2.147  13.019  0.5001 -2.1735 -1.3885
 6462TIP3   OH240800   5.379   5.098   1.733  0.1976 -0.4411  0.6318
 6462TIP3    H140801   5.294   5.054   1.727  0.4582 -0.8606 -0.1760
 6462TIP3    H240802   5.407   5.109   1.641  0.0918  1.5199  0.8047
 6463TIP3   OH240803   1.071   1.339  13.400 -0.0188 -0.2856  0.2294
 6463TIP3    H140804   0.980   1.331  13.428 -0.2475 -0.3251 -0.5092
 6463TIP3    H240805   1.074   1.421  13.351  0.4158 -0.1279  0.5171
 6464TIP3   OH240806   1.791   2.768   2.578 -0.6575  0.7998 -0.6035
 6464TIP3    H140807   1.802   2.812   2.494 -1.3521  0.8743 -0.6608
 6464TIP3    H240808   1.728   2.821   2.626 -0.4588  0.6195 -0.1333
 6465TIP3   OH240809   6.324   2.883  12.465  0.1097 -0.9444  0.4289
 6465TIP3    H140810   6.312   2.972  12.434 -0.1782 -0.4117  1.9684
 6465TIP3    H240811   6.411   2.858  12.434  0.6391  0.2780  0.8687
 6466TIP3   OH240812   2.173   1.850   0.325 -0.0807  0.2649  0.1552
 6466TIP3    H140813   2.201   1.759   0.313  0.5419  0.5981 -1.1275
 6466TIP3    H240814   2.250   1.895   0.359  0.1582  0.6594 -0.8859
 6467TIP3   OH240815   1.873   2.191  13.185 -0.1624  0.2747  0.1018
 6467TIP3    H140816   1.920   2.128  13.131 -1.9572  1.0920 -2.6651
 6467TIP3    H240817   1.827   2.246  13.122 -2.7000  1.1539  2.5156
 6468TIP3   OH240818   0.503   5.993   2.731 -0.3694 -0.0204 -0.4773
 6468TIP3    H140819   0.466   5.907   2.751 -0.5510  0.3215  0.7316
 6468TIP3    H240820   0.437   6.055   2.762  0.2402  0.5640 -0.3386
 6469TIP3   OH240821   1.574   2.535   4.734  0.0800 -1.0491 -0.4954
 6469TIP3    H140822   1.525   2.474   4.789  0.4738 -0.3508  0.6697
 6469TIP3    H240823   1.530   2.532   4.650 -1.7204 -0.7654  0.3883
 6470TIP3   OH240824   0.734   6.265  12.682  0.0476  0.5958 -0.7121
 6470TIP3    H140825   0.730   6.330  12.612 -1.1776  0.3446 -0.9065
 6470TIP3    H240826   0.726   6.317  12.762 -2.9684  0.6325 -0.9076
 6471TIP3   OH240827   2.106   2.647   3.744 -0.2436 -0.1621  0.6236
 6471TIP3    H140828   2.072   2.735   3.732 -2.0778 -0.8363  0.4322
 6471TIP3    H240829   2.108   2.610   3.655  1.1059 -0.1214  0.6251
 6472TIP3   OH240830   1.927   6.594  11.646  0.6350  0.3754 -0.6654
 6472TIP3    H140831   1.839   6.616  11.679 -0.7408 -1.1820 -2.9521
 6472TIP3    H240832   1.935   6.500  11.663  0.3142 -0.2559 -3.4967
 6473TIP3   OH240833   1.419   1.486   0.889 -0.3771 -0.2878  0.2979
 6473TIP3    H140834   1.484   1.481   0.960  0.1087  1.2141  0.0032
 6473TIP3    H240835   1.338   1.454   0.928 -0.1948  0.8193  1.6577
 6474TIP3   OH240836   6.053   4.051   0.281  0.3315 -0.0500 -0.0923
 6474TIP3    H140837   6.040   3.988   0.352 -1.3023 -0.3830 -0.6380
 6474TIP3    H240838   6.061   3.997   0.203 -1.1644  0.3855 -0.5762
 6475TIP3   OH240839   5.100   3.418   0.624  0.6641  0.4952  0.3704
 6475TIP3    H140840   5.073   3.433   0.534 -1.5259 -0.8640  0.7145
 6475TIP3    H240841   5.150   3.495   0.648  3.5395 -0.1888 -2.7538
 6476TIP3   OH240842   2.570   4.060   3.726 -0.4947 -0.1061 -0.3847
 6476TIP3    H140843   2.552   4.153   3.734 -1.0126 -0.1559 -0.9055
 6476TIP3    H240844   2.564   4.026   3.815 -0.3907  0.3370 -0.2089
 6477TIP3   OH240845   3.917   3.202   3.251 -0.1533 -0.0838 -0.4713
 6477TIP3    H140846   3.975   3.222   3.324  1.5648  0.0295 -1.7954
 6477TIP3    H240847   3.943   3.263   3.182 -1.8784 -0.0291 -1.1228
 6478TIP3   OH240848   3.838   1.405   6.367  0.2669  0.1444  0.0892
 6478TIP3    H140849   3.853   1.383   6.275 -1.1774  1.1064 -0.4097
 6478TIP3    H240850   3.827   1.321   6.410  0.0696 -0.2938 -0.7926
 6479TIP3   OH240851   2.568   6.151  16.591  0.1979 -0.1706 -0.1502
 6479TIP3    H140852   2.566   6.198  16.508 -1.0038  0.3310  0.1328
 6479TIP3    H240853   2.480   6.163  16.627  1.0490  0.7436  1.7947
 6480TIP3   OH240854   1.856   4.378   3.368 -0.1079 -0.0384  0.3676
 6480TIP3    H140855   1.859   4.342   3.456  0.8066 -0.4841  0.1588
 6480TIP3    H240856   1.845   4.302   3.310 -1.6466  0.3183  0.1298
 6481TIP3   OH240857   1.473   1.594   5.697  0.2879 -0.2796 -0.3451
 6481TIP3    H140858   1.524   1.521   5.663  0.5948 -0.4672  0.4838
 6481TIP3    H240859   1.407   1.611   5.630  0.7303 -0.7775 -0.9147
 6482TIP3   OH240860   1.266   1.608   3.544 -0.3924 -0.7386  0.8104
 6482TIP3    H140861   1.218   1.555   3.606  0.5199  0.5272  2.6992
 6482TIP3    H240862   1.276   1.693   3.587  1.0996 -0.0927 -0.6614
 6483TIP3   OH240863   5.732   0.986  13.351  0.2249  0.0642 -0.1978
 6483TIP3    H140864   5.644   0.949  13.344  0.4687 -0.1815 -2.9247
 6483TIP3    H240865   5.717   1.080  13.360 -0.2960 -0.0549  0.2869
 6484TIP3   OH240866   5.686   2.189   1.680 -0.1130  1.1063 -0.2157
 6484TIP3    H140867   5.737   2.230   1.750  0.8171 -2.3564  1.3451
 6484TIP3    H240868   5.747   2.129   1.637 -1.9488 -0.5743 -0.6391
 6485TIP3   OH240869   2.314   4.681   3.952  0.1346 -0.0033 -0.2743
 6485TIP3    H140870   2.276   4.656   3.868 -0.9922 -1.3389  0.5849
 6485TIP3    H240871   2.408   4.682   3.937 -0.0124 -0.9133 -1.3875
 6486TIP3   OH240872   6.326   4.669  15.907 -0.7546  0.1439  0.3384
 6486TIP3    H140873   6.255   4.732  15.920 -0.2249  0.9083 -0.3138
 6486TIP3    H240874   6.371   4.700  15.828 -0.4920 -1.0788 -0.0135
 6487TIP3   OH240875   2.676   5.874   0.487  0.0393  0.3443 -0.8081
 6487TIP3    H140876   2.642   5.914   0.407 -1.4013  1.7837  0.4412
 6487TIP3    H240877   2.601   5.825   0.523 -0.2417  1.9597  0.9983
 6488TIP3   OH240878   2.657   1.889  16.123 -0.2651 -0.2983  0.1349
 6488TIP3    H140879   2.665   1.947  16.199 -2.6721  0.7932 -0.3496
 6488TIP3    H240880   2.585   1.926  16.072  1.3902 -0.8796 -2.8516
 6489TIP3   OH240881   4.981   1.422   4.619  0.2099  0.2012  0.4601
 6489TIP3    H140882   4.961   1.436   4.526  1.4731  1.9701  0.4069
 6489TIP3    H240883   4.897   1.398   4.658 -0.9828  2.2248 -0.6706
 6490TIP3   OH240884   2.177   0.789  16.642  0.7168 -0.0908 -0.0988
 6490TIP3    H140885   2.258   0.830  16.671  0.3193  1.9663 -1.6052
 6490TIP3    H240886   2.205   0.717  16.585  1.4282 -1.4376  1.8405
 6491TIP3   OH240887   3.007   5.211   1.602  0.2454  0.1384  0.4109
 6491TIP3    H140888   2.950   5.239   1.530  1.7669 -0.1362 -0.9516
 6491TIP3    H240889   3.030   5.292   1.647 -2.3191  0.1374  1.9033
 6492TIP3   OH240890   3.995   0.163   3.573 -1.1073 -0.3673 -0.4091
 6492TIP3    H140891   4.075   0.184   3.524 -0.0873 -1.7373  0.5758
 6492TIP3    H240892   3.975   0.243   3.621 -0.1830 -0.0691 -0.4944
 6493TIP3   OH240893   2.226   3.014  12.906  0.5789 -0.2025 -0.2731
 6493TIP3    H140894   2.256   2.976  12.823  0.2805 -1.2354  0.0808
 6493TIP3    H240895   2.145   3.061  12.882 -0.1608 -1.4858 -0.3818
 6494TIP3   OH240896   2.170   5.311   3.728  0.5654 -0.1074  0.5512
 6494TIP3    H140897   2.148   5.404   3.720  2.5565  0.3095 -0.7463
 6494TIP3    H240898   2.091   5.270   3.764 -0.8761  1.8430 -0.2645
 6495TIP3   OH240899   1.644   2.680  16.022  0.6895  0.0810 -0.5984
 6495TIP3    H140900   1.680   2.594  16.002 -0.4574 -0.5682  0.0557
 6495TIP3    H240901   1.702   2.716  16.089 -0.8102 -1.7010  1.7947
 6496TIP3   OH240902   0.247   3.752   4.423  0.0014 -0.0290 -0.4911
 6496TIP3    H140903   0.270   3.842   4.400 -1.2332  0.4933  0.2179
 6496TIP3    H240904   0.160   3.759   4.463 -0.1137 -1.5408 -0.4321
 6497TIP3   OH240905   5.793   1.977  16.367  0.1478  0.0774 -0.0293
 6497TIP3    H140906   5.698   1.965  16.371  0.1150  0.5751  1.3819
 6497TIP3    H240907   5.828   1.887  16.366 -0.3405 -0.1063 -0.8724
 6498TIP3   OH240908   3.717   4.190  14.147 -0.0678  0.2063  0.4799
 6498TIP3    H140909   3.713   4.185  14.242  1.9797 -2.6272  0.5190
 6498TIP3    H240910   3.796   4.241  14.129 -0.0304  0.0936  0.3220
 6499TIP3   OH240911   0.905   1.889   4.801 -0.2671 -0.5902  0.6290
 6499TIP3    H140912   0.992   1.856   4.822  0.3016  0.7347  0.4727
 6499TIP3    H240913   0.881   1.943   4.877 -0.8379 -0.7250  0.5500
 6500TIP3   OH240914   0.684   3.809  13.600  0.3009  0.0648  0.1807
 6500TIP3    H140915   0.746   3.736  13.608  0.7575 -0.1633 -3.6026
 6500TIP3    H240916   0.719   3.876  13.658  2.2134 -1.2319  0.6313
 6501TIP3   OH240917   0.471   6.481  13.967  0.3349  0.5874 -0.2472
 6501TIP3    H140918   0.563   6.464  13.947  0.3944  0.1300  0.3774
 6501TIP3    H240919   0.443   6.405  14.018 -0.0107  1.3609  0.7496
 6502TIP3   OH240920   2.888   4.968  17.356 -0.4830  0.0992  0.0244
 6502TIP3    H140921   2.926   5.021  17.426  1.2300  0.5329 -1.1553
 6502TIP3    H240922   2.963   4.924  17.316 -1.3976 -0.1350 -1.5302
 6503TIP3   OH240923   4.959   2.718   1.794  0.1231  0.3693  0.2153
 6503TIP3    H140924   4.866   2.723   1.813  0.0122 -0.6537  0.0254
 6503TIP3    H240925   4.964   2.701   1.700  0.5300  1.2044  0.0806
 6504TIP3   OH240926   4.431   6.464  15.456 -0.6601  0.4236 -0.2515
 6504TIP3    H140927   4.513   6.492  15.498  0.2321 -1.4838 -0.6297
 6504TIP3    H240928   4.459   6.406  15.386 -2.3540 -0.3243 -0.3538
 6505TIP3   OH240929   2.462   0.426  13.100 -0.2717  0.0557  0.5208
 6505TIP3    H140930   2.437   0.518  13.091 -1.1661 -0.2340 -0.0717
 6505TIP3    H240931   2.556   0.424  13.079  0.0709  1.0124  1.8214
 6506TIP3   OH240932   3.943   0.645   1.839 -0.2174  0.6126 -0.2250
 6506TIP3    H140933   3.887   0.607   1.907  0.5054 -0.1939 -0.0528
 6506TIP3    H240934   3.909   0.610   1.757 -0.8456  1.2690 -0.2474
 6507TIP3   OH240935   0.836   1.198  12.894  0.5995  0.4938 -0.3107
 6507TIP3    H140936   0.910   1.185  12.953 -0.0803  0.8662  0.6521
 6507TIP3    H240937   0.782   1.119  12.906  0.0082  0.9711  0.2631
 6508TIP3   OH240938   1.049   5.194  11.844  0.4595  0.2289  0.0751
 6508TIP3    H140939   1.062   5.236  11.759  1.5484  0.5719  0.3975
 6508TIP3    H240940   1.042   5.101  11.824  0.6720  0.3098 -0.3883
 6509TIP3   OH240941   6.044   4.635   2.277 -0.1378  0.1675  0.5345
 6509TIP3    H140942   6.119   4.578   2.297  0.0908 -0.0314 -0.7940
 6509TIP3    H240943   6.074   4.689   2.203 -1.1897  0.3089  0.1951
 6510TIP3   OH240944   3.913   0.991  13.000  0.0602  0.5070 -0.2922
 6510TIP3    H140945   3.829   0.981  13.045  1.2666  4.7422  3.6220
 6510TIP3    H240946   3.978   0.970  13.067  2.0431  2.9032 -1.3502
 6511TIP3   OH240947   2.238   5.358  15.637 -0.0976  0.0008  0.0450
 6511TIP3    H140948   2.309   5.390  15.691 -1.2996  0.3283  1.4944
 6511TIP3    H240949   2.181   5.434  15.624 -1.6998 -0.9043  1.4331
 6512TIP3   OH240950   2.183   3.175  14.642  0.4186  0.1131 -0.1066
 6512TIP3    H140951   2.188   3.084  14.671  1.2673  1.2496  3.8472
 6512TIP3    H240952   2.268   3.191  14.600  0.1626 -0.9447 -1.0768
 6513TIP3   OH240953   5.057   5.798   1.394  0.3642  0.1317  0.6336
 6513TIP3    H140954   5.071   5.748   1.474 -0.7070  0.8933  1.3222
 6513TIP3    H240955   4.970   5.836   1.404  1.1618  2.2313  0.2187
 6514TIP3   OH240956   4.697   0.258   5.926 -0.0958 -0.6383 -0.0250
 6514TIP3    H140957   4.618   0.295   5.964 -0.6316  0.2026 -1.8711
 6514TIP3    H240958   4.668   0.214   5.847  0.9789 -2.4262  0.5131
 6515TIP3   OH240959   3.319   0.330   5.364  0.4953  0.4329 -0.5379
 6515TIP3    H140960   3.231   0.354   5.395  1.0722 -1.6337  3.2842
 6515TIP3    H240961   3.378   0.356   5.435  2.3787 -2.0918 -1.0306
 6516TIP3   OH240962   3.229   4.043  11.821  0.8167  0.0962 -0.1645
 6516TIP3    H140963   3.140   4.012  11.801  0.5661  0.6530  0.0556
 6516TIP3    H240964   3.234   4.038  11.917  0.4439  1.5656 -0.0404
 6517TIP3   OH240965   0.187   3.964   5.110  0.0607  0.5825  0.4878
 6517TIP3    H140966   0.169   4.013   5.030  2.0289  0.4854 -0.0826
 6517TIP3    H240967   0.283   3.958   5.113  0.0227 -3.9640  0.0129
 6518TIP3   OH240968   1.586   6.725  16.199 -0.0781 -0.5540 -0.3481
 6518TIP3    H140969   1.574   6.790  16.129  3.1637 -1.4084 -1.8830
 6518TIP3    H240970   1.536   6.649  16.169  2.0794 -1.2704 -2.3898
 6519TIP3   OH240971   2.175   2.092   4.831 -0.1270  0.1237  0.2123
 6519TIP3    H140972   2.149   2.126   4.746  1.6045  1.9189  0.3381
 6519TIP3    H240973   2.130   2.148   4.894 -0.0451 -0.1043  0.4781
 6520TIP3   OH240974   5.133   2.165   6.741  0.1076 -0.3295  0.1290
 6520TIP3    H140975   5.119   2.116   6.660  1.9687 -1.8912  0.6602
 6520TIP3    H240976   5.228   2.171   6.749 -0.0577  1.0788  1.4723
 6521TIP3   OH240977   2.189   2.465   0.380  0.1012 -0.5569 -0.0269
 6521TIP3    H140978   2.285   2.470   0.383  0.0636  0.2219  0.0224
 6521TIP3    H240979   2.164   2.454   0.472  0.2035 -2.1913 -0.1723
 6522TIP3   OH240980   4.612   1.937   5.906 -0.2432  0.4947 -0.2319
 6522TIP3    H140981   4.646   1.887   5.832  0.4668  0.2807  0.2328
 6522TIP3    H240982   4.667   2.014   5.910  1.7254 -0.8959  1.8827
 6523TIP3   OH240983   4.459   4.355   5.010 -0.0121 -0.0545 -0.3126
 6523TIP3    H140984   4.385   4.297   5.029 -0.5444  0.8177  0.3343
 6523TIP3    H240985   4.465   4.411   5.087 -0.8033  2.0994 -1.7409
 6524TIP3   OH240986   3.331   4.236  12.446  0.1833 -0.2881  0.3855
 6524TIP3    H140987   3.237   4.242  12.462 -0.0565  0.1563 -1.0713
 6524TIP3    H240988   3.367   4.201  12.527 -1.2362 -0.4511  0.9655
 6525TIP3   OH240989   1.133   5.762  10.742 -0.0991  0.5444 -0.0851
 6525TIP3    H140990   1.071   5.810  10.688 -0.9720  1.2703  1.4975
 6525TIP3    H240991   1.195   5.724  10.680  0.2116  3.0867 -1.4621
 6526TIP3   OH240992   5.357   3.935  14.938 -0.5340 -0.3882  0.5543
 6526TIP3    H140993   5.444   3.896  14.947 -0.4022 -0.0530  0.7448
 6526TIP3    H240994   5.296   3.861  14.945 -0.2179 -0.8515 -1.0744
 6527TIP3   OH240995   0.664   6.091   5.426  0.2417  0.3068  0.2287
 6527TIP3    H140996   0.635   6.181   5.413 -1.3811 -0.1858  0.1187
 6527TIP3    H240997   0.583   6.042   5.440  1.0383 -1.2436 -0.3439
 6528TIP3   OH240998   1.911   0.530  14.068 -0.5590  0.8639  0.0251
 6528TIP3    H140999   1.917   0.521  14.163 -0.5194 -1.0356 -0.1147
 6528TIP3    H241000   1.818   0.543  14.051 -0.5749  1.1444  0.3181
 6529TIP3   OH241001   1.189   0.474  14.267 -0.3342 -0.4769  0.5858
 6529TIP3    H141002   1.103   0.504  14.297 -0.3775 -1.3075  1.3307
 6529TIP3    H241003   1.220   0.544  14.209 -1.7300 -0.3984 -0.0983
 6530TIP3   OH241004   1.511   4.099   4.105 -0.2502 -0.4901 -0.5329
 6530TIP3    H141005   1.445   4.074   4.040 -1.1858  0.9196 -0.1760
 6530TIP3    H241006   1.464   4.101   4.188  0.3363  0.1301 -0.1987
 6531TIP3   OH241007   3.283   1.132  14.368 -0.3495 -0.2360  0.4153
 6531TIP3    H141008   3.236   1.193  14.312 -0.8519 -1.1343 -0.1554
 6531TIP3    H241009   3.217   1.070  14.399  0.2960 -1.0400  0.2479
 6532TIP3   OH241010   4.749   5.669  12.005  0.2880 -0.2889 -0.4746
 6532TIP3    H141011   4.655   5.657  12.006  0.1038  1.0165  0.3163
 6532TIP3    H241012   4.774   5.652  11.914 -0.4431 -2.2830 -0.3382
 6533TIP3   OH241013   3.549   6.702   2.412 -0.0721 -0.1964  0.4282
 6533TIP3    H141014   3.558   6.607   2.418  0.9376 -0.0344  1.9843
 6533TIP3    H241015   3.521   6.729   2.499  0.2394  1.0004  0.1745
 6534TIP3   OH241016   3.507   3.649  14.852 -0.1578 -0.1760 -0.5925
 6534TIP3    H141017   3.469   3.701  14.923 -1.6297 -1.0690 -0.7019
 6534TIP3    H241018   3.542   3.715  14.791 -1.5840  0.7006 -0.5094
 6535TIP3   OH241019   1.337   2.916  16.908 -0.0071  0.1765  0.0357
 6535TIP3    H141020   1.254   2.910  16.859  0.5171  2.6684 -1.3081
 6535TIP3    H241021   1.354   3.010  16.914  2.6683 -0.2711  0.3859
 6536TIP3   OH241022   2.883   5.841  14.704 -0.5058 -0.8057 -0.5719
 6536TIP3    H141023   2.942   5.881  14.768  0.6798 -1.2043 -1.3947
 6536TIP3    H241024   2.809   5.809  14.756 -0.7734  1.0855  0.2891
 6537TIP3   OH241025   1.780   3.344   2.371 -0.0174 -0.1274 -0.3613
 6537TIP3    H141026   1.776   3.434   2.404 -1.8176 -0.2315 -0.1784
 6537TIP3    H241027   1.704   3.301   2.410 -0.3676 -1.1500 -2.0465
 6538TIP3   OH241028   3.302   1.680  16.924 -0.0473 -0.1618 -0.8730
 6538TIP3    H141029   3.246   1.717  16.992  0.9730  0.7999 -0.5497
 6538TIP3    H241030   3.247   1.612  16.884 -1.3784  0.6093 -0.4321
 6539TIP3   OH241031   0.830   5.618   4.604  0.2760 -0.3513 -0.4686
 6539TIP3    H141032   0.750   5.665   4.579  0.4117 -0.1066 -0.4497
 6539TIP3    H241033   0.887   5.625   4.527  0.7327  0.4850 -0.0695
 6540TIP3   OH241034   2.394   6.000  11.521  0.3480 -0.0591  0.0062
 6540TIP3    H141035   2.307   6.037  11.506  0.7377  0.8595 -0.0477
 6540TIP3    H241036   2.409   5.943  11.446 -0.3579 -0.5236  0.2077
 6541TIP3   OH241037   2.526   6.272   0.219 -0.4551 -0.5847  0.7861
 6541TIP3    H141038   2.463   6.289   0.150  0.7959 -0.4686 -0.3560
 6541TIP3    H241039   2.599   6.331   0.201  0.5145 -1.5722  1.3527
 6542TIP3   OH241040   0.643   3.918  16.695  0.0844  0.0385 -0.3172
 6542TIP3    H141041   0.601   3.835  16.717 -1.1662  1.0856  1.5972
 6542TIP3    H241042   0.600   3.945  16.614  0.9517 -1.4261 -1.3084
 6543TIP3   OH241043   4.363   1.060   1.999 -0.0651  0.0527  0.1933
 6543TIP3    H141044   4.380   0.970   2.029  1.1107 -0.0520 -0.7227
 6543TIP3    H241045   4.288   1.088   2.051 -0.1323 -1.2766  0.8721
 6544TIP3   OH241046   5.458   2.092   0.257  0.6125  0.0858  0.1049
 6544TIP3    H141047   5.517   2.166   0.246  0.1480  0.5614  0.7204
 6544TIP3    H241048   5.460   2.047   0.172  1.6868  0.2025  0.0500
 6545TIP3   OH241049   2.447   3.274  14.200  0.1755  0.0311  0.0955
 6545TIP3    H141050   2.511   3.209  14.227  0.1901 -0.4260 -0.9869
 6545TIP3    H241051   2.490   3.323  14.130 -0.8704 -0.7468 -1.1411
 6546TIP3   OH241052   1.695   0.354   2.220 -0.0910 -0.3786 -0.2328
 6546TIP3    H141053   1.708   0.351   2.125 -0.3475 -1.5531 -0.2484
 6546TIP3    H241054   1.658   0.268   2.242 -1.4932  0.4284  0.7223
 6547TIP3   OH241055   1.253   2.956  15.887  0.2965  0.0686 -0.3996
 6547TIP3    H141056   1.244   2.891  15.957 -1.4119 -1.4962 -1.9553
 6547TIP3    H241057   1.202   3.031  15.918 -0.1742 -0.4786  0.1818
 6548TIP3   OH241058   3.805   4.595   3.309  0.4903  0.4042  0.5108
 6548TIP3    H141059   3.739   4.663   3.295  1.0032  0.8156  0.0205
 6548TIP3    H241060   3.768   4.539   3.376  0.4749  1.7335  1.6575
 6549TIP3   OH241061   5.071   6.655   5.514 -0.1878  0.7665 -0.1611
 6549TIP3    H141062   5.157   6.693   5.533  1.3292 -1.7127 -1.5303
 6549TIP3    H241063   5.066   6.653   5.419  0.0743 -2.7022 -0.2336
 6550TIP3   OH241064   0.111   1.387   6.551  0.0826  0.0416  0.7062
 6550TIP3    H141065   0.138   1.468   6.594  0.8126 -1.3457  3.0177
 6550TIP3    H241066   0.185   1.363   6.495  0.0124  0.7274  0.2993
 6551TIP3   OH241067   0.335   6.046  17.049  0.1772 -0.0697 -0.2256
 6551TIP3    H141068   0.271   5.978  17.031  2.0261 -1.6974 -1.0470
 6551TIP3    H241069   0.371   6.023  17.135  0.0163  0.5405  0.0086
 6552TIP3   OH241070   1.399   0.800   5.139  0.0546 -0.3933  0.1635
 6552TIP3    H141071   1.375   0.800   5.046 -0.3711 -0.0636  0.2721
 6552TIP3    H241072   1.358   0.878   5.175 -0.2510 -0.8184  0.7507
 6553TIP3   OH241073   4.570   4.930  10.653  0.2990 -0.6547  0.0706
 6553TIP3    H141074   4.637   4.921  10.585 -0.7636 -2.3805 -0.8340
 6553TIP3    H241075   4.541   5.021  10.647 -0.5196 -0.9967 -2.6030
 6554TIP3   OH241076   2.842   2.347  11.851  0.3109  0.2843 -0.2656
 6554TIP3    H141077   2.926   2.328  11.811  0.8562 -0.8005  1.2921
 6554TIP3    H241078   2.791   2.266  11.841 -0.6265  0.9725 -1.3165
 6555TIP3   OH241079   2.049   3.080  12.496  1.0442  0.1528  0.3315
 6555TIP3    H141080   2.052   3.174  12.479 -1.1295  0.1297 -0.5892
 6555TIP3    H241081   1.960   3.065  12.530  0.4161 -1.8561 -1.9006
 6556TIP3   OH241082   2.537   5.497   3.399  0.3048  0.1961 -0.2555
 6556TIP3    H141083   2.541   5.589   3.370 -1.7367  0.0748 -1.0725
 6556TIP3    H241084   2.445   5.483   3.420  0.3191 -2.0332 -1.4379
 6557TIP3   OH241085   0.163   4.840   2.900  0.0267  0.3212  0.0095
 6557TIP3    H141086   0.247   4.820   2.859 -0.0038 -0.5967  0.3648
 6557TIP3    H241087   0.185   4.868   2.989  0.0439  1.5911 -0.3748
 6558TIP3   OH241088   5.797   3.030  14.559  0.0818  0.5359 -0.2302
 6558TIP3    H141089   5.834   3.107  14.515  1.9059 -0.0676  0.1636
 6558TIP3    H241090   5.779   3.060  14.648  0.0343  0.7309 -0.3051
 6559TIP3   OH241091   3.103   5.165  12.472 -0.1863  0.0083  0.1819
 6559TIP3    H141092   3.011   5.158  12.448  0.2086  0.8759 -1.9054
 6559TIP3    H241093   3.149   5.109  12.409  0.6294 -2.0131  2.4349
 6560TIP3   OH241094   2.938   4.383   4.475  0.0980 -0.3388 -0.0090
 6560TIP3    H141095   2.891   4.461   4.445  0.8574 -0.4805 -1.6727
 6560TIP3    H241096   3.026   4.414   4.493  0.1565 -0.6411  0.2371
 6561TIP3   OH241097   0.236   3.081   5.534  0.7162 -0.2511  0.5361
 6561TIP3    H141098   0.262   2.997   5.571 -0.1098 -0.1285  1.4609
 6561TIP3    H241099   0.296   3.145   5.573  0.1107 -0.1779  1.3995
 6562TIP3   OH241100   4.793   4.816  16.087 -0.7891  0.6303  0.7704
 6562TIP3    H141101   4.854   4.804  16.014 -0.5873  0.0362  1.0283
 6562TIP3    H241102   4.783   4.911  16.094  0.5924  0.7698  1.1219
 6563TIP3   OH241103   1.465   1.916   3.752  0.2192 -0.2426 -0.1677
 6563TIP3    H141104   1.390   1.856   3.750  0.0113 -0.0368  0.7946
 6563TIP3    H241105   1.537   1.863   3.787 -0.7424  0.7641  4.0104
 6564TIP3   OH241106   3.528   6.689  11.856  0.0286  0.3149  0.0458
 6564TIP3    H141107   3.572   6.627  11.798  1.0578  0.5965  0.5025
 6564TIP3    H241108   3.510   6.638  11.935 -1.6089 -0.1415 -0.5899
 6565TIP3   OH241109   2.812   2.962  15.981  0.2470 -0.0973  0.3053
 6565TIP3    H141110   2.826   2.873  16.013  1.4697 -0.1264 -0.2832
 6565TIP3    H241111   2.786   3.011  16.060  0.5002 -0.7582  0.8129
 6566TIP3   OH241112   4.971   3.451  11.732  0.5327 -0.8005  0.0923
 6566TIP3    H141113   5.055   3.495  11.721  1.6202 -2.2671  1.8860
 6566TIP3    H241114   4.983   3.395  11.809 -2.4145 -0.3511  1.0145
 6567TIP3   OH241115   6.223   0.318  10.947 -0.4221  0.2512  0.2239
 6567TIP3    H141116   6.139   0.329  10.903 -0.7794 -1.5856  0.3850
 6567TIP3    H241117   6.268   0.401  10.932 -2.1840  1.2360 -0.0023
 6568TIP3   OH241118   0.035   0.693   0.672  0.5564 -0.3619 -0.3732
 6568TIP3    H141119   0.066   0.713   0.760  1.4194  0.4527 -0.8508
 6568TIP3    H241120  -0.035   0.757   0.656 -0.3578 -1.2037  0.1097
 6569TIP3   OH241121   0.639   4.966   1.075 -0.1993 -0.1913 -0.0482
 6569TIP3    H141122   0.631   4.934   0.985  0.8635  1.4170 -0.7496
 6569TIP3    H241123   0.697   4.902   1.118  1.3639  0.3699 -1.2378
 6570TIP3   OH241124   2.491   2.604  17.112 -0.1384  0.1668 -0.1006
 6570TIP3    H141125   2.418   2.612  17.173  0.3145 -0.9803  0.6428
 6570TIP3    H241126   2.551   2.674  17.137  0.0490 -0.2966  0.8238
 6571TIP3   OH241127   0.868   5.708  12.916 -0.2233  0.4090 -0.2789
 6571TIP3    H141128   0.846   5.628  12.965  1.3015 -0.6274 -1.1921
 6571TIP3    H241129   0.805   5.710  12.844 -1.6448  1.2353  0.9413
 6572TIP3   OH241130   0.078   1.258   1.011  0.7917 -0.3117  0.2627
 6572TIP3    H141131   0.095   1.349   0.985  0.4411 -0.4881 -0.6280
 6572TIP3    H241132   0.024   1.266   1.090 -1.1409  0.3060 -1.0417
 6573TIP3   OH241133   0.404   6.217  11.764 -0.0088 -0.3762 -0.7283
 6573TIP3    H141134   0.412   6.149  11.696 -1.3921 -0.8356 -0.4607
 6573TIP3    H241135   0.334   6.274  11.732  0.9843  0.8217 -0.8366
 6574TIP3   OH241136   6.416   4.796  11.120 -0.0834  0.2836 -0.0355
 6574TIP3    H141137   6.414   4.728  11.053  3.0780 -0.1629  0.1810
 6574TIP3    H241138   6.464   4.868  11.080  1.5402  0.1467  1.5309
 6575TIP3   OH241139   5.083   6.506   0.022 -0.4286  0.0340 -0.0824
 6575TIP3    H141140   5.053   6.551  -0.057  0.0505  0.1276 -0.2102
 6575TIP3    H241141   5.022   6.534   0.091 -0.3776  0.5574 -0.2509
 6576TIP3   OH241142   3.405   0.463  12.317  0.5125 -0.7094  0.2395
 6576TIP3    H141143   3.405   0.512  12.235 -0.4852 -2.3368 -0.7951
 6576TIP3    H241144   3.492   0.423  12.320  0.7492 -0.2010  0.2608
 6577TIP3   OH241145   4.001   4.039   3.306 -0.3961 -0.4262 -0.0939
 6577TIP3    H141146   4.073   4.068   3.249 -1.5970  0.8062 -1.0667
 6577TIP3    H241147   3.944   3.989   3.248 -0.3647 -1.3450  0.6541
 6578TIP3   OH241148   2.227   6.268  14.619 -0.4301  0.1269  0.5568
 6578TIP3    H141149   2.278   6.333  14.572  0.0992 -0.8124 -0.2003
 6578TIP3    H241150   2.278   6.248  14.697 -1.4129  1.8488  1.7035
 6579TIP3   OH241151   1.163   6.328   1.696  0.1160 -0.0534 -0.2371
 6579TIP3    H141152   1.149   6.261   1.629 -0.5781  1.2229 -1.4316
 6579TIP3    H241153   1.252   6.312   1.728  0.3579 -0.8800 -1.2679
 6580TIP3   OH241154   1.896   4.890  13.446  0.4071  0.4946 -0.1287
 6580TIP3    H141155   1.979   4.898  13.398  1.0885  1.9246  1.1747
 6580TIP3    H241156   1.921   4.849  13.529  0.0909  2.0490  0.7879
 6581TIP3   OH241157   0.315   0.175  10.650 -0.5494 -1.0617  0.4208
 6581TIP3    H141158   0.402   0.198  10.682 -0.9687 -0.8744  1.4713
 6581TIP3    H241159   0.279   0.257  10.616 -0.3552 -1.1180  0.0790
 6582TIP3   OH241160   6.378   5.082  13.853 -0.4240  0.2159  0.9722
 6582TIP3    H141161   6.310   5.131  13.806 -0.0553 -0.2433 -0.0645
 6582TIP3    H241162   6.330   5.029  13.916 -0.8739  1.4180  1.6750
 6583TIP3   OH241163   3.665   2.917   6.639  0.0452  0.2125 -0.0214
 6583TIP3    H141164   3.685   2.868   6.560  0.2290  1.4260 -0.7569
 6583TIP3    H241165   3.743   2.908   6.694  1.1158  1.6919 -1.2096
 6584TIP3   OH241166   0.124   1.059   4.705  0.3037 -0.1220  0.2641
 6584TIP3    H141167   0.120   1.119   4.780  1.5575  2.1988 -1.4089
 6584TIP3    H241168   0.032   1.044   4.682 -0.0829  2.1543  0.0409
 6585TIP3   OH241169   3.587   5.676  15.243  0.1448 -0.2363  0.4662
 6585TIP3    H141170   3.682   5.670  15.256  0.2842 -0.0020 -0.3764
 6585TIP3    H241171   3.550   5.616  15.308  0.9243 -1.2083  0.0361
 6586TIP3   OH241172   3.006   6.428   5.384  0.0639  0.1873 -0.0821
 6586TIP3    H141173   2.958   6.495   5.432  0.5839  0.4051  0.1454
 6586TIP3    H241174   3.059   6.383   5.450 -2.0748 -2.1205  0.2136
 6587TIP3   OH241175   1.451   4.320   5.393 -0.1467  0.4049  0.6530
 6587TIP3    H141176   1.357   4.338   5.395 -0.8114 -2.1166 -1.5976
 6587TIP3    H241177   1.465   4.261   5.466 -0.6897 -0.5149  0.0371
 6588TIP3   OH241178   1.172   2.932  13.174  0.5197  0.2080  0.3951
 6588TIP3    H141179   1.106   2.997  13.150  1.1254  0.7977  0.2757
 6588TIP3    H241180   1.144   2.900  13.260 -0.1693  0.1062  0.1406
 6589TIP3   OH241181   4.427   4.828  17.214 -0.0381  0.0318 -0.8590
 6589TIP3    H141182   4.420   4.765  17.286 -1.4083 -0.2432 -1.2068
 6589TIP3    H241183   4.454   4.776  17.138  0.0341  0.0807 -0.8672
 6590TIP3   OH241184   6.045   4.348   0.080  0.1586 -0.1926  0.0501
 6590TIP3    H141185   6.108   4.280   0.058  0.3430 -0.1827  0.5352
 6590TIP3    H241186   6.058   4.415   0.013  1.9689  0.6533  1.1661
 6591TIP3   OH241187   3.332   0.806  14.808  0.4273 -0.4756 -0.1868
 6591TIP3    H141188   3.303   0.758  14.886  2.9221 -1.0527  0.4646
 6591TIP3    H241189   3.358   0.892  14.841  0.4994 -0.3490 -0.5644
 6592TIP3   OH241190   2.953   6.443  17.054 -0.0938 -0.0564 -0.5998
 6592TIP3    H141191   3.045   6.465  17.048  0.0018  0.8973  2.4169
 6592TIP3    H241192   2.952   6.348  17.066  0.6698  0.0912  0.8826
 6593TIP3   OH241193   0.045   0.685  10.710  0.0638 -0.1147 -0.1208
 6593TIP3    H141194   0.007   0.642  10.787 -0.4667  1.3509  0.4693
 6593TIP3    H241195  -0.029   0.695  10.650  0.3387 -0.6449 -0.5583
 6594TIP3   OH241196   1.055   4.307  11.426  0.2826  0.1108 -0.2782
 6594TIP3    H141197   1.042   4.352  11.509  1.8888  1.9566 -0.9572
 6594TIP3    H241198   1.036   4.215  11.446 -1.0659  0.7475  1.6692
 6595TIP3   OH241199   6.061   1.386   0.962 -0.3629 -0.6840  0.0625
 6595TIP3    H141200   6.021   1.432   0.887 -2.3782 -1.6747  0.4373
 6595TIP3    H241201   6.106   1.454   1.011 -0.4547  0.2891 -1.1419
 6596TIP3   OH241202   5.015   1.996   5.152 -0.4626 -0.3720 -0.0238
 6596TIP3    H141203   4.940   1.980   5.208 -0.2247  2.4344  1.2637
 6596TIP3    H241204   4.980   2.048   5.079  0.4910  4.2077  2.3759
 6597TIP3   OH241205   5.065   3.325   5.941 -0.0709 -0.0310  0.3902
 6597TIP3    H141206   4.992   3.382   5.919 -1.1185 -0.7503  1.7688
 6597TIP3    H241207   5.054   3.248   5.885  0.6083  0.5539 -0.5692
 6598TIP3   OH241208   3.697   3.122  15.319 -0.0876  0.0315 -0.1718
 6598TIP3    H141209   3.625   3.060  15.328  0.1060 -0.3650 -1.1944
 6598TIP3    H241210   3.685   3.160  15.232  0.6731  0.2967 -0.1693
 6599TIP3   OH241211   2.484   6.547   5.543 -0.3533 -0.1921 -0.0764
 6599TIP3    H141212   2.420   6.542   5.472  1.6482 -0.8241 -1.9451
 6599TIP3    H241213   2.454   6.481   5.607 -1.9502  0.0732 -0.5037
 6600TIP3   OH241214   4.406   3.134  13.739 -0.1917  0.2041  0.0783
 6600TIP3    H141215   4.349   3.118  13.814 -0.3014 -0.2621 -0.1054
 6600TIP3    H241216   4.451   3.051  13.724 -0.3356  0.2300 -0.5203
 6601TIP3   OH241217   2.721   1.104  12.312  0.2695  0.2178 -0.4338
 6601TIP3    H141218   2.740   1.180  12.257 -2.6923  1.8054  0.5420
 6601TIP3    H241219   2.651   1.058  12.267 -0.5181  0.1768  0.7859
 6602TIP3   OH241220   6.706   4.499  14.458 -0.1239  0.4136  0.0604
 6602TIP3    H141221   6.779   4.459  14.504 -1.2287 -1.2496  0.4332
 6602TIP3    H241222   6.747   4.564  14.400  1.5074  0.5452  1.2879
 6603TIP3   OH241223   1.823   0.412  17.044  0.3757 -0.2172 -0.7625
 6603TIP3    H141224   1.805   0.491  16.993  0.7787 -0.8572 -1.9250
 6603TIP3    H241225   1.903   0.376  17.006  0.7148 -0.6892  0.3665
 6604TIP3   OH241226   3.519   5.145   2.440  0.3949  0.2411 -0.1433
 6604TIP3    H141227   3.450   5.094   2.397  2.8339 -2.1997 -1.4867
 6604TIP3    H241228   3.478   5.179   2.519 -2.3428 -0.9996 -0.9045
 6605TIP3   OH241229   4.354   1.982  14.331 -0.1302  0.4613 -0.1516
 6605TIP3    H141230   4.399   1.921  14.390 -1.0045  0.4827  0.5683
 6605TIP3    H241231   4.402   2.064  14.341 -0.3487  0.5014  0.6498
 6606TIP3   OH241232   3.056   5.440   1.778 -0.2475 -0.6197 -0.6637
 6606TIP3    H141233   3.047   5.396   1.862 -0.9020  0.4851 -0.1393
 6606TIP3    H241234   3.147   5.470   1.776 -0.5955  0.5884  0.2982
 6607TIP3   OH241235   1.469   2.970  11.609  0.2038 -0.0147  0.2802
 6607TIP3    H141236   1.401   3.002  11.668  1.0572  2.7022 -0.0722
 6607TIP3    H241237   1.436   2.886  11.577 -1.4220 -0.3873  2.6518
 6608TIP3   OH241238   1.020   3.179   0.720  0.3244 -0.2097 -0.1301
 6608TIP3    H141239   0.956   3.248   0.740  1.0966  0.5820 -0.3296
 6608TIP3    H241240   1.032   3.133   0.803 -0.0423  0.0244  0.0594
 6609TIP3   OH241241   6.589   1.418   1.674  0.4944 -0.2090 -0.0329
 6609TIP3    H141242   6.548   1.483   1.730  0.1711 -0.3228 -0.1373
 6609TIP3    H241243   6.606   1.344   1.732 -1.6374 -1.1065 -0.4799
 6610TIP3   OH241244   1.974   2.445   2.457 -0.0863 -0.4210 -0.3670
 6610TIP3    H141245   2.045   2.393   2.496  0.0414 -0.5109 -0.7170
 6610TIP3    H241246   1.907   2.448   2.525 -0.1654 -1.1959 -0.4051
 6611TIP3   OH241247   3.875   0.212   1.774 -0.0087  0.5007  0.1751
 6611TIP3    H141248   3.908   0.227   1.863 -1.0396 -1.3606  0.9098
 6611TIP3    H241249   3.952   0.185   1.724  0.3004  0.0527  0.8853
 6612TIP3   OH241250   2.531   2.329  16.028 -0.0634  0.2400 -0.0797
 6612TIP3    H141251   2.477   2.323  16.107  0.4216  1.1407  0.3340
 6612TIP3    H241252   2.540   2.423  16.011  1.8639  0.1644  0.2378
 6613TIP3   OH241253   1.315   6.180  15.006  0.0737 -0.2709  0.5602
 6613TIP3    H141254   1.223   6.206  15.011 -0.2115 -1.0966 -0.1507
 6613TIP3    H241255   1.344   6.210  14.920  0.7867  0.9167  1.1828
 6614TIP3   OH241256   0.091   1.178   6.748  0.3801  0.2512 -0.0401
 6614TIP3    H141257   0.069   1.244   6.683  0.9748  0.5613  0.0702
 6614TIP3    H241258   0.142   1.112   6.700  0.5949  0.3473  0.0584
 6615TIP3   OH241259   0.693   2.558   1.199  0.5643 -0.2744  0.1417
 6615TIP3    H141260   0.613   2.506   1.191 -0.4743  1.5313 -3.1487
 6615TIP3    H241261   0.662   2.646   1.221  1.8662  0.0300  0.8699
 6616TIP3   OH241262   1.876   4.204  16.692 -0.1844  0.0536  0.1583
 6616TIP3    H141263   1.970   4.185  16.693 -0.2344 -0.2252  1.5558
 6616TIP3    H241264   1.854   4.210  16.599  1.7863  3.0432 -0.2514
 6617TIP3   OH241265   6.420   6.581  17.104  0.0161 -0.5091 -0.1066
 6617TIP3    H141266   6.500   6.533  17.125 -0.3359 -1.1474 -0.1807
 6617TIP3    H241267   6.350   6.517  17.117 -0.4802  0.0277 -0.0825
 6618TIP3   OH241268   5.545   6.104  16.913 -0.5603 -0.0552 -0.3630
 6618TIP3    H141269   5.497   6.086  16.995 -1.9043  0.5190 -0.9871
 6618TIP3    H241270   5.496   6.175  16.872  0.4537  0.0779 -1.3900
 6619TIP3   OH241271   2.592   3.083  15.587  0.4362  0.2990  0.1472
 6619TIP3    H141272   2.654   3.151  15.612  0.1519  0.3335  0.7709
 6619TIP3    H241273   2.507   3.127  15.584  0.3580  0.1316 -0.1671
 6620TIP3   OH241274   2.693   4.149  15.818 -0.4060 -0.2596  0.5505
 6620TIP3    H141275   2.766   4.100  15.780 -0.2341  0.3838  0.0295
 6620TIP3    H241276   2.643   4.180  15.742 -1.4723 -1.0484  0.9000
 6621TIP3   OH241277   4.974   4.868  11.372  0.1963 -0.1746 -0.2457
 6621TIP3    H141278   4.984   4.871  11.277 -2.2203 -0.6908 -0.5845
 6621TIP3    H241279   5.052   4.910  11.406  2.3040 -2.0759 -2.3775
 6622TIP3   OH241280   0.248   3.540   1.979  0.2667  0.5587  0.2755
 6622TIP3    H141281   0.322   3.537   1.918 -0.1610 -0.9991 -0.2288
 6622TIP3    H241282   0.285   3.513   2.063 -0.0416 -2.3892 -0.4175
 6623TIP3   OH241283   4.812   1.785   4.508  0.7241 -0.6644 -0.9988
 6623TIP3    H141284   4.745   1.747   4.450 -0.8872  2.6282 -1.5341
 6623TIP3    H241285   4.807   1.879   4.491  3.8180 -0.0582  0.8300
 6624TIP3   OH241286   0.430   1.382   6.042  0.1295  0.0300  0.3225
 6624TIP3    H141287   0.465   1.410   6.127  1.1785  0.8330 -0.3544
 6624TIP3    H241288   0.339   1.409   6.044 -0.6036 -2.1829  2.1712
 6625TIP3   OH241289   3.943   2.330  13.894 -0.8370 -0.2727  0.0050
 6625TIP3    H141290   3.889   2.388  13.841 -1.4019 -0.2797  0.5602
 6625TIP3    H241291   3.960   2.380  13.974 -0.6170 -0.5527  0.1342
 6626TIP3   OH241292   3.751   5.897  11.556 -0.5634 -0.0307  0.1245
 6626TIP3    H141293   3.780   5.878  11.645 -1.9153  0.0066  0.5998
 6626TIP3    H241294   3.690   5.826  11.535 -1.0583  0.5242 -0.3632
 6627TIP3   OH241295   5.254   4.818  15.065  0.0835 -0.1336  0.2295
 6627TIP3    H141296   5.209   4.742  15.101 -1.2400  0.5996  0.1930
 6627TIP3    H241297   5.202   4.843  14.988  1.0115  0.2691 -0.2901
 6628TIP3   OH241298   2.221   6.257  13.598 -0.2341  0.4516 -0.1122
 6628TIP3    H141299   2.134   6.254  13.638 -0.2141 -0.6545 -0.1175
 6628TIP3    H241300   2.274   6.306  13.661 -0.4386 -0.4349  0.7836
 6629TIP3   OH241301   5.259   3.175   3.621  0.3523 -0.1299 -0.4710
 6629TIP3    H141302   5.299   3.117   3.686 -1.4228  1.2854  2.0432
 6629TIP3    H241303   5.217   3.115   3.560  0.5518 -1.5490  0.7173
 6630TIP3   OH241304   5.688   1.114   3.112  0.4679  0.6878 -0.1773
 6630TIP3    H141305   5.730   1.109   3.026  2.8315  0.3912  0.9147
 6630TIP3    H241306   5.758   1.142   3.171 -1.0934  0.9047  1.6555
 6631TIP3   OH241307   3.983   1.214   0.209 -0.8481 -0.0019 -0.1959
 6631TIP3    H141308   3.910   1.263   0.172 -1.3877 -0.5408  0.1424
 6631TIP3    H241309   4.048   1.211   0.139  0.2149  3.1854  0.4872
 6632TIP3   OH241310   6.105   5.228   5.292  0.3348  0.7426  0.4400
 6632TIP3    H141311   6.187   5.235   5.243  0.9610  2.2242  1.6368
 6632TIP3    H241312   6.095   5.135   5.310  2.5151  0.6796  1.5199
 6633TIP3   OH241313   4.821   4.759   5.576  0.2082 -0.2300  0.3040
 6633TIP3    H141314   4.776   4.745   5.493 -2.2072 -1.2617  1.7014
 6633TIP3    H241315   4.884   4.828   5.557  0.1468 -0.7955 -2.5034
 6634TIP3   OH241316   2.140   6.106  16.447  0.3568  0.2271  0.2941
 6634TIP3    H141317   2.081   6.032  16.459  0.0634  0.2141 -1.0289
 6634TIP3    H241318   2.085   6.175  16.412  0.7041  0.9641  1.1799
 6635TIP3   OH241319   4.100   2.802  12.058  0.1368  0.1414 -0.0635
 6635TIP3    H141320   4.110   2.779  12.150  0.1654 -2.5717 -0.6633
 6635TIP3    H241321   4.006   2.808  12.044  0.1124 -0.1252 -0.0077
 6636TIP3   OH241322   0.744   4.926  13.372 -0.3425 -0.1934 -0.4457
 6636TIP3    H141323   0.763   5.009  13.328  0.4784  0.2699  0.7393
 6636TIP3    H241324   0.672   4.888  13.321  0.1664  0.5956 -1.8114
 6637TIP3   OH241325   4.910   3.250  13.803  0.1029  0.8272  0.0867
 6637TIP3    H141326   4.840   3.293  13.851 -1.1630 -0.1338 -0.8102
 6637TIP3    H241327   4.984   3.246  13.864 -0.6718  1.7234  1.1054
 6638TIP3   OH241328   0.319   2.264   5.451 -0.6051 -0.5414  0.1079
 6638TIP3    H141329   0.249   2.284   5.389 -0.4239 -1.7307 -0.5031
 6638TIP3    H241330   0.277   2.216   5.521 -0.5033 -0.7291  0.0405
 6639TIP3   OH241331   0.892   1.521  13.836  0.3096  0.3792  0.1427
 6639TIP3    H141332   0.901   1.486  13.925  0.4549 -2.6385 -0.9306
 6639TIP3    H241333   0.801   1.502  13.812  1.0210 -1.5563 -1.2936
 6640TIP3   OH241334   4.561   6.117   0.071  0.0319 -0.5637 -0.1819
 6640TIP3    H141335   4.603   6.195   0.106 -1.0206  0.1182 -0.4088
 6640TIP3    H241336   4.508   6.148  -0.003 -0.2331 -1.5174 -0.4165
 6641TIP3   OH241337   4.176   0.714  14.670  0.7255  0.2187 -0.4420
 6641TIP3    H141338   4.185   0.806  14.694 -0.0352  0.1254  0.2552
 6641TIP3    H241339   4.213   0.708  14.582  0.6799  1.2091 -0.5366
 6642TIP3   OH241340   2.973   4.278  16.230  0.0029 -0.0792 -0.8204
 6642TIP3    H141341   2.887   4.265  16.271  0.5094  0.4526  0.4680
 6642TIP3    H241342   3.036   4.257  16.299  1.0458 -3.2574 -2.5114
 6643TIP3   OH241343   6.677   3.724  11.883  0.3457 -0.5731 -0.1958
 6643TIP3    H141344   6.729   3.747  11.960  0.3641  0.3754 -0.4792
 6643TIP3    H241345   6.618   3.656  11.914  0.6107 -0.4732  0.5602
 6644TIP3   OH241346   5.854   4.832  13.025 -0.1436 -0.4745 -0.4285
 6644TIP3    H141347   5.860   4.831  13.121 -0.2964  2.8993 -0.2922
 6644TIP3    H241348   5.845   4.739  13.002  1.2903 -1.5637  2.6823
 6645TIP3   OH241349   0.557   4.803   0.167 -0.0925 -0.0709  0.6420
 6645TIP3    H141350   0.636   4.785   0.217  0.1510 -1.3099 -0.1417
 6645TIP3    H241351   0.494   4.834   0.232  0.7351  0.0012  1.4280
 6646TIP3   OH241352   2.622   6.241  15.012 -0.0981  0.2819  0.4230
 6646TIP3    H141353   2.616   6.146  15.020 -1.5617  0.1862 -1.1784
 6646TIP3    H241354   2.663   6.270  15.093  1.0454 -1.7632  0.6380
 6647TIP3   OH241355   4.921   5.294  15.009  0.1103 -0.0168  0.1612
 6647TIP3    H141356   4.940   5.230  14.940  1.0547 -0.0371  0.4217
 6647TIP3    H241357   4.958   5.256  15.088 -2.0875 -0.5919  0.9830
 6648TIP3   OH241358   0.728   3.780  16.994  0.5853  0.0930  0.1160
 6648TIP3    H141359   0.695   3.691  17.000  0.2681  0.1581 -0.5367
 6648TIP3    H241360   0.710   3.806  16.903  1.5511  0.4702  0.0130
 6649TIP3   OH241361   4.425   0.225   4.430  0.1311 -0.4219 -0.3123
 6649TIP3    H141362   4.460   0.288   4.367  0.1951 -1.0743 -0.9405
 6649TIP3    H241363   4.472   0.143   4.411  1.2406 -0.2870  1.5517
 6650TIP3   OH241364   3.664   1.687   1.530  0.2640  0.3191 -0.3162
 6650TIP3    H141365   3.601   1.714   1.597 -0.4933 -1.2150 -0.3815
 6650TIP3    H241366   3.613   1.635   1.469  1.1618  0.8702 -1.5767
 6651TIP3   OH241367   3.392   1.121  15.201 -0.6556  0.0749  0.1403
 6651TIP3    H141368   3.376   1.057  15.271 -1.1970 -1.7673 -1.5777
 6651TIP3    H241369   3.321   1.184  15.209 -1.3784 -0.7802  0.5249
 6652TIP3   OH241370   2.253   5.946   5.039  0.3712  0.0006  0.5886
 6652TIP3    H141371   2.339   5.976   5.069 -0.0712  0.0020  1.9026
 6652TIP3    H241372   2.228   5.879   5.102 -1.1708  0.9065  0.9692
 6653TIP3   OH241373   1.254   3.168   2.275  0.9020  0.8679  0.3774
 6653TIP3    H141374   1.242   3.260   2.252 -1.0452  0.8747  1.2609
 6653TIP3    H241375   1.193   3.121   2.218  0.8464  0.2761  0.9157
 6654TIP3   OH241376   1.918   3.666   5.319 -0.3852  0.0324 -0.5036
 6654TIP3    H141377   1.854   3.612   5.273 -0.0199 -1.1080  0.2820
 6654TIP3    H241378   1.997   3.612   5.323  1.1022  1.8715 -2.5535
 6655TIP3   OH241379   1.980   1.043  13.340 -0.5621 -0.6027  0.2299
 6655TIP3    H141380   1.972   1.070  13.432  0.8556  0.2615  0.1207
 6655TIP3    H241381   2.010   0.953  13.345  0.5048 -0.2414  0.6404
 6656TIP3   OH241382   3.276   5.188  13.809  0.2828  0.0204 -0.2153
 6656TIP3    H141383   3.262   5.230  13.723  0.5871  0.7689  0.0922
 6656TIP3    H241384   3.242   5.252  13.872  0.3113 -0.4138  0.2410
 6657TIP3   OH241385   5.492   1.791  15.781 -0.0562 -0.1025 -0.1736
 6657TIP3    H141386   5.414   1.794  15.726 -0.2861  0.1611  0.1625
 6657TIP3    H241387   5.459   1.773  15.869  0.3039 -0.4567 -0.1072
 6658TIP3   OH241388   5.871   2.789   1.827 -0.7112 -0.7335 -0.2400
 6658TIP3    H141389   5.778   2.766   1.822 -0.5451 -1.7463  0.8688
 6658TIP3    H241390   5.917   2.705   1.819  0.1078 -0.2489 -0.7159
 6659TIP3   OH241391   3.584   3.053  11.566 -0.2164  0.4374  0.5408
 6659TIP3    H141392   3.643   2.978  11.567  0.6139  1.0420 -1.1483
 6659TIP3    H241393   3.499   3.016  11.540 -0.0671 -0.0628  0.7480
 6660TIP3   OH241394   6.485   1.301  14.079  0.5744 -0.0239  0.3884
 6660TIP3    H141395   6.396   1.311  14.114  1.0339  1.3342  1.2746
 6660TIP3    H241396   6.538   1.277  14.154  1.3211  1.4201  0.3697
 6661TIP3   OH241397   2.494   5.176   2.705  0.1770  0.1947  0.8109
 6661TIP3    H141398   2.423   5.214   2.758  0.8376  0.7339  1.3191
 6661TIP3    H241399   2.572   5.223   2.732  0.3858  1.2217 -1.4113
 6662TIP3   OH241400   4.750   4.181   1.243 -0.1503  0.0851  0.5235
 6662TIP3    H141401   4.807   4.221   1.178  1.2434 -1.7418  0.5458
 6662TIP3    H241402   4.750   4.088   1.221 -0.6464 -0.4018  2.3839
 6663TIP3   OH241403   3.829   3.815   1.111 -0.5736 -0.0423 -0.1358
 6663TIP3    H141404   3.770   3.874   1.064 -1.1297 -0.4913 -0.0137
 6663TIP3    H241405   3.816   3.836   1.203  0.0775  0.4303 -0.1493
 6664TIP3   OH241406   4.630   4.302   3.662  0.4728  0.0523  0.3279
 6664TIP3    H141407   4.719   4.275   3.683  0.6326  1.6246  1.8710
 6664TIP3    H241408   4.582   4.298   3.745 -1.1045 -1.3694 -0.5769
 6665TIP3   OH241409   0.038   1.260   3.660 -0.3459 -0.2209 -0.0968
 6665TIP3    H141410  -0.005   1.297   3.583 -0.0280  0.0863 -0.1284
 6665TIP3    H241411   0.041   1.332   3.722  0.5775 -0.0919 -0.2815
 6666TIP3   OH241412   1.599   1.980   1.783  0.2593 -0.3658  0.6741
 6666TIP3    H141413   1.661   2.031   1.835 -0.5480  0.8567  0.4621
 6666TIP3    H241414   1.525   2.038   1.769 -0.5667 -1.4965  0.1604
 6667TIP3   OH241415   6.239   4.370   1.799  0.3326 -0.2519 -0.3510
 6667TIP3    H141416   6.145   4.369   1.780  0.4841 -0.3173 -1.1047
 6667TIP3    H241417   6.270   4.284   1.769  0.3803 -0.8320  1.2498
 6668TIP3   OH241418   6.700   5.965  12.356  0.2038 -0.3059  0.3264
 6668TIP3    H141419   6.714   6.038  12.295  0.2218 -0.1955  0.4615
 6668TIP3    H241420   6.788   5.934  12.377  0.2934  0.7173  1.5753
 6669TIP3   OH241421   6.384   0.588  13.400  0.4695  0.4021  0.4979
 6669TIP3    H141422   6.343   0.632  13.474  1.7967 -0.2056  1.6549
 6669TIP3    H241423   6.424   0.658  13.349 -2.7798  1.1320 -1.2672
 6670TIP3   OH241424   0.254   2.857  16.882 -0.3735 -0.4936  0.3196
 6670TIP3    H141425   0.274   2.930  16.940 -1.8403 -0.6899  1.1211
 6670TIP3    H241426   0.330   2.850  16.825 -1.3204  3.5156 -1.7776
 6671TIP3   OH241427   5.666   1.274  15.952  0.1580  0.2144  0.1162
 6671TIP3    H141428   5.748   1.230  15.973 -0.6831 -1.5187 -0.0286
 6671TIP3    H241429   5.685   1.368  15.962  2.1946 -0.1290 -0.1593
 6672TIP3   OH241430   2.788   3.514   2.326  0.2410 -0.1611 -0.4131
 6672TIP3    H141431   2.710   3.532   2.272 -0.1452 -0.5075  0.0162
 6672TIP3    H241432   2.772   3.562   2.407 -0.4188 -1.7253  0.4195
 6673TIP3   OH241433   0.178   5.493  15.066 -0.0363 -0.4749 -0.2304
 6673TIP3    H141434   0.194   5.558  15.134 -1.2178 -0.2406 -0.1598
 6673TIP3    H241435   0.180   5.542  14.984  1.5860 -0.7886 -0.4259
 6674TIP3   OH241436   3.504   4.935   5.721 -0.2900 -0.5700  0.2316
 6674TIP3    H141437   3.433   4.998   5.730 -0.7274 -0.9862 -0.1967
 6674TIP3    H241438   3.461   4.853   5.697  0.3586 -0.7510 -0.3779
 6675TIP3   OH241439   4.682   4.430  16.570 -0.1730 -0.4339 -0.8007
 6675TIP3    H141440   4.624   4.356  16.555 -0.5943 -0.0738 -0.9747
 6675TIP3    H241441   4.657   4.494  16.503 -0.3614  0.1863 -0.1485
 6676TIP3   OH241442   1.971   4.112   0.652 -0.0540 -0.7918  0.0062
 6676TIP3    H141443   1.944   4.104   0.744 -0.4316  1.1271  0.1049
 6676TIP3    H241444   1.891   4.137   0.606  0.1920 -1.4673 -0.8215
 6677TIP3   OH241445   5.784   2.520  14.958  0.0556  0.3182  0.4844
 6677TIP3    H141446   5.879   2.520  14.953  0.0426  1.9590 -0.5790
 6677TIP3    H241447   5.764   2.467  15.036  1.6290 -3.0405 -1.1883
 6678TIP3   OH241448   5.772   2.048   0.316  0.4509 -0.2140  0.0159
 6678TIP3    H141449   5.803   1.959   0.333 -0.3987 -0.4114  0.6028
 6678TIP3    H241450   5.714   2.068   0.390 -2.3212 -0.5851 -1.9295
 6679TIP3   OH241451   2.955   0.429  16.330 -0.0819 -0.1034  0.0120
 6679TIP3    H141452   2.940   0.521  16.353 -3.0661 -0.2225 -1.0788
 6679TIP3    H241453   3.028   0.432  16.268  0.4154  1.4309  0.6276
 6680TIP3   OH241454   3.534   0.003  17.154 -0.6781  0.2643 -0.3971
 6680TIP3    H141455   3.506   0.077  17.208  1.6387  1.3334 -0.5223
 6680TIP3    H241456   3.479   0.008  17.076 -0.4276  2.0439 -0.5103
 6681TIP3   OH241457   1.020   0.073   1.790  0.1113 -0.4611  0.1808
 6681TIP3    H141458   1.101   0.114   1.819  0.2728 -0.0766 -0.7894
 6681TIP3    H241459   1.042  -0.019   1.779 -0.2139 -0.8314  2.2168
 6682TIP3   OH241460   5.081   2.296   3.738 -0.5321 -0.8002 -0.3252
 6682TIP3    H141461   5.008   2.273   3.680  0.8536 -2.3046 -1.5690
 6682TIP3    H241462   5.155   2.307   3.680 -0.0670  2.5580  0.7122
 6683TIP3   OH241463   2.794   0.971  14.519 -0.3099 -0.2495 -0.2371
 6683TIP3    H141464   2.868   0.964  14.458 -0.1381 -3.8336  0.1585
 6683TIP3    H241465   2.749   1.052  14.493  2.6051  1.0275 -1.7499
 6684TIP3   OH241466   5.589   6.354  13.308  0.1900  0.0351  0.0866
 6684TIP3    H141467   5.671   6.374  13.353 -0.3015  0.0525  1.0067
 6684TIP3    H241468   5.607   6.372  13.215  0.9782  0.8353  0.3796
 6685TIP3   OH241469   2.285   0.175  15.371  0.3025 -0.9211 -0.0135
 6685TIP3    H141470   2.318   0.253  15.416 -0.1481  0.1745 -1.5304
 6685TIP3    H241471   2.276   0.110  15.441 -0.4543  0.7367  1.5061
 6686TIP3   OH241472   5.553   3.201  12.081  0.4688  0.0816 -0.3550
 6686TIP3    H141473   5.629   3.178  12.135 -0.9915 -0.0366  1.7727
 6686TIP3    H241474   5.498   3.123  12.084 -1.2018  1.2242  0.9112
 6687TIP3   OH241475   2.712   1.282   4.934  0.3789  0.2903 -0.1081
 6687TIP3    H141476   2.683   1.330   5.012 -0.1148 -2.2360  1.3689
 6687TIP3    H241477   2.801   1.313   4.919  0.3695  1.0805  1.2422
 6688TIP3   OH241478   6.481   2.980   5.795  0.2725  0.0177  0.4083
 6688TIP3    H141479   6.424   2.987   5.873  0.9578 -0.6120  0.9866
 6688TIP3    H241480   6.570   2.983   5.830  0.5971 -1.1684 -0.2416
 6689TIP3   OH241481   0.581   0.149   1.899  0.4032  0.3584 -0.6433
 6689TIP3    H141482   0.639   0.073   1.894  4.9631  3.3107  0.9408
 6689TIP3    H241483   0.601   0.199   1.820 -1.5240  0.5997 -1.0157
 6690TIP3   OH241484   5.497   2.036  15.212 -0.5414  0.4749 -0.1658
 6690TIP3    H141485   5.540   1.962  15.168  0.7603  1.5387 -0.7559
 6690TIP3    H241486   5.546   2.048  15.293 -0.2677  1.1208 -0.4139
 6691TIP3   OH241487   6.401   0.653   1.927  0.5884  0.1766  0.6659
 6691TIP3    H141488   6.445   0.603   1.997  0.3443 -1.2409 -0.1564
 6691TIP3    H241489   6.313   0.668   1.961 -0.6405 -3.4039 -0.5578
 6692TIP3   OH241490   2.444   1.959   5.773 -0.9923  0.5730  0.2349
 6692TIP3    H141491   2.471   2.019   5.843  0.5917 -0.3922  0.5102
 6692TIP3    H241492   2.420   2.017   5.700 -0.8142  1.5612  0.9371
 6693TIP3   OH241493   3.881   4.330   2.358  0.3329  0.1120  0.5744
 6693TIP3    H141494   3.862   4.247   2.315  0.9814  0.1036  0.2937
 6693TIP3    H241495   3.970   4.352   2.331 -0.2888  1.5659 -0.4492
 6694TIP3   OH241496   3.809   6.082   0.886 -0.3330  0.0770  0.4051
 6694TIP3    H141497   3.827   5.996   0.848  0.2662  0.0983  0.6257
 6694TIP3    H241498   3.721   6.075   0.923 -0.9770  0.0909 -1.0658
 6695TIP3   OH241499   3.659   3.204  15.065 -0.1022  0.3423 -0.3674
 6695TIP3    H141500   3.642   3.138  14.998 -2.3089 -0.0404  0.4746
 6695TIP3    H241501   3.713   3.270  15.022 -2.9978  1.0986 -3.2179
 6696TIP3   OH241502   5.614   1.191   4.690 -0.3266  0.1825  0.0749
 6696TIP3    H141503   5.543   1.188   4.626  0.4624  0.9578 -0.8809
 6696TIP3    H241504   5.626   1.100   4.717 -1.2192 -0.0463 -0.2614
 6697TIP3   OH241505   5.017   2.393  14.414  0.2947 -0.2779  0.7509
 6697TIP3    H141506   5.042   2.367  14.325 -0.9243 -0.2605  0.3887
 6697TIP3    H241507   5.005   2.311  14.461 -1.0118 -0.3443  0.3292
 6698TIP3   OH241508   3.022   0.070  16.969 -0.3106  0.0561 -0.3005
 6698TIP3    H141509   3.087   0.140  16.955 -0.5875  0.0135 -1.9331
 6698TIP3    H241510   3.064   0.012  17.033  0.6466  0.7934 -0.2228
 6699TIP3   OH241511   2.808   2.484   4.149 -0.2366  0.4488  0.2674
 6699TIP3    H141512   2.822   2.572   4.183 -1.1857  0.8684 -0.3698
 6699TIP3    H241513   2.893   2.442   4.154 -0.2173  0.6675  2.6055
 6700TIP3   OH241514   5.584   2.066  14.857 -0.3603  0.0232  0.4998
 6700TIP3    H141515   5.545   2.153  14.865  0.2726  0.6598 -2.2105
 6700TIP3    H241516   5.637   2.071  14.777 -2.8596 -3.7035 -1.6953
 6701TIP3   OH241517   3.779   2.410   2.868 -0.2478  0.0549  0.0044
 6701TIP3    H141518   3.849   2.374   2.922 -0.0246  1.0403  0.3975
 6701TIP3    H241519   3.711   2.436   2.930 -1.1953 -1.3527 -0.4132
 6702TIP3   OH241520   6.258   0.981  15.475 -0.0888  0.2432 -0.2987
 6702TIP3    H141521   6.305   0.901  15.499  0.0815  0.0355 -1.2850
 6702TIP3    H241522   6.243   0.972  15.381 -0.4463  1.1816 -0.3340
 6703TIP3   OH241523   0.500   2.214  16.708 -0.0799  0.2561  0.2228
 6703TIP3    H141524   0.522   2.221  16.801 -2.4053 -3.2648  1.2799
 6703TIP3    H241525   0.407   2.237  16.704 -0.2881 -0.7100 -0.9928
 6704TIP3   OH241526   3.716   6.635   0.703  0.2651 -0.5972 -1.1221
 6704TIP3    H141527   3.702   6.707   0.641  3.0138 -0.1298 -1.3135
 6704TIP3    H241528   3.727   6.679   0.788 -0.6656 -1.0301 -0.7640
 6705TIP3   OH241529   6.563   4.448  15.188  0.5756  0.3910  0.4660
 6705TIP3    H141530   6.630   4.400  15.237 -0.3258 -1.4476 -0.0083
 6705TIP3    H241531   6.572   4.417  15.098 -2.2405 -1.6109  0.7407
 6706TIP3   OH241532   3.790   5.091   1.036 -0.1264  0.0215 -0.1590
 6706TIP3    H141533   3.714   5.129   0.992 -0.1978 -0.6709 -0.6598
 6706TIP3    H241534   3.771   4.997   1.038 -0.3182  0.0556  1.7323
 6707TIP3   OH241535   2.736   0.510  13.902  0.1876  0.8601  0.5127
 6707TIP3    H141536   2.743   0.574  13.831 -0.4116 -0.6659 -0.9949
 6707TIP3    H241537   2.712   0.428  13.858 -0.0783 -0.1747  2.4758
 6708TIP3   OH241538   1.483   6.511   4.389 -0.0570 -0.0445  0.0464
 6708TIP3    H141539   1.397   6.543   4.415 -0.6770 -2.3577  1.1649
 6708TIP3    H241540   1.531   6.589   4.363 -2.1628  1.4357  0.3232
 6709TIP3   OH241541   0.227   1.472  11.152  0.6263  0.1527  0.1464
 6709TIP3    H141542   0.279   1.404  11.109  0.3765 -0.4317  0.7470
 6709TIP3    H241543   0.147   1.479  11.100  1.1508  0.8236 -0.5923
 6710TIP3   OH241544   3.762   4.463   4.364  0.3137  0.4227 -0.6083
 6710TIP3    H141545   3.678   4.492   4.328 -0.0480  0.0409 -0.0732
 6710TIP3    H241546   3.765   4.499   4.452  0.3627 -0.2045 -0.3461
 6711TIP3   OH241547   1.822   0.829   5.058  0.0361 -0.4297 -0.0886
 6711TIP3    H141548   1.833   0.912   5.102 -0.4044 -0.0752 -0.6190
 6711TIP3    H241549   1.800   0.767   5.127 -1.7955  0.3462  0.1042
 6712TIP3   OH241550   3.434   5.851   1.236  0.6641 -0.2254  0.5005
 6712TIP3    H141551   3.348   5.891   1.241 -0.2922 -2.1833  0.6355
 6712TIP3    H241552   3.443   5.826   1.144  1.2793  0.3388  0.4001
 6713TIP3   OH241553   3.652   4.914   0.743  0.4363 -0.0279  0.0655
 6713TIP3    H141554   3.615   4.861   0.673 -1.1865  0.2194  0.7020
 6713TIP3    H241555   3.577   4.942   0.795  1.3629  1.7913  0.5220
 6714TIP3   OH241556   0.579   3.346  16.546  0.5741 -0.6279  0.0032
 6714TIP3    H141557   0.616   3.338  16.634 -1.4997 -2.2661  0.8163
 6714TIP3    H241558   0.620   3.276  16.496  1.4083  0.0173 -0.2536
 6715TIP3   OH241559   4.391   6.284   2.355  0.3218 -0.1680 -0.6157
 6715TIP3    H141560   4.476   6.324   2.371  1.0660 -1.9692  0.1097
 6715TIP3    H241561   4.380   6.220   2.426 -1.7742  0.2231 -0.5040
 6716TIP3   OH241562   0.038   5.500  16.665 -0.1639  0.2050  0.5867
 6716TIP3    H141563   0.029   5.405  16.663  2.8864 -0.1605 -0.8462
 6716TIP3    H241564  -0.014   5.531  16.591 -3.3425  0.0588  2.5441
 6717TIP3   OH241565   3.082   5.302   4.636  0.3219  0.2113  0.4320
 6717TIP3    H141566   3.016   5.366   4.664  1.4867  1.8473 -0.3504
 6717TIP3    H241567   3.039   5.251   4.568 -1.3916 -1.4844  2.6339
 6718TIP3   OH241568   4.007   0.107  17.177  0.0435  0.2107 -0.8115
 6718TIP3    H141569   4.013   0.011  17.173  0.2967  0.1208  0.9241
 6718TIP3    H241570   4.085   0.133  17.226 -1.5466  1.0325  1.4477
 6719TIP3   OH241571   6.157   1.883  16.274 -0.7899  0.2620 -0.6665
 6719TIP3    H141572   6.174   1.932  16.194 -0.4079  1.2163 -0.0203
 6719TIP3    H241573   6.214   1.922  16.339 -0.3554 -1.1649 -0.1502
 6720TIP3   OH241574   4.882   5.551   6.497  0.5365  0.2555  0.0889
 6720TIP3    H141575   4.864   5.645   6.488 -0.2541  0.0083 -1.1144
 6720TIP3    H241576   4.796   5.511   6.511  0.8764 -0.2927  0.6889
 6721TIP3   OH241577   1.879   3.560  11.876 -0.2868 -0.2213 -0.5560
 6721TIP3    H141578   1.817   3.498  11.913 -0.9762  0.7503 -0.0427
 6721TIP3    H241579   1.927   3.595  11.951  0.9305 -0.9779 -0.9455
 6722TIP3   OH241580   1.209   0.690  14.113 -0.3179 -0.0718  0.9213
 6722TIP3    H141581   1.170   0.750  14.178 -0.6502  0.5315  0.1879
 6722TIP3    H241582   1.179   0.724  14.029  2.2945  0.7870  0.2558
 6723TIP3   OH241583   4.757   5.489  14.869  0.3436 -0.3371 -0.4295
 6723TIP3    H141584   4.824   5.478  14.801  1.5051  0.4177  0.5328
 6723TIP3    H241585   4.799   5.456  14.949 -0.7885 -0.7024  0.0249
 6724TIP3   OH241586   5.537   5.938  13.406 -0.3627 -0.3714  0.0405
 6724TIP3    H141587   5.623   5.929  13.447 -0.1711 -1.3051 -0.5289
 6724TIP3    H241588   5.555   5.981  13.322 -0.3848 -0.9564 -0.2691
 6725TIP3   OH241589   6.284   3.134  12.235 -0.7207  0.5731 -0.1582
 6725TIP3    H141590   6.276   3.111  12.143 -1.9900 -0.1727  0.1192
 6725TIP3    H241591   6.372   3.105  12.260 -1.2266 -1.3894 -0.5456
 6726TIP3   OH241592   4.015   3.654   5.192  0.4203  0.1124 -0.2115
 6726TIP3    H141593   4.031   3.580   5.134 -1.3697 -0.7079  0.2690
 6726TIP3    H241594   4.051   3.730   5.145 -1.3303 -0.4379 -2.6069
 6727TIP3   OH241595   0.992   2.857  11.836 -0.1078 -0.1656 -0.3900
 6727TIP3    H141596   1.028   2.942  11.813 -0.1611 -0.7909 -3.0600
 6727TIP3    H241597   1.068   2.798  11.838  0.4768  0.3297  4.6242
 6728TIP3   OH241598   1.939   6.080  14.942 -0.0882 -0.4976 -0.1074
 6728TIP3    H141599   1.916   6.064  15.034 -0.2008 -1.0501 -0.2292
 6728TIP3    H241600   1.958   6.174  14.939 -1.1189 -0.2569  0.2569
 6729TIP3   OH241601   2.458   2.828   2.234 -0.2038  0.4706  0.2189
 6729TIP3    H141602   2.377   2.839   2.282 -1.5477  0.2805 -1.8586
 6729TIP3    H241603   2.501   2.753   2.275 -1.2451  0.3453  1.1127
 6730TIP3   OH241604   3.001   6.330   4.810 -0.2648 -0.2439  0.3193
 6730TIP3    H141605   2.932   6.369   4.757 -0.4487 -0.0870  0.6717
 6730TIP3    H241606   2.958   6.257   4.854 -0.4020  0.3168  1.1282
 6731TIP3   OH241607   1.937   4.470   0.209 -0.6419  0.0683 -0.5637
 6731TIP3    H141608   1.978   4.408   0.148  1.1842  0.6892 -0.0473
 6731TIP3    H241609   1.886   4.529   0.154  0.3750  0.1659 -1.4255
 6732TIP3   OH241610   2.010   6.222   2.421 -0.1432 -0.1607  0.1254
 6732TIP3    H141611   2.105   6.219   2.407  0.0341  0.7967  0.9794
 6732TIP3    H241612   1.977   6.144   2.378  0.9446 -0.0935 -0.8830
 6733TIP3   OH241613   2.213   5.041   1.915 -0.0399 -0.6333  0.7488
 6733TIP3    H141614   2.118   5.026   1.910 -0.0755 -0.5816  1.2359
 6733TIP3    H241615   2.230   5.106   1.848 -0.3977 -0.4152  0.8648
 6734TIP3   OH241616   2.156   3.976   5.825 -0.0026  0.0675  0.1605
 6734TIP3    H141617   2.229   3.921   5.798  0.3588 -0.1669  1.5117
 6734TIP3    H241618   2.082   3.946   5.772  1.2609  1.6985 -2.7307
 6735TIP3   OH241619   2.910   4.399  12.608 -0.4035  0.5281 -0.2120
 6735TIP3    H141620   2.877   4.312  12.631 -0.0965  0.3779 -0.3197
 6735TIP3    H241621   2.917   4.397  12.512  1.0014  0.1355 -0.1272
 6736TIP3   OH241622   5.134   4.064   0.902 -0.0484 -0.3479 -0.4037
 6736TIP3    H141623   5.138   3.970   0.919  1.4284 -0.1861  0.3658
 6736TIP3    H241624   5.062   4.075   0.840 -0.6674 -1.9013 -0.0060
 6737TIP3   OH241625   0.189   3.987  16.174  0.3368  0.1669  0.4914
 6737TIP3    H141626   0.230   3.906  16.144  1.4244  1.5912 -2.1752
 6737TIP3    H241627   0.098   3.981  16.145  1.2890  1.3850 -3.2208
 6738TIP3   OH241628   2.488   4.470  15.880  0.4174 -0.0330  0.0186
 6738TIP3    H141629   2.506   4.401  15.944 -0.6822 -0.0022  0.3868
 6738TIP3    H241630   2.478   4.549  15.934  0.0898  0.1085 -0.2511
 6739TIP3   OH241631   4.989   5.434   2.645  0.4714 -0.1079  0.0942
 6739TIP3    H141632   4.963   5.342   2.641  0.3552 -0.0932  0.5008
 6739TIP3    H241633   5.050   5.444   2.572 -0.8828 -0.0647 -1.0858
 6740TIP3   OH241634   6.138   4.962   5.322  0.3036 -0.4362 -0.2851
 6740TIP3    H141635   6.188   4.881   5.333  0.1239 -0.4199  0.8073
 6740TIP3    H241636   6.094   4.952   5.238  1.5594 -0.7606 -0.9289
 6741TIP3   OH241637   5.559   1.555  13.502  0.2717 -0.0686 -0.3877
 6741TIP3    H141638   5.497   1.621  13.470 -0.9679 -0.0631  1.8162
 6741TIP3    H241639   5.603   1.524  13.423 -1.2423  1.2472 -1.8410
 6742TIP3   OH241640   4.335   4.533   1.090 -0.1151  0.4617 -0.2696
 6742TIP3    H141641   4.379   4.618   1.095 -0.5688  0.7874 -1.6083
 6742TIP3    H241642   4.390   4.475   1.144 -0.4195  1.8268  1.6333
 6743TIP3   OH241643   0.765   0.417  13.133 -0.5413  0.5019 -0.4161
 6743TIP3    H141644   0.823   0.345  13.156 -2.4798 -1.1578 -0.4782
 6743TIP3    H241645   0.782   0.483  13.201  1.2765  0.0429 -0.3583
 6744TIP3   OH241646   1.912   3.962   2.946  0.1728  0.4970 -0.0912
 6744TIP3    H141647   1.960   3.964   2.863 -1.7455  0.0172 -1.2849
 6744TIP3    H241648   1.901   3.869   2.966 -1.6079  0.5348 -0.7186
 6745TIP3   OH241649   4.434   5.985   3.477 -0.6314  0.0708 -0.5562
 6745TIP3    H141650   4.500   6.012   3.542 -0.6883  0.6732 -0.7379
 6745TIP3    H241651   4.450   5.892   3.463  0.3403  0.2701 -0.7863
 6746TIP3   OH241652   0.795   6.614   4.468 -0.1849 -0.1867 -0.1991
 6746TIP3    H141653   0.719   6.670   4.485  0.7009  0.6062  1.4588
 6746TIP3    H241654   0.813   6.573   4.552  1.3564 -0.1603 -0.4803
 6747TIP3   OH241655   2.202   3.757  11.951 -0.0246 -0.4005  0.1592
 6747TIP3    H141656   2.204   3.835  11.895 -1.9818 -0.2101  0.2528
 6747TIP3    H241657   2.285   3.758  11.997 -0.1845  1.9570  0.5212
 6748TIP3   OH241658   4.406   3.675   1.267  0.2012  0.4086  0.6387
 6748TIP3    H141659   4.493   3.638   1.284  1.1239  0.2926 -3.4396
 6748TIP3    H241660   4.422   3.767   1.247 -0.4991  0.2676 -0.6872
 6749TIP3   OH241661   3.442   2.508  15.160 -0.1793  0.2641  0.9566
 6749TIP3    H141662   3.488   2.479  15.239 -0.2833 -0.6613  0.6919
 6749TIP3    H241663   3.497   2.477  15.088 -0.5877  0.2390  0.6537
 6750TIP3   OH241664   0.758   1.073  11.947  0.3194 -0.1136  0.2259
 6750TIP3    H141665   0.813   1.102  12.020  0.9857 -0.0334 -0.2933
 6750TIP3    H241666   0.797   1.114  11.870  1.0572 -2.0552 -0.4999
 6751TIP3   OH241667   2.586   2.470   0.130 -0.3229 -0.3106  0.4736
 6751TIP3    H141668   2.571   2.415   0.207  0.7464 -1.5297 -0.1568
 6751TIP3    H241669   2.640   2.542   0.162 -1.9814  0.5817  1.3715
 6752TIP3   OH241670   4.529   2.355  17.332 -0.0046 -0.2259  0.1376
 6752TIP3    H141671   4.515   2.268  17.369 -0.3801 -0.5384 -0.7053
 6752TIP3    H241672   4.623   2.356  17.310 -0.0844 -0.5862 -0.2413
 6753TIP3   OH241673   3.390   4.256  11.713 -0.6513  0.0883  0.2968
 6753TIP3    H141674   3.445   4.291  11.783 -2.0126  1.1796  0.8521
 6753TIP3    H241675   3.360   4.171  11.746  0.9164 -0.6919 -0.1581
 6754TIP3   OH241676   1.829   1.379   1.685 -0.7329 -0.1507  0.3322
 6754TIP3    H141677   1.848   1.436   1.760  0.8316  0.5089 -0.5285
 6754TIP3    H241678   1.840   1.291   1.720  2.2803  0.1351  0.4265
 6755TIP3   OH241679   4.739   3.395   2.484 -0.1526  0.4807 -0.0543
 6755TIP3    H141680   4.745   3.404   2.389  0.9474  1.1954  0.0664
 6755TIP3    H241681   4.807   3.332   2.506  1.0880  1.9333  0.4528
 6756TIP3   OH241682   5.184   6.321   1.000  0.8246  0.1011 -0.4904
 6756TIP3    H141683   5.140   6.383   0.942  0.7804  0.1411 -0.4139
 6756TIP3    H241684   5.263   6.368   1.028 -0.5405  1.2164  1.7450
 6757TIP3   OH241685   3.743   5.530   1.710 -0.4916  0.5190 -0.0613
 6757TIP3    H141686   3.701   5.597   1.764 -1.3225  0.2358 -0.3393
 6757TIP3    H241687   3.744   5.568   1.622  0.8959  0.9974  0.1409
 6758TIP3   OH241688   0.082   2.360   4.184 -0.3037  0.1983  0.0095
 6758TIP3    H141689   0.077   2.399   4.097 -1.7965  0.2636  0.0973
 6758TIP3    H241690   0.107   2.269   4.168 -0.0385  0.3498 -0.4476
 6759TIP3   OH241691   5.934   6.657   4.955  0.2773  0.3707 -0.4617
 6759TIP3    H141692   5.917   6.723   5.023  3.0424  1.8299 -1.0627
 6759TIP3    H241693   6.027   6.638   4.963  0.0603 -1.6069 -2.0171
 6760TIP3   OH241694   4.075   6.579  15.722  0.5451 -0.2695  0.6364
 6760TIP3    H141695   4.161   6.572  15.764  0.8546 -1.0498 -0.1141
 6760TIP3    H241696   4.068   6.671  15.696  1.2606 -0.2577  0.4782
 6761TIP3   OH241697   5.800   2.480   5.370  0.1082  0.1023  0.0875
 6761TIP3    H141698   5.826   2.388   5.360 -0.1962 -0.0414  0.5876
 6761TIP3    H241699   5.825   2.502   5.459  0.0425  0.4637  0.0159
 6762TIP3   OH241700   0.280   5.098   4.886 -0.0359  0.1724  0.0200
 6762TIP3    H141701   0.318   5.176   4.925  0.4748 -0.7446  1.4519
 6762TIP3    H241702   0.283   5.032   4.956 -0.5756 -1.0857 -1.0892
 6763TIP3   OH241703   4.219   2.064   2.460 -0.9087  0.4521  0.2337
 6763TIP3    H141704   4.152   2.103   2.405 -1.0839  1.0148  0.8309
 6763TIP3    H241705   4.214   2.112   2.543 -1.5663 -1.2383  1.2283
 6764TIP3   OH241706   1.168   3.886  13.296  0.4044  0.2161 -0.2776
 6764TIP3    H141707   1.096   3.880  13.358  1.5405 -2.4334  0.9106
 6764TIP3    H241708   1.129   3.928  13.219 -2.3066 -0.8205  0.4123
 6765TIP3   OH241709   3.398   1.118  16.021  0.6698 -0.2637 -0.1864
 6765TIP3    H141710   3.437   1.032  16.007  1.2860  0.1708 -1.2159
 6765TIP3    H241711   3.468   1.169  16.062  1.1100  0.4187 -1.7242
 6766TIP3   OH241712   3.073   4.914  16.397 -0.0682 -0.1952 -0.0860
 6766TIP3    H141713   3.111   4.999  16.419 -0.9469  0.0305  0.5929
 6766TIP3    H241714   2.998   4.905  16.455  0.7871 -2.0395  0.8039
 6767TIP3   OH241715   2.756   2.817  11.876  0.5689 -0.0113 -0.0595
 6767TIP3    H141716   2.723   2.729  11.893  0.5717  0.1520  0.8193
 6767TIP3    H241717   2.826   2.804  11.812 -0.2478 -0.5122 -0.8662
 6768TIP3   OH241718   5.284   5.107  17.242  0.1106 -0.1116 -0.7051
 6768TIP3    H141719   5.369   5.133  17.276  0.9792 -1.6748 -1.6124
 6768TIP3    H241720   5.243   5.060  17.315  0.6383 -0.6715 -0.7701
 6769TIP3   OH241721   2.962   2.048   3.700 -0.1803  0.0322 -0.8629
 6769TIP3    H141722   3.056   2.066   3.691 -0.3298  0.0480 -2.7038
 6769TIP3    H241723   2.958   1.972   3.758  0.8937  0.8215  0.2931
 6770TIP3   OH241724   5.048   2.921  12.492  0.1574  0.1040  0.1976
 6770TIP3    H141725   5.021   2.829  12.495 -0.9225  0.4211  0.8066
 6770TIP3    H241726   5.015   2.959  12.574  2.4636  0.5553  1.0030
 6771TIP3   OH241727   2.868   4.648   1.957 -0.0713 -0.1054  0.0104
 6771TIP3    H141728   2.795   4.709   1.968 -1.2003 -1.4675  0.3274
 6771TIP3    H241729   2.833   4.563   1.982  1.3200 -0.9873 -0.8592
 6772TIP3   OH241730   1.152   3.035  16.567 -0.3822 -0.3015 -0.0753
 6772TIP3    H141731   1.184   2.998  16.485 -0.8226  1.2849 -1.0053
 6772TIP3    H241732   1.057   3.026  16.562 -0.4483  0.2719 -0.0087
 6773TIP3   OH241733   1.827   1.282  13.737  0.2698 -0.3637  0.1680
 6773TIP3    H141734   1.837   1.318  13.825  1.2541 -0.4203  0.0942
 6773TIP3    H241735   1.733   1.279  13.723  0.0956  2.4373  0.0807
 6774TIP3   OH241736   5.951   2.112   4.933  0.6728  0.5815 -0.0872
 6774TIP3    H141737   5.871   2.117   4.986  1.0963  1.2275  0.5240
 6774TIP3    H241738   6.007   2.181   4.969  2.8425 -1.9261  1.7710
 6775TIP3   OH241739   0.822   3.450   5.468  0.0935 -0.6208  0.1477
 6775TIP3    H141740   0.844   3.438   5.375 -0.6085 -1.1351  0.0357
 6775TIP3    H241741   0.897   3.497   5.505  0.9617 -1.5477 -0.3920
 6776TIP3   OH241742   1.729   5.816  16.166 -0.2693  0.7095 -0.6415
 6776TIP3    H141743   1.767   5.806  16.253 -0.2517 -0.9931 -0.8137
 6776TIP3    H241744   1.648   5.764  16.169  0.3136 -0.3338 -1.9620
 6777TIP3   OH241745   5.217   2.684  14.602  0.3480 -0.2203 -0.3860
 6777TIP3    H141746   5.206   2.763  14.550 -0.6539  0.6246  1.0211
 6777TIP3    H241747   5.218   2.715  14.693  1.4277 -1.6863  0.1395
 6778TIP3   OH241748   2.886   3.545  14.055 -0.3697  0.0627 -0.3586
 6778TIP3    H141749   2.863   3.452  14.059  0.8721 -0.3124 -1.4253
 6778TIP3    H241750   2.897   3.563  13.962 -1.7941  1.6126 -0.2618
 6779TIP3   OH241751   2.648   1.712  10.700 -0.6980 -0.6101 -0.6624
 6779TIP3    H141752   2.727   1.722  10.753 -0.0175 -0.1327 -1.7248
 6779TIP3    H241753   2.589   1.780  10.733 -0.2093 -0.1905 -0.6324
 6780TIP3   OH241754   2.798   4.389  11.104  0.0455 -0.1851 -0.1305
 6780TIP3    H141755   2.737   4.396  11.030 -0.9838  1.7169  0.8080
 6780TIP3    H241756   2.885   4.397  11.065 -0.5058  1.6690 -1.0904
 6781TIP3   OH241757   5.695   3.831  15.460 -0.1848 -0.1457  0.1221
 6781TIP3    H141758   5.709   3.892  15.532  0.1293 -2.5069  2.2248
 6781TIP3    H241759   5.783   3.803  15.435 -0.3680 -0.9461  0.3373
 6782TIP3   OH241760   5.417   3.418  11.945 -0.0760 -0.0647 -0.1667
 6782TIP3    H141761   5.409   3.355  11.873 -0.3626 -0.5688  0.2928
 6782TIP3    H241762   5.453   3.366  12.018 -1.1547  0.0824  0.4945
 6783TIP3   OH241763   2.498   1.896   2.851  0.2495 -0.7088  0.1996
 6783TIP3    H141764   2.465   1.806   2.856 -1.5201 -0.3041 -2.4487
 6783TIP3    H241765   2.579   1.889   2.799 -0.8174 -0.6493 -1.5579
 6784TIP3   OH241766   4.347   6.532  15.803  0.1207 -0.1280 -0.1906
 6784TIP3    H141767   4.375   6.521  15.894  1.7615 -0.2337 -0.6743
 6784TIP3    H241768   4.400   6.605  15.770 -0.0630 -0.4364 -1.2170
 6785TIP3   OH241769   1.868   5.751   4.332  0.4632  0.0144 -0.1118
 6785TIP3    H141770   1.807   5.806   4.282 -0.1652 -1.2614 -0.8138
 6785TIP3    H241771   1.935   5.811   4.363 -0.5956  1.3017 -0.2012
 6786TIP3   OH241772   1.258   1.615   0.358  0.5690  0.1621 -0.1401
 6786TIP3    H141773   1.331   1.608   0.419 -0.3629  2.3073  1.3514
 6786TIP3    H241774   1.265   1.704   0.322 -0.7406  0.0708 -0.6770
 6787TIP3   OH241775   3.161   0.719   2.595  0.0563 -0.1204 -0.4975
 6787TIP3    H141776   3.231   0.689   2.536 -0.6780 -2.1454 -0.4346
 6787TIP3    H241777   3.080   0.694   2.550 -0.7830  3.6330 -1.3415
 6788TIP3   OH241778   5.652   5.543   5.429 -0.1176  0.4322  0.2510
 6788TIP3    H141779   5.735   5.513   5.467  1.3474  3.2006 -0.4287
 6788TIP3    H241780   5.662   5.527   5.335 -1.1496 -0.8549  0.3424
 6789TIP3   OH241781   2.753   3.906  17.184  0.1462 -0.1006  0.4710
 6789TIP3    H141782   2.806   3.985  17.171  0.0685 -0.0091  0.7153
 6789TIP3    H241783   2.679   3.935  17.237 -0.3168 -0.1609 -0.1324
 6790TIP3   OH241784   0.920   3.633  11.024  0.2367  0.0291  0.1363
 6790TIP3    H141785   0.922   3.541  11.053 -0.3005 -0.0361 -0.0267
 6790TIP3    H241786   0.857   3.633  10.952  1.1385  0.2935 -0.6662
 6791TIP3   OH241787   0.082   4.289  14.024 -0.4863 -0.6107 -0.0075
 6791TIP3    H141788  -0.001   4.269  14.066 -0.5571  0.5639  0.4438
 6791TIP3    H241789   0.129   4.205  14.022 -1.4194 -1.1491  0.2999
 6792TIP3   OH241790   3.461   6.576  12.070  0.8096 -0.0106  0.0256
 6792TIP3    H141791   3.395   6.572  12.139 -0.5374 -0.5378 -1.2498
 6792TIP3    H241792   3.536   6.528  12.107 -0.4842 -1.7834  0.5165
 6793TIP3   OH241793   3.051   1.703   4.649  0.0879 -0.4994  0.0593
 6793TIP3    H141794   3.066   1.672   4.560  0.6821  0.6442 -0.2533
 6793TIP3    H241795   3.126   1.668   4.699 -0.1634 -1.0103  0.0826
 6794TIP3   OH241796   6.559   4.016   5.966 -0.0683  0.6185  0.1014
 6794TIP3    H141797   6.558   4.094   6.022 -1.3389 -0.0155  1.0091
 6794TIP3    H241798   6.495   3.958   6.005 -1.7888  0.5396 -2.6046
 6795TIP3   OH241799   6.165   2.604  12.365  0.0874  0.0764 -0.5001
 6795TIP3    H141800   6.147   2.614  12.271 -1.1873  1.2407 -0.1662
 6795TIP3    H241801   6.111   2.530  12.392  0.9659 -0.6850 -0.8051
 6796TIP3   OH241802   1.088   0.975   1.171  0.2927 -0.0176  0.2138
 6796TIP3    H141803   1.111   0.908   1.107 -0.0821 -1.8084  1.8681
 6796TIP3    H241804   1.004   1.010   1.140  0.1306 -0.8344 -0.3001
 6797TIP3   OH241805   3.051   1.775  14.478  0.3541 -0.1725 -0.3863
 6797TIP3    H141806   3.051   1.728  14.395  0.6893 -0.0742 -0.4440
 6797TIP3    H241807   3.133   1.747  14.520  0.8697  0.8386 -0.6933
 6798TIP3   OH241808   6.700   6.123   5.741  0.2243  0.2264 -0.0190
 6798TIP3    H141809   6.658   6.171   5.813  1.5877  1.6140 -0.0802
 6798TIP3    H241810   6.628   6.082   5.694 -1.0401  2.0861  0.1708
 6799TIP3   OH241811   5.572   6.715   3.437 -0.3471  0.2732 -0.2273
 6799TIP3    H141812   5.643   6.663   3.475 -0.2304 -0.1644 -1.0176
 6799TIP3    H241813   5.530   6.757   3.512 -0.0115 -0.4286  0.3653
 6800TIP3   OH241814   5.154   4.466  13.125 -0.1132 -0.0058 -0.2889
 6800TIP3    H141815   5.087   4.528  13.153 -1.0145 -0.9439 -0.3099
 6800TIP3    H241816   5.157   4.474  13.030 -1.2517 -0.9866 -0.4254
 6801TIP3   OH241817   4.818   0.975   3.308  0.9447 -0.5700 -0.1559
 6801TIP3    H141818   4.904   0.933   3.320  0.5191 -1.9966 -1.6102
 6801TIP3    H241819   4.793   0.950   3.219 -1.5797 -1.3522  0.6925
 6802TIP3   OH241820   4.659   3.784  12.169  0.3942 -0.2398 -0.2377
 6802TIP3    H141821   4.723   3.715  12.184  2.2970  1.6091  0.6427
 6802TIP3    H241822   4.603   3.782  12.247  0.1360 -1.0717 -0.4390
 6803TIP3   OH241823   5.121   4.390   3.692 -0.0976 -0.1454  0.4987
 6803TIP3    H141824   5.078   4.475   3.705  0.1387 -0.0143  0.4205
 6803TIP3    H241825   5.133   4.383   3.597  0.2484 -0.0861  0.5364
 6804TIP3   OH241826   3.669   0.981   0.843 -0.4458 -0.2042  0.0903
 6804TIP3    H141827   3.628   0.961   0.759  0.7533 -2.2038 -0.0717
 6804TIP3    H241828   3.745   1.034   0.820 -0.5343 -0.1048  0.0183
 6805TIP3   OH241829   2.725   3.860   3.544  0.0109 -0.4081  0.2077
 6805TIP3    H141830   2.669   3.919   3.593 -1.1780 -1.4603  0.1737
 6805TIP3    H241831   2.784   3.917   3.495 -1.9771  0.8191 -0.8943
 6806TIP3   OH241832   2.947   2.644  15.290 -0.1237  0.2162 -0.0517
 6806TIP3    H141833   3.002   2.685  15.357  0.7022 -0.8952 -0.0181
 6806TIP3    H241834   3.000   2.646  15.211 -0.0754 -0.7350 -0.0541
 6807TIP3   OH241835   0.411   4.514   4.701 -0.6060  0.0784  0.1543
 6807TIP3    H141836   0.443   4.579   4.764 -1.2071  2.8279 -2.1493
 6807TIP3    H241837   0.326   4.487   4.736 -0.8356  1.4020  0.6720
 6808TIP3   OH241838   1.202   4.215  12.628  0.1989 -0.6321 -0.4463
 6808TIP3    H141839   1.277   4.192  12.683 -1.1642 -2.7661  0.6471
 6808TIP3    H241840   1.239   4.270  12.558  2.6425 -1.1022  0.3945
 6809TIP3   OH241841   4.890   5.685   4.365  0.2285  0.5323  0.1090
 6809TIP3    H141842   4.976   5.693   4.323 -0.5164  0.4963 -1.4866
 6809TIP3    H241843   4.899   5.736   4.446  2.0683 -0.3598  0.5220
 6810TIP3   OH241844   3.048   3.993  16.701 -0.2046  0.4562 -0.1741
 6810TIP3    H141845   2.976   3.932  16.718 -0.4664  1.2138  1.6495
 6810TIP3    H241846   3.034   4.021  16.610 -1.6391 -0.1565 -0.1785
 6811TIP3   OH241847   1.234   3.639  14.574  0.4617  0.0973  0.2499
 6811TIP3    H141848   1.158   3.591  14.541 -1.1447  2.2240  0.6326
 6811TIP3    H241849   1.296   3.639  14.501  0.6460 -2.6658  0.3178
 6812TIP3   OH241850   3.586   0.719   4.889  0.1613  0.4068  0.3541
 6812TIP3    H141851   3.546   0.704   4.804 -0.0277  0.8270  0.3651
 6812TIP3    H241852   3.618   0.633   4.917 -1.2024 -0.0532  0.5835
 6813TIP3   OH241853   6.135   3.995   3.535  0.1316 -0.8448 -0.2231
 6813TIP3    H141854   6.183   3.965   3.612  1.0286  0.3070 -0.3021
 6813TIP3    H241855   6.190   4.065   3.499 -1.8630  0.8835 -0.0511
 6814TIP3   OH241856   1.170   6.634   2.664 -0.6324  0.0002  0.5024
 6814TIP3    H141857   1.197   6.677   2.584 -2.2313 -0.5979 -0.4012
 6814TIP3    H241858   1.251   6.595   2.699  0.3054  1.3267 -0.1267
 6815TIP3   OH241859   2.709   5.455  11.727 -0.6540  0.2387  0.5274
 6815TIP3    H141860   2.788   5.506  11.745  0.7485 -0.5278 -2.6058
 6815TIP3    H241861   2.650   5.517  11.684 -1.8533  0.8095  2.8609
 6816TIP3   OH241862   0.970   2.297   0.442  0.6886  0.0526  0.0023
 6816TIP3    H141863   1.036   2.241   0.401 -1.2158 -2.3608  0.0261
 6816TIP3    H241864   0.932   2.345   0.368  0.2594 -1.0073 -0.4920
 6817TIP3   OH241865   2.919   3.407  15.145 -0.1563  0.5995 -0.3092
 6817TIP3    H141866   3.001   3.436  15.106  0.0143 -0.9137 -1.1512
 6817TIP3    H241867   2.920   3.442  15.234  2.3204 -0.9866  0.3856
 6818TIP3   OH241868   2.195   0.995   2.658  0.2878  0.3438 -0.2444
 6818TIP3    H141869   2.193   0.900   2.669 -0.2324  0.0129 -2.7594
 6818TIP3    H241870   2.288   1.016   2.651  0.3951  0.0012  0.1159
 6819TIP3   OH241871   6.214   4.099  14.110 -0.6052  0.0537  0.3422
 6819TIP3    H141872   6.214   4.165  14.040 -0.2862 -0.7107 -0.3984
 6819TIP3    H241873   6.248   4.145  14.186 -0.0084  0.6579 -0.2656
 6820TIP3   OH241874   4.045   4.113   3.572  0.8025 -0.0564 -0.1046
 6820TIP3    H141875   4.052   4.084   3.481  1.5262  0.4463 -0.2129
 6820TIP3    H241876   4.063   4.207   3.568  0.9879 -0.0622  0.5800
 6821TIP3   OH241877   1.915   4.974   6.232 -0.0724 -0.4130 -0.5042
 6821TIP3    H141878   1.850   5.028   6.275 -0.5171 -1.8850  0.7666
 6821TIP3    H241879   1.927   4.899   6.291  2.4167 -0.4323 -0.9282
 6822TIP3   OH241880   3.727   1.447   2.525  0.2644 -0.2201  0.4911
 6822TIP3    H141881   3.786   1.518   2.550  0.2842  0.2517 -0.8192
 6822TIP3    H241882   3.764   1.414   2.443 -0.4973 -0.8624  0.4058
 6823TIP3   OH241883   2.593   0.655  14.122  0.1209  0.1649 -0.0743
 6823TIP3    H141884   2.682   0.683  14.144  0.1560 -0.7581  1.0900
 6823TIP3    H241885   2.600   0.618  14.034  0.6306  1.1500 -0.4700
 6824TIP3   OH241886   1.272   0.959   3.026  0.1109 -0.2018  0.4666
 6824TIP3    H141887   1.309   1.018   3.091  0.3395 -1.5791  1.6419
 6824TIP3    H241888   1.320   0.877   3.038 -0.7422 -0.8811 -0.5552
 6825TIP3   OH241889   6.591   0.510   2.081 -0.7262 -0.0798 -0.7837
 6825TIP3    H141890   6.559   0.504   2.172  0.4650  0.4572 -0.3135
 6825TIP3    H241891   6.671   0.459   2.081  0.6843  2.0137 -0.8557
 6826TIP3   OH241892   5.136   0.914  12.465 -0.4664  0.0815  0.1381
 6826TIP3    H141893   5.056   0.863  12.453  0.0236 -0.6713  0.0267
 6826TIP3    H241894   5.197   0.878  12.402  0.4963 -0.4604  1.3562
 6827TIP3   OH241895   4.953   5.008   5.507 -0.3598  0.0698 -0.0844
 6827TIP3    H141896   5.036   5.050   5.484 -0.3659 -0.6594 -1.5524
 6827TIP3    H241897   4.903   5.006   5.425 -0.6326 -2.1308  0.0678
 6828TIP3   OH241898   0.080   3.404  16.165  0.0507  0.2535 -0.3668
 6828TIP3    H141899   0.001   3.359  16.136 -0.1351 -1.2649  2.1813
 6828TIP3    H241900   0.152   3.353  16.130  0.0233  1.7840 -2.9117
 6829TIP3   OH241901   5.682   1.775  10.931  0.0114  0.2964  0.1368
 6829TIP3    H141902   5.706   1.862  10.899  1.2234  0.5626  1.6409
 6829TIP3    H241903   5.727   1.715  10.872 -1.3894  0.6327 -1.3373
 6830TIP3   OH241904   5.132   4.246  15.069 -0.1648 -0.7242 -0.1782
 6830TIP3    H141905   5.140   4.341  15.073 -0.7107 -0.5525 -1.9713
 6830TIP3    H241906   5.070   4.230  14.997  0.4350 -2.4383 -0.3710
 6831TIP3   OH241907   4.791   0.530   5.680  0.1664 -0.1399  0.2157
 6831TIP3    H141908   4.790   0.521   5.585  0.5226 -0.5318  0.2470
 6831TIP3    H241909   4.700   0.549   5.704  0.2256  0.8225 -0.2813
 6832TIP3   OH241910   0.916   5.833  15.641 -0.3442  0.5830 -0.1449
 6832TIP3    H141911   0.821   5.833  15.652 -0.1813  1.2175  1.6917
 6832TIP3    H241912   0.931   5.877  15.557 -1.6826 -0.3167 -0.8825
 6833TIP3   OH241913   5.883   2.616   4.250 -1.0623  0.0042  0.0879
 6833TIP3    H141914   5.964   2.646   4.290 -1.2368  0.4289  0.1328
 6833TIP3    H241915   5.874   2.669   4.171  0.9239 -2.9266 -2.3605
 6834TIP3   OH241916   2.100   2.995   2.020 -0.4149  0.3876  0.0509
 6834TIP3    H141917   2.023   3.044   1.992 -0.4521  0.9487  1.0810
 6834TIP3    H241918   2.145   2.971   1.939  1.2203  4.7126 -0.5962
 6835TIP3   OH241919   5.957   2.748   5.582 -0.2237  0.0985  0.3995
 6835TIP3    H141920   5.919   2.818   5.635  0.4198  1.4082 -0.8098
 6835TIP3    H241921   6.050   2.771   5.575 -0.0920 -0.6227 -0.4263
 6836TIP3   OH241922   1.947   6.028  13.185  0.0484  0.3897 -0.6611
 6836TIP3    H141923   1.915   6.028  13.275  2.4826 -3.9067  0.5150
 6836TIP3    H241924   1.869   6.012  13.131 -0.9719 -0.7955  1.0893
 6837TIP3   OH241925   2.405   0.987  12.657 -0.3301  0.3807 -0.6536
 6837TIP3    H141926   2.363   1.055  12.604  0.5049  1.1617 -0.3373
 6837TIP3    H241927   2.338   0.919  12.666 -0.7198  0.5287 -2.1304
 6838TIP3   OH241928   3.711   6.174   2.453  0.7834  0.1955  0.5253
 6838TIP3    H141929   3.778   6.149   2.389 -0.1031  0.4125 -0.5078
 6838TIP3    H241930   3.636   6.119   2.433 -0.0235  1.3063  0.3918
 6839TIP3   OH241931   3.721   2.918  13.263  0.2377 -0.0522  0.3997
 6839TIP3    H141932   3.782   2.864  13.213  0.1399 -1.4240  1.7069
 6839TIP3    H241933   3.739   3.007  13.234  1.4381 -0.6302 -0.7257
 6840TIP3   OH241934   3.454   0.532  11.521 -0.2981 -0.5256  0.0100
 6840TIP3    H141935   3.534   0.488  11.492  0.7438  1.3251 -0.0222
 6840TIP3    H241936   3.391   0.460  11.532  0.7581 -1.8347 -1.8511
 6841TIP3   OH241937   4.302   4.071   0.262 -0.3020 -0.3560  0.0841
 6841TIP3    H141938   4.329   3.984   0.292 -0.1022 -0.4005 -0.2142
 6841TIP3    H241939   4.315   4.128   0.338  1.7322 -0.1553 -0.3585
 6842TIP3   OH241940   1.668   2.807   1.551 -0.1760  0.8796  0.3433
 6842TIP3    H141941   1.644   2.730   1.499 -1.6025  1.8323 -0.4887
 6842TIP3    H241942   1.730   2.855   1.496  0.6895  0.3515  0.8487
 6843TIP3   OH241943   1.456   2.729   5.364 -0.3149 -0.4594  0.1656
 6843TIP3    H141944   1.470   2.760   5.454 -0.7729 -2.3572  0.9247
 6843TIP3    H241945   1.361   2.719   5.357 -0.1439 -2.2823  0.1812
 6844TIP3   OH241946   5.213   3.078   0.138  0.1444 -0.0035 -0.0332
 6844TIP3    H141947   5.269   3.138   0.188  1.1897 -0.0457 -1.0975
 6844TIP3    H241948   5.157   3.135   0.086  0.8036  0.0677 -0.6814
 6845TIP3   OH241949   2.861   2.163  15.371  0.2746 -0.0925 -0.4935
 6845TIP3    H141950   2.849   2.236  15.310  3.2730  1.3136  0.4128
 6845TIP3    H241951   2.868   2.204  15.457 -0.4891 -1.7179  0.3901
 6846TIP3   OH241952   1.649   6.005  14.900  0.1358  0.1785  0.0218
 6846TIP3    H141953   1.619   6.095  14.912 -1.4214 -0.6373  3.4348
 6846TIP3    H241954   1.741   6.006  14.925  0.1502  0.8111 -0.0405
 6847TIP3   OH241955   0.058   0.860  16.602 -0.2124 -0.4936  0.5792
 6847TIP3    H141956   0.048   0.916  16.525  0.2277  0.1414  0.9773
 6847TIP3    H241957   0.091   0.777  16.567  0.6821  0.0285  0.1586
 6848TIP3   OH241958   6.374   3.479  14.346 -0.1181 -0.5551 -0.3640
 6848TIP3    H141959   6.366   3.384  14.345  0.1331 -0.5736 -0.6557
 6848TIP3    H241960   6.390   3.501  14.438  4.2316 -1.1732 -0.7619
 6849TIP3   OH241961   6.109   5.262  15.033  0.4410 -0.5555  0.3286
 6849TIP3    H141962   6.077   5.253  14.943 -0.1265  0.3769  0.4157
 6849TIP3    H241963   6.133   5.173  15.059  1.5324 -0.7057 -1.0669
 6850TIP3   OH241964   3.235   2.457  12.904 -0.7019 -0.1109  0.1922
 6850TIP3    H141965   3.183   2.530  12.938 -0.5586  0.6185 -1.0859
 6850TIP3    H241966   3.305   2.445  12.968 -0.2955  1.3759  0.0710
 6851TIP3   OH241967   4.177   2.667  16.597  0.8198 -0.3171 -0.2943
 6851TIP3    H141968   4.180   2.627  16.684  1.0460 -0.7377 -0.4912
 6851TIP3    H241969   4.091   2.709  16.592 -0.7048 -3.2969 -1.1701
 6852TIP3   OH241970   1.596   0.103  11.595  0.4316  0.5985 -0.4578
 6852TIP3    H141971   1.508   0.139  11.582  0.4879  0.0146 -3.0652
 6852TIP3    H241972   1.653   0.180  11.602 -0.2454  0.9824  1.3385
 6853TIP3   OH241973   6.015   0.457  12.430  0.0091 -0.2472  0.0891
 6853TIP3    H141974   6.008   0.519  12.357  1.6454 -0.2919 -0.1512
 6853TIP3    H241975   6.101   0.417  12.418 -0.4316 -1.5191  1.0756
 6854TIP3   OH241976   3.508   6.043   5.719 -0.1434  0.1477  0.0740
 6854TIP3    H141977   3.557   6.075   5.795  0.3416 -1.2180  0.3689
 6854TIP3    H241978   3.456   5.971   5.753 -0.5807  0.0814 -0.7168
 6855TIP3   OH241979   4.766   0.044   0.280 -0.2439  0.6270  0.0086
 6855TIP3    H141980   4.768   0.052   0.375 -0.3803 -0.0400  0.0719
 6855TIP3    H241981   4.772   0.134   0.248  2.0885  0.7492  0.6051
 6856TIP3   OH241982   6.098   0.253  11.171 -0.1516 -0.7776 -0.5791
 6856TIP3    H141983   6.015   0.301  11.165 -0.0183 -0.3617  0.5570
 6856TIP3    H241984   6.149   0.284  11.096 -0.8481 -0.6923 -1.0265
 6857TIP3   OH241985   5.406   6.295   4.177 -0.5029  0.0860  0.3811
 6857TIP3    H141986   5.479   6.313   4.236 -0.9311  0.0385  0.9396
 6857TIP3    H241987   5.446   6.253   4.101  0.4462  2.7417 -0.7035
 6858TIP3   OH241988   0.861   5.092   3.794  0.1513 -0.4262  0.1475
 6858TIP3    H141989   0.854   5.070   3.887  1.3964 -0.1842  0.3215
 6858TIP3    H241990   0.827   5.015   3.748  1.5772 -1.4857  0.7866
 6859TIP3   OH241991   1.260   3.791   4.818 -0.3884  0.5943  0.2555
 6859TIP3    H141992   1.169   3.768   4.837 -0.3711 -0.5510 -0.9196
 6859TIP3    H241993   1.258   3.885   4.796 -1.2809  0.5769  0.2588
 6860TIP3   OH241994   3.320   4.244  16.012  0.8700 -0.7313  0.2034
 6860TIP3    H141995   3.260   4.175  15.983  0.0387  0.0731 -0.0285
 6860TIP3    H241996   3.312   4.313  15.947  1.7721 -0.4419  0.3770
 6861TIP3   OH241997   3.678   3.278   0.441 -0.1435  0.0959  0.3958
 6861TIP3    H141998   3.593   3.260   0.480 -0.1084  0.2954  0.5618
 6861TIP3    H241999   3.735   3.298   0.515 -0.6221  2.8476  0.1380
 6862TIP3   OH242000   2.242   4.480   4.158  0.6455 -0.0285 -0.0444
 6862TIP3    H142001   2.227   4.500   4.251 -0.5614  0.2680 -0.2895
 6862TIP3    H242002   2.232   4.563   4.113  2.1916  0.0130 -0.3590
 6863TIP3   OH242003   5.147   6.742  17.000 -0.1949  0.8390  0.1044
 6863TIP3    H142004   5.167   6.834  16.982 -0.4976  1.0136  0.6630
 6863TIP3    H242005   5.109   6.711  16.918 -2.9118  2.0228  0.7912
 6864TIP3   OH242006   2.775   5.498   1.798  0.0941 -0.2613 -0.0979
 6864TIP3    H142007   2.732   5.429   1.849  0.3622  0.0522  0.5578
 6864TIP3    H242008   2.867   5.473   1.798  0.1237 -0.1503 -0.2611
 6865TIP3   OH242009   4.085   4.996   1.389 -0.5640 -0.1294  0.5322
 6865TIP3    H142010   4.150   4.941   1.346  1.0351  1.5319  0.6943
 6865TIP3    H242011   4.118   5.085   1.379 -2.2180  0.6807  1.6882
 6866TIP3   OH242012   0.699   3.679   3.751  0.0673  0.2096 -0.8363
 6866TIP3    H142013   0.747   3.691   3.833  0.9431 -1.5303 -1.0473
 6866TIP3    H242014   0.610   3.708   3.771  0.8455  2.2448 -0.0442
 6867TIP3   OH242015   2.155   3.729  15.122  0.3699 -0.0877 -0.6795
 6867TIP3    H142016   2.202   3.759  15.200  0.3112  1.2261 -1.1138
 6867TIP3    H242017   2.210   3.757  15.049  0.9757 -2.2840 -1.1231
 6868TIP3   OH242018   1.482   2.348  15.466 -0.4603 -0.0620 -0.6586
 6868TIP3    H142019   1.429   2.427  15.455 -0.0312  0.2602 -0.4561
 6868TIP3    H242020   1.546   2.352  15.395  0.9681  0.9342  0.6058
 6869TIP3   OH242021   0.808   1.527   3.098  0.3148 -0.1548  0.9681
 6869TIP3    H142022   0.855   1.472   3.036  0.4455 -0.6622  1.5077
 6869TIP3    H242023   0.721   1.488   3.104 -0.0366  0.4989  0.3366
 6870TIP3   OH242024   0.991   5.091  16.432 -0.3913 -0.6440 -0.6013
 6870TIP3    H142025   0.961   5.071  16.521 -0.6392 -2.7348 -1.1101
 6870TIP3    H242026   1.007   5.006  16.392  2.3382  0.2531 -1.7136
 6871TIP3   OH242027   0.271   2.587  12.303 -0.0912 -0.2517  0.1226
 6871TIP3    H142028   0.256   2.674  12.338 -2.1943 -1.0900  1.5166
 6871TIP3    H242029   0.285   2.532  12.380  1.4321 -1.1380 -0.7355
 6872TIP3   OH242030   4.107   5.644  15.440  0.0065 -0.0403 -0.2740
 6872TIP3    H142031   4.102   5.687  15.526 -0.3769 -0.4961 -0.0678
 6872TIP3    H242032   4.113   5.551  15.459 -2.1817 -0.3296 -0.7549
 6873TIP3   OH242033   2.385   4.596  14.165  0.0626 -0.1504  0.0793
 6873TIP3    H142034   2.360   4.689  14.170  1.8869  0.3351  1.8747
 6873TIP3    H242035   2.327   4.559  14.099 -0.7872  2.2481 -0.6413
 6874TIP3   OH242036   4.360   3.495   5.574  0.0971 -0.4528 -0.4208
 6874TIP3    H142037   4.303   3.506   5.650 -1.6654 -0.4099 -1.6837
 6874TIP3    H242038   4.419   3.570   5.577  0.9726 -1.1443  1.5997
 6875TIP3   OH242039   4.002   4.034  11.302  0.0497  0.3042  0.9128
 6875TIP3    H142040   4.087   3.994  11.287  1.0886  2.3902  0.8662
 6875TIP3    H242041   3.980   4.075  11.218 -1.6648 -1.2914  0.5200
 6876TIP3   OH242042   2.746   3.201  16.486 -0.2387 -0.1595  0.2172
 6876TIP3    H142043   2.830   3.242  16.510 -1.4362  0.9783  2.9912
 6876TIP3    H242044   2.757   3.109  16.508 -0.1340  0.2567  2.1457
 6877TIP3   OH242045   1.520   3.262   1.058 -1.3790  0.6008 -0.4325
 6877TIP3    H142046   1.511   3.239   0.966  0.0423  1.5805 -0.8668
 6877TIP3    H242047   1.495   3.354   1.062  3.5739  2.3149 -1.0257
 6878TIP3   OH242048   2.805   3.485   3.836  0.1995 -0.5514  0.0577
 6878TIP3    H142049   2.803   3.564   3.783  0.0407 -1.6473 -1.6694
 6878TIP3    H242050   2.738   3.428   3.797 -0.9962 -0.8902  2.3671
 6879TIP3   OH242051   3.182   0.791   2.234  0.1117  0.2279  0.0937
 6879TIP3    H142052   3.121   0.750   2.172  0.2566  1.3176 -0.7950
 6879TIP3    H242053   3.227   0.717   2.274 -1.7721 -0.6169  0.7836
 6880TIP3   OH242054   1.347   0.517  13.353  0.0731  0.7002  0.3391
 6880TIP3    H142055   1.387   0.441  13.396  0.1025  0.0876 -0.7475
 6880TIP3    H242056   1.375   0.592  13.406  2.0736  0.2170  0.0342
 6881TIP3   OH242057   2.144   1.523   1.319  0.6009  0.4472 -0.0273
 6881TIP3    H142058   2.081   1.595   1.313 -1.8598 -1.6035 -0.6436
 6881TIP3    H242059   2.189   1.524   1.235 -0.2548  0.5853 -0.4994
 6882TIP3   OH242060   3.380   2.269   3.878  0.8049 -0.0612 -0.3029
 6882TIP3    H142061   3.352   2.354   3.842 -0.3228 -1.1006 -1.9981
 6882TIP3    H242062   3.329   2.260   3.958  3.2238  2.2150  1.6822
 6883TIP3   OH242063   5.473   3.118  12.974 -0.6631  0.2477  0.4198
 6883TIP3    H142064   5.557   3.116  12.928 -1.1949 -1.7148 -0.5679
 6883TIP3    H242065   5.486   3.183  13.043  1.5816  0.2093  0.1327
 6884TIP3   OH242066   1.510   3.272   0.513  0.5487  0.0727 -0.4963
 6884TIP3    H142067   1.552   3.313   0.437  0.7988  0.9258  0.0846
 6884TIP3    H242068   1.455   3.204   0.476  0.2338  0.8363 -1.4919
 6885TIP3   OH242069   6.081   0.580  11.458  0.0012 -0.2532  0.1017
 6885TIP3    H142070   6.086   0.675  11.471  0.2918 -0.0992 -1.0627
 6885TIP3    H242071   5.987   0.563  11.446  0.1654  0.2972 -2.4027
 6886TIP3   OH242072   2.577   6.471  13.401  0.2977 -0.2850 -0.0044
 6886TIP3    H142073   2.582   6.529  13.325  1.3625 -0.8507 -0.3985
 6886TIP3    H242074   2.642   6.506  13.462  0.2439 -0.4796  0.1660
 6887TIP3   OH242075   0.668   1.502  13.629  0.0352  0.8299 -0.5758
 6887TIP3    H142076   0.587   1.454  13.648  0.5247  0.5323  0.9531
 6887TIP3    H242077   0.641   1.572  13.570 -1.2121  0.3572 -0.6089
 6888TIP3   OH242078   2.695   4.849  14.457 -1.0385  0.0959 -0.0220
 6888TIP3    H142079   2.696   4.945  14.464 -2.0454  0.0335  1.1719
 6888TIP3    H242080   2.714   4.832  14.364 -1.0003  1.4452 -0.2844
 6889TIP3   OH242081   4.764   5.761  14.069 -0.6330 -0.1725  0.3642
 6889TIP3    H142082   4.839   5.820  14.063 -0.1376 -0.9050 -1.2048
 6889TIP3    H242083   4.693   5.816  14.103  1.0149  0.0792  3.7593
 6890TIP3   OH242084   2.267   4.883   4.242 -0.6946 -0.3541 -0.0689
 6890TIP3    H142085   2.251   4.975   4.261 -0.1077 -0.3618  0.5033
 6890TIP3    H242086   2.252   4.838   4.326  2.2735 -0.3440  0.5905
 6891TIP3   OH242087   0.969   2.996  14.242 -0.1795  0.1408  0.1566
 6891TIP3    H142088   0.915   3.008  14.164 -0.9115 -1.3635  0.3993
 6891TIP3    H242089   0.962   3.080  14.288 -1.7934  0.2170 -0.1541
 6892TIP3   OH242090   1.662   3.088   0.029 -0.0278 -0.2196  0.1034
 6892TIP3    H142091   1.723   3.125  -0.036 -1.2039  0.2129 -0.7854
 6892TIP3    H242092   1.613   3.022  -0.020 -1.2897  0.4704  0.4192
 6893TIP3   OH242093   5.288   4.032  15.943  0.1165  0.0205  0.2500
 6893TIP3    H142094   5.261   4.082  16.020  0.4623 -0.5696  0.7675
 6893TIP3    H242095   5.359   3.977  15.974  1.3235  0.8775 -0.8508
 6894TIP3   OH242096   0.321   0.292   1.779  0.1106 -0.3993  0.2285
 6894TIP3    H142097   0.323   0.229   1.851  1.4270 -0.4544  0.1586
 6894TIP3    H242098   0.268   0.250   1.711 -0.2064 -0.8163  0.7221
 6895TIP3   OH242099   2.684   5.052  14.868  0.0052 -0.2074  0.8796
 6895TIP3    H142100   2.777   5.034  14.877  0.1221  1.5425  4.7686
 6895TIP3    H242101   2.663   5.113  14.938 -4.0085 -0.0713 -0.1536
 6896TIP3   OH242102   2.806   0.002   2.491  0.4268 -0.6431 -0.0239
 6896TIP3    H142103   2.835  -0.079   2.534  0.9234  0.0690  1.0474
 6896TIP3    H242104   2.887   0.046   2.466  0.1556 -0.5426 -0.7377
 6897TIP3   OH242105   4.505   4.403  11.412  0.0306 -0.2789  0.6787
 6897TIP3    H142106   4.534   4.312  11.420 -0.2425 -0.3523  0.8585
 6897TIP3    H242107   4.464   4.408  11.326  3.4033  0.6296 -1.0390
 6898TIP3   OH242108   1.621   5.326   5.451 -0.0726  0.6111 -0.3100
 6898TIP3    H142109   1.530   5.355   5.447 -0.0567  0.8712  0.7400
 6898TIP3    H242110   1.651   5.356   5.537 -0.3479 -3.3523  1.3966
 6899TIP3   OH242111   5.634   3.556  13.645  0.1328 -0.0466 -0.2502
 6899TIP3    H142112   5.645   3.491  13.575  0.0896  0.1919 -0.4776
 6899TIP3    H242113   5.699   3.623  13.625  1.0254 -0.6075  0.6633
 6900TIP3   OH242114   3.446   4.278  13.716 -0.4093  0.5464  0.3415
 6900TIP3    H142115   3.496   4.248  13.641  0.4559 -0.2675  1.2010
 6900TIP3    H242116   3.500   4.255  13.792 -1.8289  0.1172  1.2832
 6901TIP3   OH242117   5.231   0.255  13.290 -0.3105  0.0696 -0.5100
 6901TIP3    H142118   5.219   0.347  13.315  0.0745 -0.0460  0.1225
 6901TIP3    H242119   5.280   0.217  13.363 -1.7375 -0.9979 -0.0467
 6902TIP3   OH242120   0.164   5.080   3.108 -0.6400  0.0603 -0.4387
 6902TIP3    H142121   0.140   5.172   3.093 -2.3543  0.0063  1.4984
 6902TIP3    H242122   0.150   5.067   3.202  0.1669 -2.0320 -0.5642
 6903TIP3   OH242123   0.739   2.875   1.031  0.0530 -0.2864 -0.1409
 6903TIP3    H142124   0.797   2.798   1.032  0.6279  0.0926 -1.7158
 6903TIP3    H242125   0.788   2.942   1.079  0.8270 -0.0511 -1.2315
 6904TIP3   OH242126   0.612   0.669  15.307  0.0893  0.4112  0.7303
 6904TIP3    H142127   0.530   0.626  15.280 -0.3728  1.3291  0.6500
 6904TIP3    H242128   0.586   0.758  15.331  0.6376  0.0121  3.1151
 6905TIP3   OH242129   0.789   1.066   3.882 -0.5403  0.2367  0.0373
 6905TIP3    H142130   0.825   0.998   3.825  0.1369  1.0582 -0.5341
 6905TIP3    H242131   0.697   1.043   3.892 -0.4048 -0.5504 -0.4546
 6906TIP3   OH242132   0.746   5.160  13.216  0.9224  0.5315  0.0364
 6906TIP3    H142133   0.746   5.226  13.147  2.1117 -1.6101 -2.1516
 6906TIP3    H242134   0.661   5.117  13.207  0.9052  0.5243  0.2274
 6907TIP3   OH242135   5.725   1.050  14.035  0.1329  0.0993  0.0708
 6907TIP3    H142136   5.760   0.961  14.032 -0.0509  0.0391 -0.4501
 6907TIP3    H242137   5.682   1.061  13.950 -0.2322  0.5276  0.3100
 6908TIP3   OH242138   4.716   3.070  12.918 -0.5675 -0.3368 -0.0308
 6908TIP3    H142139   4.738   3.077  13.011 -1.0450  0.1476  0.0471
 6908TIP3    H242140   4.645   3.132  12.906 -0.8077 -0.7281 -0.6257
 6909TIP3   OH242141   6.338   2.977  10.642  0.2160 -0.2865 -0.0774
 6909TIP3    H142142   6.255   2.935  10.666 -0.6552  1.6378  0.4919
 6909TIP3    H242143   6.328   2.998  10.549  0.4264 -0.8141 -0.2227
 6910TIP3   OH242144   5.743   4.062   3.301 -0.2869 -0.2231 -0.3178
 6910TIP3    H142145   5.672   4.112   3.341  0.2972 -0.0579  0.5537
 6910TIP3    H242146   5.765   4.111   3.221 -1.9514 -0.9540 -1.2606
 6911TIP3   OH242147   2.057   3.647  11.292 -0.1305 -0.0118 -0.0948
 6911TIP3    H142148   2.100   3.565  11.267  0.2911  0.2427 -0.2300
 6911TIP3    H242149   2.077   3.657  11.385  1.2373  0.7547 -0.4391
 6912TIP3   OH242150   6.704   0.413  12.296  0.0504 -0.1644 -0.4347
 6912TIP3    H142151   6.758   0.481  12.256 -1.7687  2.0559  0.6271
 6912TIP3    H242152   6.705   0.341  12.233  1.5632  1.0784 -1.9247
 6913TIP3   OH242153   0.129   6.085   1.701  0.3048  0.5225  0.1590
 6913TIP3    H142154   0.192   6.120   1.764 -0.5203  1.1957  0.6351
 6913TIP3    H242155   0.165   6.000   1.675  0.8385  0.3913  1.2800
 6914TIP3   OH242156   0.744   4.597  14.335 -0.0952 -0.7383 -0.0132
 6914TIP3    H142157   0.686   4.665  14.301  1.5885  1.1232  0.6283
 6914TIP3    H242158   0.758   4.622  14.427  1.4944 -1.2489 -0.0815
 6915TIP3   OH242159   5.215   5.795  11.054  0.5859 -0.0088 -0.3925
 6915TIP3    H142160   5.228   5.854  11.128  0.2859  0.8625 -1.0289
 6915TIP3    H242161   5.138   5.829  11.009  1.8353  0.5960 -2.1766
 6916TIP3   OH242162   6.405   2.299  17.277 -0.0540  0.2912  0.4867
 6916TIP3    H142163   6.328   2.335  17.233 -0.3912  0.7078  1.3798
 6916TIP3    H242164   6.396   2.204  17.269 -0.8066  0.3266  0.8060
 6917TIP3   OH242165   2.621   5.637   5.587  0.2585 -0.0954 -0.3630
 6917TIP3    H142166   2.708   5.627   5.550  0.4417  1.0673 -0.2624
 6917TIP3    H242167   2.619   5.726   5.621 -0.1571 -0.8559  1.7676
 6918TIP3   OH242168   6.534   6.162  13.156 -0.4107  0.1140 -0.2691
 6918TIP3    H142169   6.591   6.093  13.122  0.4999  0.7520 -0.0639
 6918TIP3    H242170   6.515   6.217  13.080 -0.0376  0.3911 -0.1645
 6919TIP3   OH242171   5.620   2.001  15.448 -0.2887 -0.0969 -0.1051
 6919TIP3    H142172   5.638   1.916  15.487  2.0931  1.0427  1.5266
 6919TIP3    H242173   5.610   2.060  15.522 -1.6482  1.1257 -1.1995
 6920TIP3   OH242174   6.185   3.509  12.795  0.2280  0.3183  0.2563
 6920TIP3    H142175   6.157   3.489  12.706 -2.6629  1.5592  0.7610
 6920TIP3    H242176   6.103   3.513  12.845  1.8359 -1.6670  3.2978
 6921TIP3   OH242177   5.509   4.796  15.884  0.3927 -0.2062 -0.0697
 6921TIP3    H142178   5.452   4.778  15.810  1.3048 -0.7236 -0.6631
 6921TIP3    H242179   5.525   4.711  15.924  1.0418 -0.1135 -0.1279
 6922TIP3   OH242180   3.775   3.294   5.801  0.1653 -1.1435 -0.5020
 6922TIP3    H142181   3.685   3.277   5.828 -0.1885 -0.2999 -1.1252
 6922TIP3    H242182   3.809   3.353   5.869 -0.0157 -0.8127 -0.6950
 6923TIP3   OH242183   2.675   1.237  15.861 -0.3246  0.7427  0.8012
 6923TIP3    H142184   2.621   1.315  15.872 -0.4535  1.1638 -2.0461
 6923TIP3    H242185   2.646   1.200  15.777  1.5282 -0.8907  0.8210
 6924TIP3   OH242186   6.395   5.734   0.544  0.2241 -0.1442  0.1472
 6924TIP3    H142187   6.482   5.764   0.516 -0.6616  1.5891 -0.9635
 6924TIP3    H242188   6.340   5.743   0.466 -2.1996  4.1856  1.9703
 6925TIP3   OH242189   3.710   2.151   5.510 -0.3137  0.2884 -0.3664
 6925TIP3    H142190   3.743   2.225   5.562 -0.0451  0.1874 -0.3876
 6925TIP3    H242191   3.622   2.177   5.484 -1.7042 -0.8853  2.6417
 6926TIP3   OH242192   5.458   3.698  13.977 -0.2818  0.6371 -0.2004
 6926TIP3    H142193   5.402   3.706  13.900 -0.6040 -1.3358 -0.2248
 6926TIP3    H242194   5.515   3.624  13.958  0.5083  0.9079  0.9548
 6927TIP3   OH242195   0.534   1.045   0.286  0.0162  0.0762  0.3107
 6927TIP3    H142196   0.510   1.045   0.379  0.4770  1.1143  0.4393
 6927TIP3    H242197   0.532   1.137   0.260  0.0308 -0.1876 -0.6786
 6928TIP3   OH242198   2.132   1.637  14.023  0.1752 -0.5921 -0.4192
 6928TIP3    H142199   2.123   1.673  13.935 -0.1648 -1.3245 -0.6899
 6928TIP3    H242200   2.153   1.713  14.077  0.1339 -0.0906 -1.0847
 6929TIP3   OH242201   2.067   2.698   2.554  0.2695  0.5578 -0.4227
 6929TIP3    H142202   1.974   2.703   2.530 -0.1893  0.0895  1.1163
 6929TIP3    H242203   2.070   2.629   2.620  1.4009  1.8762  0.9622
 6930TIP3   OH242204   0.715   5.293  14.319  0.3975 -0.3127 -0.5907
 6930TIP3    H142205   0.689   5.319  14.231 -0.9493 -1.2083 -0.4840
 6930TIP3    H242206   0.675   5.207  14.332 -0.2572  0.2148  1.2410
 6931TIP3   OH242207   4.715   5.048   5.301  0.1776  0.0571  0.3181
 6931TIP3    H142208   4.649   5.115   5.317  0.1111 -0.0017  0.2913
 6931TIP3    H242209   4.759   5.076   5.221 -0.9189 -0.7559 -0.6047
 6932TIP3   OH242210   5.117   5.782   5.513  0.5201 -0.2295 -0.0967
 6932TIP3    H142211   5.211   5.772   5.527  0.3147 -2.0366  0.3451
 6932TIP3    H242212   5.080   5.781   5.601  0.1013  0.8690 -0.2472
 6933TIP3   OH242213   0.312   1.529   5.309  0.6335 -0.1946  0.3594
 6933TIP3    H142214   0.337   1.437   5.319 -1.2909 -0.6791  1.1990
 6933TIP3    H242215   0.261   1.531   5.228  0.5041  0.1087  0.4491
 6934TIP3   OH242216   5.998   0.912   5.874  0.7660  0.3448  0.1694
 6934TIP3    H142217   5.962   0.999   5.894  0.8089  0.1887  0.9260
 6934TIP3    H242218   5.969   0.856   5.945  0.5847 -0.3147 -0.4127
 6935TIP3   OH242219   0.944   6.143   1.811 -0.9633 -0.0927  0.0493
 6935TIP3    H142220   0.977   6.233   1.809  2.6634 -1.2621 -0.5108
 6935TIP3    H242221   0.990   6.103   1.885 -1.0878 -1.9245 -0.8149
 6936TIP3   OH242222   3.540   3.311   5.958  0.0015  0.3658  0.5425
 6936TIP3    H142223   3.492   3.362   6.023 -0.0319  0.0157  0.7950
 6936TIP3    H242224   3.573   3.235   6.006  1.1456  0.7989  0.4593
 6937TIP3   OH242225   5.895   2.250  14.347  0.2275 -0.2446 -0.6821
 6937TIP3    H142226   5.838   2.194  14.400  1.2661 -1.1469 -0.4660
 6937TIP3    H242227   5.956   2.189  14.305  1.3109  0.6979 -0.5399
 6938TIP3   OH242228   3.206   1.486   3.162 -0.2840  0.0633 -0.0513
 6938TIP3    H142229   3.212   1.522   3.250  0.3467  0.0527 -0.0834
 6938TIP3    H242230   3.269   1.536   3.111 -0.6854  0.1065 -0.5115
 6939TIP3   OH242231   0.235   4.175  13.206 -0.4560  0.1475 -0.6395
 6939TIP3    H142232   0.265   4.117  13.136  0.8222 -2.7026  2.0592
 6939TIP3    H242233   0.141   4.159  13.211 -0.0732 -2.1724  0.3247
 6940TIP3   OH242234   3.890   1.594  15.520  0.0100 -0.2193  0.1949
 6940TIP3    H142235   3.891   1.568  15.612  1.3165  1.3853  0.6965
 6940TIP3    H242236   3.810   1.644  15.509 -1.0896 -1.9356 -0.0674
 6941TIP3   OH242237   6.095   0.268   2.596  0.7160 -0.7550  0.4008
 6941TIP3    H142238   6.086   0.222   2.680 -0.3273  0.6666  1.1075
 6941TIP3    H242239   6.121   0.357   2.620 -1.2206  0.1576 -0.6098
 6942TIP3   OH242240   1.167   2.280  14.258 -0.2163  0.1442 -0.6460
 6942TIP3    H142241   1.121   2.354  14.297 -0.9544 -0.0270 -1.1602
 6942TIP3    H242242   1.152   2.290  14.164  2.5487  1.2439 -1.0593
 6943TIP3   OH242243   1.175   5.311   3.462  0.3456 -0.1535 -0.0307
 6943TIP3    H142244   1.137   5.269   3.385 -2.5516  1.0409  0.5862
 6943TIP3    H242245   1.138   5.263   3.536 -0.9516  1.7281  0.6305
 6944TIP3   OH242246   4.115   2.674   2.833 -0.1313  0.1716  0.6124
 6944TIP3    H142247   4.192   2.722   2.862  0.0126 -0.4877  1.3597
 6944TIP3    H242248   4.149   2.592   2.798 -0.3323  0.7936 -1.1414
 6945TIP3   OH242249   0.004   5.044   1.447 -0.4640  0.5382  0.0218
 6945TIP3    H142250  -0.044   5.072   1.369  0.0112  0.4592 -0.2974
 6945TIP3    H242251   0.035   5.126   1.486 -2.9084  0.8266  1.5898
 6946TIP3   OH242252   0.890   5.396  16.885  0.1039  0.2202 -0.7722
 6946TIP3    H142253   0.976   5.363  16.858 -0.3831 -0.3740 -1.6233
 6946TIP3    H242254   0.829   5.325  16.865 -0.4409  0.1376  0.9638
 6947TIP3   OH242255   0.701   4.139   1.381  0.1145  0.2384 -0.2349
 6947TIP3    H142256   0.715   4.228   1.413  0.3362  0.5435 -1.1576
 6947TIP3    H242257   0.766   4.127   1.312 -1.1958  0.0780 -1.4832
 6948TIP3   OH242258   2.388   3.455   0.474 -0.2022  0.7048  0.5979
 6948TIP3    H142259   2.403   3.549   0.489 -1.0166  0.8666  0.4545
 6948TIP3    H242260   2.398   3.415   0.561  1.9102  0.6521  0.3809
 6949TIP3   OH242261   3.190   3.995  15.060  0.1645 -0.6731 -0.6745
 6949TIP3    H142262   3.274   4.001  15.105 -1.1066  1.9172  1.6504
 6949TIP3    H242263   3.163   4.086  15.048 -2.2893 -1.4157 -1.4326
 6950TIP3   OH242264   5.357   2.000   6.885  0.3201 -0.2969  0.1751
 6950TIP3    H142265   5.266   1.995   6.914  0.6270  0.2368  1.2831
 6950TIP3    H242266   5.357   2.067   6.816 -0.0258  0.1240  0.5809
 6951TIP3   OH242267   4.258   5.942  14.100 -0.0180  0.8295  0.2105
 6951TIP3    H142268   4.232   5.974  14.013 -1.8289 -2.7166 -0.7779
 6951TIP3    H242269   4.347   5.911  14.089 -0.4874 -0.2877 -0.6914
 6952TIP3   OH242270   5.628   3.581   4.610  0.5424 -0.7377 -0.8440
 6952TIP3    H142271   5.590   3.586   4.698  1.1329 -1.3746 -0.5439
 6952TIP3    H242272   5.568   3.525   4.561 -0.3537  0.4589 -1.1649
 6953TIP3   OH242273   5.517   2.598  15.213  0.5877 -0.4192  0.2659
 6953TIP3    H142274   5.442   2.557  15.171 -0.3340  0.7339  0.7260
 6953TIP3    H242275   5.574   2.626  15.140 -0.5908  0.8173 -0.2267
 6954TIP3   OH242276   1.518   6.428   3.805  0.0637 -0.3541 -0.1637
 6954TIP3    H142277   1.527   6.460   3.716  1.2883  0.7114  0.3063
 6954TIP3    H242278   1.430   6.457   3.832  0.3797  0.9379 -0.4235
 6955TIP3   OH242279   1.353   1.020  12.161 -0.1871  0.0044  0.3435
 6955TIP3    H142280   1.395   0.940  12.130 -0.4615 -0.3562  0.8831
 6955TIP3    H242281   1.424   1.085  12.164  0.0301 -0.2049 -0.1252
 6956TIP3   OH242282   4.823   3.311  16.562  0.4551 -0.5279 -0.1615
 6956TIP3    H142283   4.863   3.304  16.475  2.6726 -1.2317  0.8445
 6956TIP3    H242284   4.880   3.372  16.609 -1.1084  0.3792  0.6187
 6957TIP3   OH242285   3.854   0.331   2.774  0.1750  0.4024  0.8489
 6957TIP3    H142286   3.774   0.334   2.722  0.9117  1.8953 -0.2762
 6957TIP3    H242287   3.917   0.383   2.724  1.2262  1.0257  2.7168
 6958TIP3   OH242288   6.008   2.530  13.526 -0.6731 -0.0253 -0.6502
 6958TIP3    H142289   5.959   2.610  13.506 -0.6159  0.3645  0.6806
 6958TIP3    H242290   6.051   2.507  13.443 -1.8409  0.5037 -1.4262
 6959TIP3   OH242291   4.879   6.485  11.737  0.0362  0.1002 -0.1371
 6959TIP3    H142292   4.950   6.485  11.673  0.6417 -2.6856  0.3824
 6959TIP3    H242293   4.804   6.448  11.690 -0.5711  1.3574 -0.1877
 6960TIP3   OH242294   1.416   6.433  15.816  0.4141 -0.1364 -0.2170
 6960TIP3    H142295   1.325   6.430  15.786  0.1045 -1.0495  0.7403
 6960TIP3    H242296   1.466   6.457  15.738 -0.4772 -1.2316 -1.1640
 6961TIP3   OH242297   0.371   6.510  10.927  0.0101  0.3741 -0.7470
 6961TIP3    H142298   0.297   6.477  10.978 -0.1284  1.4770 -0.1986
 6961TIP3    H242299   0.331   6.546  10.847 -0.2216  2.0735  0.0898
 6962TIP3   OH242300   0.400   1.565   0.212  0.2954  0.4596  0.0385
 6962TIP3    H142301   0.374   1.632   0.149 -0.8584  0.9515  0.9966
 6962TIP3    H242302   0.457   1.611   0.274 -0.2911  0.5126  0.5513
 6963TIP3   OH242303   4.677   5.863  12.918 -0.3259  0.1347  0.0544
 6963TIP3    H142304   4.621   5.827  12.987  1.3220 -1.7233  0.4950
 6963TIP3    H242305   4.753   5.897  12.964  0.8315 -1.1844 -0.7851
 6964TIP3   OH242306   6.519   2.665  11.186 -0.1476  0.0111 -0.1624
 6964TIP3    H142307   6.495   2.668  11.094  0.9103 -0.5003 -0.4710
 6964TIP3    H242308   6.453   2.719  11.230 -0.3070  0.7638 -1.2949
 6965TIP3   OH242309   1.405   1.208  11.919  0.0366  0.3724  0.2322
 6965TIP3    H142310   1.330   1.175  11.870  0.1517  1.5659 -0.7904
 6965TIP3    H242311   1.446   1.129  11.956 -0.3070 -0.5377 -1.2357
 6966TIP3   OH242312   1.886   6.572  12.530  0.3229  0.7128 -0.1275
 6966TIP3    H142313   1.941   6.560  12.452  0.5034  1.3176 -0.0973
 6966TIP3    H242314   1.798   6.583  12.496  0.1254 -0.7585 -0.1539
 6967TIP3   OH242315   0.141   1.732   4.137  0.2049 -0.2031 -0.4266
 6967TIP3    H142316   0.089   1.802   4.176  1.5936 -0.3286  1.8673
 6967TIP3    H242317   0.080   1.659   4.127 -0.6430  0.4675 -0.2790
 6968TIP3   OH242318   5.032   0.805   2.226 -0.1879  0.3073  0.0057
 6968TIP3    H142319   5.128   0.802   2.218 -0.1552  0.3280  0.3610
 6968TIP3    H242320   5.010   0.722   2.269 -0.2158  0.8289  1.0114
 6969TIP3   OH242321   1.583   5.634   1.332  0.4782 -0.2357 -0.0104
 6969TIP3    H142322   1.631   5.700   1.382  1.0013 -1.1469  0.7451
 6969TIP3    H242323   1.494   5.667   1.327  0.3049 -0.2796  1.8925
 6970TIP3   OH242324   6.588   5.606   5.095 -0.1362  0.4620  0.1925
 6970TIP3    H142325   6.552   5.638   5.178 -0.2141  1.7696 -0.3387
 6970TIP3    H242326   6.674   5.648   5.088  0.0704 -0.0103 -0.1791
 6971TIP3   OH242327   6.351   5.524  12.879 -0.5006 -0.0590  0.0874
 6971TIP3    H142328   6.380   5.469  12.807 -0.3122  0.2375 -0.0608
 6971TIP3    H242329   6.420   5.589  12.890 -1.5006  1.2231 -0.8748
 6972TIP3   OH242330   5.110   5.721  11.811  0.0940 -0.4772  0.0641
 6972TIP3    H142331   5.091   5.636  11.849  1.9138 -0.6302  0.7355
 6972TIP3    H242332   5.204   5.732  11.822  0.1013  1.0891 -1.1333
 6973TIP3   OH242333   6.518   2.178  12.970 -0.2748 -0.2939  0.0747
 6973TIP3    H142334   6.500   2.091  13.005  1.2076  0.0067  1.7609
 6973TIP3    H242335   6.484   2.238  13.037  0.0751  0.3795 -0.3370
 6974TIP3   OH242336   6.393   4.722   5.858 -0.0078  0.0599 -0.3291
 6974TIP3    H142337   6.420   4.761   5.942  0.7394  0.5554 -0.7832
 6974TIP3    H242338   6.385   4.797   5.799 -2.6135 -0.0330 -0.1930
 6975TIP3   OH242339   5.888   6.243  12.847  0.0836 -0.2209 -0.2766
 6975TIP3    H142340   5.800   6.221  12.876 -0.5687  1.3611 -0.8982
 6975TIP3    H242341   5.928   6.286  12.922  0.2267 -0.6768 -0.0897
 6976TIP3   OH242342   0.498   1.807  12.554  0.1833 -0.3956  0.0246
 6976TIP3    H142343   0.489   1.725  12.603  0.2029  0.2585  1.1629
 6976TIP3    H242344   0.409   1.828  12.525  0.2314 -0.9875 -0.5526
 6977TIP3   OH242345   1.327   4.709   5.323 -0.3259  0.0479 -0.4305
 6977TIP3    H142346   1.366   4.623   5.311 -0.3641 -0.0063 -0.1881
 6977TIP3    H242347   1.294   4.733   5.237  1.1901  0.5737 -0.8904
 6978TIP3   OH242348   6.122   3.317  14.921 -0.2264 -0.5460 -0.3976
 6978TIP3    H142349   6.185   3.272  14.977 -1.0479 -0.3543  0.7211
 6978TIP3    H242350   6.054   3.251  14.904 -1.4606  0.2128  1.2920
 6979TIP3   OH242351   3.478   2.321   0.405 -0.4144  0.1467 -0.0784
 6979TIP3    H142352   3.463   2.409   0.370 -0.0173  0.8915  1.5249
 6979TIP3    H242353   3.568   2.301   0.380 -0.9472 -0.4209 -1.6529
 6980TIP3   OH242354   3.368   5.505   6.157  0.2844 -0.3206 -0.3529
 6980TIP3    H142355   3.406   5.427   6.198 -1.3183 -1.9864 -1.8489
 6980TIP3    H242356   3.312   5.543   6.224 -0.6859 -1.7971 -0.2925
 6981TIP3   OH242357   3.038   1.609  16.687  0.5295 -0.4554 -0.1101
 6981TIP3    H142358   2.968   1.662  16.726  0.4226 -1.4165  1.0738
 6981TIP3    H242359   3.032   1.525  16.732  2.1311 -0.7279 -0.3452
 6982TIP3   OH242360   3.066   4.256   1.983 -0.3537 -0.2415 -0.4913
 6982TIP3    H142361   3.131   4.241   1.915  0.9104 -0.1975  0.6684
 6982TIP3    H242362   3.064   4.175   2.033  1.1336  0.7598  1.3483
 6983TIP3   OH242363   6.515   4.516  10.374 -0.0354  0.0830 -0.0106
 6983TIP3    H142364   6.517   4.611  10.382 -0.7718  0.0723  0.3891
 6983TIP3    H242365   6.431   4.491  10.412 -0.2643 -0.6467 -0.9702
 6984TIP3   OH242366   6.260   0.489   5.075  0.3397 -0.2888  0.3234
 6984TIP3    H142367   6.256   0.410   5.129  0.2587 -1.5873 -1.5008
 6984TIP3    H242368   6.289   0.458   4.990  1.7177  1.8929 -0.0549
 6985TIP3   OH242369   1.064   0.220  11.145 -0.2294  0.2189 -0.0190
 6985TIP3    H142370   1.031   0.252  11.229  0.9166  1.8411 -0.1532
 6985TIP3    H242371   1.114   0.293  11.109  0.0849 -0.7722 -1.6949
 6986TIP3   OH242372   3.763   4.828   0.991  0.8213  0.2339 -0.9436
 6986TIP3    H142373   3.767   4.822   0.896 -0.5854  0.6520 -1.0393
 6986TIP3    H242374   3.730   4.743   1.019  1.7485 -0.0863 -0.7668
 6987TIP3   OH242375   4.406   0.735   1.661  0.6614  0.0799 -0.0249
 6987TIP3    H142376   4.377   0.672   1.595  0.6139  0.0518  0.0225
 6987TIP3    H242377   4.428   0.681   1.738  1.1882  0.0711 -0.1829
 6988TIP3   OH242378   1.870   3.736   3.610 -0.3716  0.0289 -0.5717
 6988TIP3    H142379   1.948   3.744   3.665 -0.2232  0.7704 -0.8781
 6988TIP3    H242380   1.888   3.791   3.534 -1.3310  0.4728 -0.4946
 6989TIP3   OH242381   1.577   3.098  16.360 -0.2985 -0.2131 -0.4696
 6989TIP3    H142382   1.523   3.040  16.414  0.0764 -0.0098  0.1388
 6989TIP3    H242383   1.514   3.152  16.313 -0.6340 -0.0800  0.1168
 6990TIP3   OH242384   5.175   0.263   0.435 -0.5086 -0.3807  0.2425
 6990TIP3    H142385   5.268   0.240   0.426 -0.4965  0.2639 -1.8057
 6990TIP3    H242386   5.138   0.191   0.485  1.1730 -0.4155  1.5454
 6991TIP3   OH242387   1.869   0.626  16.875  0.2444  0.5274 -0.1158
 6991TIP3    H142388   1.959   0.659  16.886 -0.2569  1.7053  0.6218
 6991TIP3    H242389   1.813   0.698  16.904 -0.9590 -0.1414 -0.6852
 6992TIP3   OH242390   4.125   2.003   4.333 -0.2217 -0.0909 -0.0677
 6992TIP3    H142391   4.032   2.024   4.341 -0.0710  0.2154  1.0232
 6992TIP3    H242392   4.167   2.051   4.404  0.8986  0.4630 -1.0692
 6993TIP3   OH242393   1.739   2.379   3.161  0.8223  0.8553 -0.1654
 6993TIP3    H142394   1.788   2.348   3.237 -0.5659  0.3316  0.5633
 6993TIP3    H242395   1.743   2.306   3.099 -1.4410 -0.4493  1.0772
 6994TIP3   OH242396   0.921   4.644   0.760  0.3835 -0.0093  0.0074
 6994TIP3    H142397   0.906   4.556   0.796  1.8706 -0.2793  0.0252
 6994TIP3    H242398   0.941   4.698   0.836 -0.5956  0.3797  0.0029
 6995TIP3   OH242399   5.677   0.307  16.724 -0.3242  0.0056 -0.2968
 6995TIP3    H142400   5.677   0.332  16.816  0.5729 -3.5971  0.8513
 6995TIP3    H242401   5.768   0.319  16.696 -0.0603 -1.1044  0.0364
 6996TIP3   OH242402   4.584   6.077   6.117  0.6239  0.1779  0.1010
 6996TIP3    H142403   4.590   5.996   6.167  0.6264  0.7236  0.9980
 6996TIP3    H242404   4.572   6.145   6.183  0.5812  0.9054 -0.6460
 6997TIP3   OH242405   3.136   2.009  14.671 -0.0640  0.7031 -0.3095
 6997TIP3    H142406   3.189   2.063  14.612  0.7594 -0.9866 -1.1962
 6997TIP3    H242407   3.054   1.996  14.623  1.0084 -1.5834 -1.7128
 6998TIP3   OH242408   2.198   0.152  17.066  0.1792 -0.2899 -0.4842
 6998TIP3    H142409   2.286   0.140  17.029  0.0735 -1.8352 -0.3213
 6998TIP3    H242410   2.152   0.205  17.001  1.0455 -0.0138 -0.8893
 6999TIP3   OH242411   6.469   1.435   6.162 -0.4834 -0.2173 -0.3499
 6999TIP3    H142412   6.549   1.453   6.212 -0.5369  2.7610 -1.1189
 6999TIP3    H242413   6.500   1.398   6.080 -0.1921 -2.1880  0.5889
 7000TIP3   OH242414   2.388   4.881  14.245 -0.1358  0.4837  0.1943
 7000TIP3    H142415   2.420   4.853  14.331 -1.0742  0.2035  0.4692
 7000TIP3    H242416   2.295   4.901  14.260 -0.6520 -0.8517 -1.0152
 7001TIP3   OH242417   5.370   4.880  15.320  0.0285  0.2475 -0.7581
 7001TIP3    H142418   5.348   4.896  15.228 -1.9943 -1.1434 -0.5782
 7001TIP3    H242419   5.413   4.795  15.320  0.9957  0.7250 -0.5137
 7002TIP3   OH242420   2.749   3.172  11.456 -0.2321 -0.4918  0.0801
 7002TIP3    H142421   2.818   3.233  11.480  0.6710 -2.0804  1.8654
 7002TIP3    H242422   2.795   3.092  11.431 -1.3826 -0.7260 -1.4494
 7003TIP3   OH242423   3.230   5.208  14.965  0.5481  0.0461 -0.1631
 7003TIP3    H142424   3.321   5.238  14.962  0.1150  1.3269 -2.6203
 7003TIP3    H242425   3.234   5.126  15.014  2.8754  0.4739  0.5167
 7004TIP3   OH242426   2.090   3.809  17.130 -0.1776 -0.2352  0.4044
 7004TIP3    H142427   1.998   3.810  17.107  0.1626  0.8968 -0.9980
 7004TIP3    H242428   2.095   3.853  17.215 -0.7465  1.1895 -0.2832
 7005TIP3   OH242429   4.124   5.928  15.418 -0.2770 -0.1472  0.0070
 7005TIP3    H142430   4.113   5.836  15.440 -1.0654  0.1334  0.8113
 7005TIP3    H242431   4.050   5.973  15.459 -0.5452  0.7007 -1.3131
 7006TIP3   OH242432   2.126   0.726   5.002  0.3649  0.1714  1.0240
 7006TIP3    H142433   2.080   0.645   4.981 -1.4954  1.1261  1.2589
 7006TIP3    H242434   2.062   0.779   5.049  1.9032  1.3388  1.8893
 7007TIP3   OH242435   5.866   1.065  15.535  0.0321  0.7991 -0.1205
 7007TIP3    H142436   5.819   1.017  15.467  0.4747 -0.2208  0.2746
 7007TIP3    H242437   5.798   1.113  15.582 -0.4565  0.3145 -0.3269
 7008TIP3   OH242438   0.249   4.336  12.143 -0.1395 -0.3245 -0.0401
 7008TIP3    H142439   0.237   4.397  12.215  4.7101 -1.0207  1.6966
 7008TIP3    H242440   0.308   4.381  12.083 -1.0188 -1.2446 -1.6743
 7009TIP3   OH242441   2.723   5.301   7.094  0.4060  0.5099 -0.6143
 7009TIP3    H142442   2.750   5.231   7.035 -2.0517 -1.5802  0.5516
 7009TIP3    H242443   2.648   5.342   7.050 -0.8679 -0.4726  0.5544
 7010TIP3   OH242444   3.663   1.820   4.756  0.0407 -0.2225 -0.1052
 7010TIP3    H142445   3.713   1.788   4.680 -2.4014 -1.2898 -1.3788
 7010TIP3    H242446   3.669   1.915   4.751  2.0191 -0.2926 -0.0854
 7011TIP3   OH242447   2.648   3.344   4.847 -0.1536  0.0793 -0.0044
 7011TIP3    H142448   2.696   3.273   4.805  1.3869  0.7799  0.4882
 7011TIP3    H242449   2.592   3.300   4.911  2.0487 -0.6706  1.5455
 7012TIP3   OH242450   2.745   6.496  13.948 -0.3025  0.6683 -0.4094
 7012TIP3    H142451   2.741   6.405  13.979  1.4615  1.2873  1.9330
 7012TIP3    H242452   2.836   6.508  13.921 -0.1129  2.1374  0.7741
 7013TIP3   OH242453   2.126   4.125   3.299 -0.2300 -0.0248  0.6478
 7013TIP3    H142454   2.120   4.157   3.389 -2.8104 -0.7856  0.8339
 7013TIP3    H242455   2.210   4.079   3.296 -0.9932 -1.9052  3.3964
 7014TIP3   OH242456   0.108   1.110  13.383  0.2895  0.3776  0.0040
 7014TIP3    H142457   0.139   1.107  13.473 -0.7035  0.7501  0.3726
 7014TIP3    H242458   0.058   1.191  13.377 -1.2129 -0.5337 -0.3461
 7015TIP3   OH242459   3.920   3.413  11.360 -0.1794  0.0224  0.6173
 7015TIP3    H142460   3.929   3.502  11.394  0.3315 -0.0256  0.6146
 7015TIP3    H242461   3.850   3.374  11.413 -0.6826  0.5460  0.3541
 7016TIP3   OH242462   1.941   2.816   5.235  0.5784 -0.3613 -0.5468
 7016TIP3    H142463   1.901   2.795   5.320  3.1428  2.9922  1.7948
 7016TIP3    H242464   1.891   2.890   5.203  1.3582  0.2080 -0.4741
 7017TIP3   OH242465   3.067   1.434  16.874 -0.0371  0.1835  0.2946
 7017TIP3    H142466   3.025   1.363  16.922  0.0134  0.7413  1.1946
 7017TIP3    H242467   3.057   1.510  16.932  0.1671  0.8382 -0.5169
 7018TIP3   OH242468   4.344   2.537   0.052 -0.2887  0.0141  0.2201
 7018TIP3    H142469   4.416   2.479   0.027  0.8041  1.6516 -0.6182
 7018TIP3    H242470   4.368   2.570   0.139  0.9243  1.8956 -0.7648
 7019TIP3   OH242471   2.502   6.511  16.164  0.5935 -0.6450 -0.6921
 7019TIP3    H142472   2.585   6.498  16.208  0.7864 -1.9365 -1.3816
 7019TIP3    H242473   2.522   6.503  16.071 -0.0629  0.5184 -0.9653
 7020TIP3   OH242474   3.464   3.810  12.990 -0.3839 -0.6487 -0.4888
 7020TIP3    H142475   3.523   3.752  13.039 -1.4235 -0.3739  1.1611
 7020TIP3    H242476   3.479   3.787  12.898  2.2847 -0.5662 -0.1570
 7021TIP3   OH242477   5.137   4.784  14.695  0.1284  0.1342  0.0428
 7021TIP3    H142478   5.114   4.717  14.759  1.6109  0.0232  0.4848
 7021TIP3    H242479   5.064   4.783  14.633 -2.4121  1.6465  2.7562
 7022TIP3   OH242480   5.081   1.343  12.008  0.7497  0.4290  1.1594
 7022TIP3    H142481   5.037   1.413  11.959  0.0415 -0.1863  0.9091
 7022TIP3    H242482   5.142   1.390  12.066  1.2987  1.1943  0.0173
 7023TIP3   OH242483   1.197   1.454   5.339 -0.3493  0.2537  0.0134
 7023TIP3    H142484   1.156   1.372   5.367 -0.4404  0.5080  0.6268
 7023TIP3    H242485   1.127   1.501   5.293 -0.2685 -0.0500 -0.4339
 7024TIP3   OH242486   4.001   6.076  16.080  0.3494 -0.0401  0.0980
 7024TIP3    H142487   3.921   6.125  16.063  0.4969  0.1410 -0.0818
 7024TIP3    H242488   4.053   6.133  16.136  1.2050  0.7077 -1.3921
 7025TIP3   OH242489   3.706   0.532   5.056 -0.3742  0.0653  0.4926
 7025TIP3    H142490   3.638   0.491   5.108 -0.0698  0.3452  1.1249
 7025TIP3    H242491   3.782   0.535   5.114 -0.2416  1.0455  0.2979
 7026TIP3   OH242492   1.171   4.350   2.448 -0.3250 -0.2619 -0.1152
 7026TIP3    H142493   1.231   4.276   2.460 -1.4309 -0.9231  1.7557
 7026TIP3    H242494   1.088   4.310   2.422 -0.5826  0.4471 -0.4050
 7027TIP3   OH242495   1.786   0.098  14.706 -0.1739  0.2921  0.5122
 7027TIP3    H142496   1.757   0.181  14.670 -0.5432 -0.1185 -0.1486
 7027TIP3    H242497   1.829   0.121  14.788 -0.1534  1.1443  0.2663
 7028TIP3   OH242498   4.721   6.318  15.968 -0.3517  0.2748 -0.4376
 7028TIP3    H142499   4.738   6.232  16.007 -1.3512  0.0562 -0.4642
 7028TIP3    H242500   4.746   6.380  16.036  0.9793 -0.0076 -0.6498
 7029TIP3   OH242501   6.483   6.133   2.755 -0.0445  0.4031 -0.4095
 7029TIP3    H142502   6.548   6.066   2.776  0.5601  0.9307 -0.5748
 7029TIP3    H242503   6.432   6.144   2.835  0.6617  0.6423  0.0120
 7030TIP3   OH242504   4.724   5.296  13.479 -0.2107  0.0579  1.0100
 7030TIP3    H142505   4.796   5.252  13.523 -0.9505 -1.6519  0.5960
 7030TIP3    H242506   4.762   5.328  13.397  0.3511  0.2216  1.3303
 7031TIP3   OH242507   4.646   4.260   0.967  0.1210 -0.7034  0.6250
 7031TIP3    H142508   4.689   4.175   0.981  1.5840  0.1473  1.5922
 7031TIP3    H242509   4.659   4.278   0.874 -1.8796 -2.3760 -0.0352
 7032TIP3   OH242510   3.421   5.685   3.070  0.1645  0.6486  0.3542
 7032TIP3    H142511   3.461   5.692   3.157 -1.2614  1.3497  0.9923
 7032TIP3    H242512   3.389   5.595   3.065 -0.0930  0.7171  0.7263
 7033TIP3   OH242513   4.003   2.820  12.329  0.2193  0.4355  0.2709
 7033TIP3    H142514   3.981   2.846  12.419 -0.1480 -0.7142  0.5349
 7033TIP3    H242515   4.097   2.805  12.331  0.0691 -0.5766  0.7543
 7034TIP3   OH242516   0.523   3.200   5.097 -0.0602 -0.3203  0.1781
 7034TIP3    H142517   0.445   3.237   5.056 -0.9643 -1.9540  0.3105
 7034TIP3    H242518   0.495   3.179   5.186  1.0247  0.5103  0.7435
 7035TIP3   OH242519   0.904   1.685  13.371 -0.0754  0.4867  0.1276
 7035TIP3    H142520   0.921   1.687  13.465 -3.2732  0.8523  0.7821
 7035TIP3    H242521   0.924   1.773  13.341  1.2166  0.2962  0.3502
 7036TIP3   OH242522   2.898   6.151   2.698 -0.0543  0.0561  0.1344
 7036TIP3    H142523   2.932   6.180   2.783  1.3142 -0.3813 -0.2338
 7036TIP3    H242524   2.818   6.104   2.719  0.1669  0.1197  1.1699
 7037TIP3   OH242525   1.890   0.741   0.762  0.4059 -0.5191  0.2546
 7037TIP3    H142526   1.983   0.751   0.743  0.5572  0.6340  1.4182
 7037TIP3    H242527   1.852   0.828   0.745 -0.7260 -1.2781 -1.4096
 7038TIP3   OH242528   4.437   5.309  17.070  0.7254 -0.4449  0.0995
 7038TIP3    H142529   4.404   5.228  17.031 -0.0055  1.5232 -3.9269
 7038TIP3    H242530   4.358   5.359  17.093  1.1264 -0.1274  0.8096
 7039TIP3   OH242531   4.735   0.321   0.897 -0.6573  0.2917  0.2337
 7039TIP3    H142532   4.664   0.268   0.933 -1.8421  2.4092  1.2891
 7039TIP3    H242533   4.771   0.367   0.973 -1.7998  3.2988 -0.8634
 7040TIP3   OH242534   0.627   0.753  12.755 -0.2661  0.4686  0.5477
 7040TIP3    H142535   0.549   0.717  12.796 -0.4852  2.0274  1.5563
 7040TIP3    H242536   0.700   0.711  12.801 -0.5174  1.0902  1.5307
 7041TIP3   OH242537   1.091   3.474   4.840 -0.2872 -0.6175 -0.3722
 7041TIP3    H142538   1.104   3.480   4.935  1.1089  2.4649 -0.6400
 7041TIP3    H242539   1.179   3.458   4.805 -0.8615 -2.2328 -1.1918
 7042TIP3   OH242540   4.489   2.296   6.639  0.2151 -0.2254 -0.3295
 7042TIP3    H142541   4.501   2.281   6.545  1.0806 -1.4803 -0.0355
 7042TIP3    H242542   4.569   2.340   6.667  0.5780 -1.1293  0.0777
 7043TIP3   OH242543   6.603   5.136   5.341  0.1967  0.6607 -0.3478
 7043TIP3    H142544   6.642   5.206   5.394 -0.0614 -0.1309  0.9557
 7043TIP3    H242545   6.620   5.161   5.251  0.1219  2.3921  0.0871
 7044TIP3   OH242546   2.983   5.883   4.709 -0.2804 -0.1593  0.2268
 7044TIP3    H142547   3.056   5.824   4.691  0.1022  0.3698  0.0179
 7044TIP3    H242548   2.951   5.909   4.623 -0.8369 -0.5276  0.3157
 7045TIP3   OH242549   2.775   6.614  12.307  0.3399  0.6365 -0.5735
 7045TIP3    H142550   2.833   6.633  12.233  1.4172  0.3083  0.1785
 7045TIP3    H242551   2.817   6.541  12.353 -1.3514 -0.5131 -0.7683
 7046TIP3   OH242552   2.427   0.276  17.273 -0.0783  0.3112 -0.0104
 7046TIP3    H142553   2.428   0.250  17.365  0.8557 -0.4697 -0.2359
 7046TIP3    H242554   2.385   0.203  17.228 -0.3507  0.6048 -0.2371
 7047TIP3   OH242555   0.682   3.172   0.600 -0.1614 -0.2281  0.2312
 7047TIP3    H142556   0.715   3.245   0.652  0.6711  0.6185 -1.4052
 7047TIP3    H242557   0.698   3.094   0.654  3.7552  0.2067  0.0079
 7048TIP3   OH242558   1.607   2.351  14.711  0.4910  0.4524  0.3104
 7048TIP3    H142559   1.569   2.274  14.754  1.8153 -0.7047 -0.5268
 7048TIP3    H242560   1.537   2.382  14.653  0.0335 -0.2730  0.4534
 7049TIP3   OH242561   2.524   0.747   5.627  0.1435 -0.2502  0.6921
 7049TIP3    H142562   2.511   0.826   5.574 -1.0642 -0.0775  1.2014
 7049TIP3    H242563   2.564   0.778   5.708  0.1452 -0.2255  0.6818
 7050TIP3   OH242564   1.640   3.132  11.105 -0.1326 -0.0751  0.1624
 7050TIP3    H142565   1.581   3.058  11.118  0.0356 -0.0537  1.1001
 7050TIP3    H242566   1.651   3.137  11.010 -0.2277 -1.1885  0.0797
 7051TIP3   OH242567   3.260   3.129  14.975  0.3286 -0.2029  0.2365
 7051TIP3    H142568   3.265   3.190  15.048 -0.3556  0.1710 -0.0182
 7051TIP3    H242569   3.283   3.181  14.898 -1.0539 -0.0354 -0.0914
 7052TIP3   OH242570   1.818   4.656  17.346 -0.6578  0.3892  0.0932
 7052TIP3    H142571   1.850   4.726  17.404 -0.0311  1.2567 -1.2485
 7052TIP3    H242572   1.843   4.684  17.258 -2.0418 -0.6341 -0.6770
 7053TIP3   OH242573   6.194   3.452   2.014 -0.0103 -0.4058  0.5110
 7053TIP3    H142574   6.115   3.397   2.017  1.4855 -2.7512 -0.0118
 7053TIP3    H242575   6.196   3.487   1.925  0.3678 -1.7368 -0.0335
 7054TIP3   OH242576   1.691   3.853   6.010  0.6415 -0.3951  0.4508
 7054TIP3    H142577   1.720   3.944   6.008  0.7774 -0.4346  0.5518
 7054TIP3    H242578   1.609   3.852   5.962  0.8443 -0.2910  0.1012
 7055TIP3   OH242579   1.965   6.498  15.157  0.5698 -0.0884  0.3941
 7055TIP3    H142580   1.962   6.529  15.066 -1.3545  0.3995  0.5777
 7055TIP3    H242581   1.892   6.436  15.164 -0.5909  1.3424  2.0498
 7056TIP3   OH242582   6.077   2.039   6.790  0.3254  0.8390  0.3635
 7056TIP3    H142583   5.982   2.033   6.797  0.3227  0.4244  0.0560
 7056TIP3    H242584   6.110   1.979   6.858  0.3479  0.2026 -0.1925
 7057TIP3   OH242585   1.231   6.013  16.278  0.1783  0.0328 -0.2646
 7057TIP3    H142586   1.299   6.028  16.213  1.0057 -0.6467  0.4183
 7057TIP3    H242587   1.152   5.995  16.227  0.4102  1.1888 -1.0680
 7058TIP3   OH242588   0.229   0.641  13.796  0.0366  0.5622  0.0770
 7058TIP3    H142589   0.198   0.698  13.725 -1.5712  0.6305  0.7939
 7058TIP3    H242590   0.202   0.553  13.770  1.1549  0.3128 -0.2921
 7059TIP3   OH242591   0.599   2.477  11.544  0.3337 -0.5055  0.2242
 7059TIP3    H142592   0.649   2.549  11.584  0.4046 -1.6648  2.3623
 7059TIP3    H242593   0.657   2.441  11.478  2.0005 -1.2201  2.0106
 7060TIP3   OH242594   0.916   4.282  12.651  0.1866 -0.2900  0.3964
 7060TIP3    H142595   0.891   4.193  12.627  0.0651 -0.1877  0.1394
 7060TIP3    H242596   1.012   4.280  12.655  0.2403 -0.1667 -0.6656
 7061TIP3   OH242597   2.144   1.471  15.708 -0.1064 -0.2277  0.6076
 7061TIP3    H142598   2.138   1.450  15.615  0.6043 -0.1522  0.5384
 7061TIP3    H242599   2.060   1.512  15.729 -0.9167 -1.6819  0.3730
 7062TIP3   OH242600   2.804   2.341   6.021  0.0619  0.1432 -0.2536
 7062TIP3    H142601   2.773   2.418   5.973  0.9602  0.3544 -0.5167
 7062TIP3    H242602   2.724   2.298   6.053 -0.4412  1.2236 -0.0316
 7063TIP3   OH242603   4.347   4.941  13.511  0.2210  0.1098  0.4233
 7063TIP3    H142604   4.317   5.025  13.546 -0.2655  0.6615 -1.2328
 7063TIP3    H242605   4.432   4.962  13.471  0.8393 -0.5435  1.3479
 7064TIP3   OH242606   5.929   3.358  11.781  0.1562  0.3452  0.0666
 7064TIP3    H142607   5.956   3.308  11.858 -2.2267 -0.7537  0.2903
 7064TIP3    H242608   5.990   3.333  11.713  0.3901 -1.1423  0.7946
 7065TIP3   OH242609   2.466   1.975  13.933 -0.0935 -0.3244 -0.0472
 7065TIP3    H142610   2.412   1.904  13.969 -1.0378  0.7998  0.8056
 7065TIP3    H242611   2.556   1.947  13.950 -0.2728 -2.6860 -2.3407
 7066TIP3   OH242612   1.449   2.781   4.072 -0.0348 -0.0979 -0.0878
 7066TIP3    H142613   1.484   2.868   4.054 -0.1180 -0.4863 -2.5831
 7066TIP3    H242614   1.525   2.724   4.071 -0.1168 -0.2142  0.2700
 7067TIP3   OH242615   1.395   0.932  11.345 -0.3206  0.5312 -0.2822
 7067TIP3    H142616   1.411   1.010  11.397  1.1081  1.1739 -1.6271
 7067TIP3    H242617   1.478   0.913  11.303 -0.3423 -2.2934  0.7146
 7068TIP3   OH242618   1.391   2.707  13.923  0.2142  0.3473  0.1413
 7068TIP3    H142619   1.484   2.689  13.939  0.3893  0.5248 -0.6214
 7068TIP3    H242620   1.345   2.653  13.987  0.7929 -1.1820 -0.6818
 7069TIP3   OH242621   6.340   0.523  12.658  0.5250 -0.0833 -0.1806
 7069TIP3    H142622   6.357   0.554  12.569 -1.1849  0.8969 -0.2180
 7069TIP3    H242623   6.427   0.517  12.699  1.2559  0.3624 -1.6191
 7070TIP3   OH242624   3.943   5.693   1.524 -0.0594 -0.4066 -0.0184
 7070TIP3    H142625   3.853   5.690   1.493 -0.6255  2.5320  1.0327
 7070TIP3    H242626   3.944   5.635   1.600 -1.2015 -0.1890  0.1859
 7071TIP3   OH242627   4.053   3.418   5.032 -0.2466 -0.0694  0.4059
 7071TIP3    H142628   4.101   3.473   4.970 -0.9296  0.5668  0.4266
 7071TIP3    H242629   4.121   3.374   5.082  0.3273  0.8652  0.4773
 7072TIP3   OH242630   3.564   1.655   2.385  0.0704  0.1254  0.7244
 7072TIP3    H142631   3.473   1.626   2.392  0.1330 -0.0782  0.6845
 7072TIP3    H242632   3.605   1.623   2.465 -0.3043  1.7000  1.5923
 7073TIP3   OH242633   4.567   1.147  13.083 -0.4857 -0.2510  0.6086
 7073TIP3    H142634   4.506   1.166  13.011  0.0893 -1.6338 -0.2870
 7073TIP3    H242635   4.525   1.076  13.131 -0.4732  0.1035  1.1435
 7074TIP3   OH242636   5.635   2.852   1.028  0.2312  0.3423  0.2498
 7074TIP3    H142637   5.585   2.808   1.097 -1.2808 -1.0795 -1.6392
 7074TIP3    H242638   5.720   2.809   1.029  0.1839  0.2494  1.1295
 7075TIP3   OH242639   0.223   5.882   2.449 -0.0139 -0.2661  0.8955
 7075TIP3    H142640   0.153   5.930   2.404 -0.6352 -1.7130  0.2377
 7075TIP3    H242641   0.295   5.880   2.387 -0.0069 -0.2215  0.9023
 7076TIP3   OH242642   0.221   1.006   0.468 -0.0966  0.3303  0.1858
 7076TIP3    H142643   0.218   0.911   0.477  1.8275  0.2866  0.7233
 7076TIP3    H242644   0.167   1.024   0.391 -0.2341 -1.2220 -0.1078
 7077TIP3   OH242645   5.228   5.247  15.984 -0.1230  0.3754 -0.4087
 7077TIP3    H142646   5.258   5.272  16.071 -0.8876  1.9068 -0.5591
 7077TIP3    H242647   5.290   5.288  15.924  0.1802 -0.3567 -0.6031
 7078TIP3   OH242648   0.210   4.835  13.608 -0.4331  0.1863 -0.6570
 7078TIP3    H142649   0.275   4.814  13.541  0.6665  1.4159 -0.0311
 7078TIP3    H242650   0.239   4.785  13.685 -1.2788 -0.6600 -0.8669
 7079TIP3   OH242651   4.410   1.197  12.853  0.2728 -0.3631  0.2062
 7079TIP3    H142652   4.449   1.168  12.770  0.1804  1.3628 -0.4827
 7079TIP3    H242653   4.316   1.189  12.840  0.2015  1.0175 -0.3390
 7080TIP3   OH242654   5.084   0.496   3.137  0.0340 -0.4175  0.1931
 7080TIP3    H142655   5.064   0.404   3.156 -0.2977 -0.3024  0.4040
 7080TIP3    H242656   5.005   0.543   3.162  0.7542  0.1117  1.5530
 7081TIP3   OH242657   2.327   3.295  13.699  0.7575  0.4114  0.2369
 7081TIP3    H142658   2.315   3.379  13.742  0.0051  0.4734 -0.0748
 7081TIP3    H242659   2.346   3.234  13.770  1.3956  0.8505  0.4541
 7082TIP3   OH242660   5.404   0.559   4.140 -0.1428  0.2654 -0.1248
 7082TIP3    H142661   5.452   0.553   4.057 -0.3171  0.4563 -0.2403
 7082TIP3    H242662   5.473   0.565   4.207 -0.0007  0.7151 -0.3035
 7083TIP3   OH242663   6.442   2.362  13.158 -1.0435  0.1944 -0.0057
 7083TIP3    H142664   6.526   2.375  13.203 -0.8258  0.1358 -0.3967
 7083TIP3    H242665   6.426   2.444  13.113 -1.2901  0.2716  0.2207
 7084TIP3   OH242666   5.221   1.849   1.764  0.3289 -0.7250  0.5085
 7084TIP3    H142667   5.239   1.937   1.729  0.7078 -0.7705  0.5794
 7084TIP3    H242668   5.183   1.865   1.850  0.6785 -0.6333  0.6479
 7085TIP3   OH242669   5.319   3.961  13.147 -0.2878 -0.0011  0.7063
 7085TIP3    H142670   5.413   3.951  13.159 -0.0119  2.3830  1.0335
 7085TIP3    H242671   5.290   4.011  13.223 -1.3962  1.2248 -0.4520
 7086TIP3   OH242672   1.247   1.480   4.238 -0.0005 -0.6066 -0.1168
 7086TIP3    H142673   1.176   1.417   4.223 -0.3568 -0.8590  2.3010
 7086TIP3    H242674   1.207   1.565   4.221  0.2027 -0.8929 -2.3893
 7087TIP3   OH242675   3.996   3.025  15.013  0.4356 -0.5688  0.6634
 7087TIP3    H142676   4.050   3.088  14.966  0.5234 -2.5515 -2.1804
 7087TIP3    H242677   4.050   2.946  15.019 -0.7651 -1.3855  1.2500
 7088TIP3   OH242678   0.424   3.120   6.459 -0.0105 -0.3437  0.3858
 7088TIP3    H142679   0.408   3.043   6.514  1.9255  0.2284  1.8652
 7088TIP3    H242680   0.384   3.193   6.507 -0.6756 -0.2209 -0.3437
 7089TIP3   OH242681   0.928   5.015  11.499  0.1445  0.3174 -0.9037
 7089TIP3    H142682   0.951   4.970  11.580 -0.9010 -0.4197 -0.9948
 7089TIP3    H242683   0.954   4.955  11.430 -1.5957 -0.3871 -1.0172
 7090TIP3   OH242684   1.218   6.669  16.158 -0.3480  0.0254 -0.0629
 7090TIP3    H142685   1.267   6.597  16.119 -1.3135 -1.2834  1.0566
 7090TIP3    H242686   1.258   6.748  16.122  2.2382 -0.9864  0.3834
 7091TIP3   OH242687   1.606   5.822  13.216 -0.0487  0.0320 -0.1635
 7091TIP3    H142688   1.666   5.807  13.289 -0.2552 -1.1008 -0.2049
 7091TIP3    H242689   1.618   5.746  13.159 -0.8264  0.2603 -0.6520
 7092TIP3   OH242690   2.767   4.610  14.582 -0.0119  0.5143  0.2304
 7092TIP3    H142691   2.773   4.634  14.675 -0.3105  0.3633  0.2889
 7092TIP3    H242692   2.746   4.693  14.538  0.4497  0.6508  0.2561
 7093TIP3   OH242693   5.081   4.922  11.878  0.4928 -0.5041 -0.2132
 7093TIP3    H142694   5.020   4.848  11.871 -0.0923  0.0127 -0.7904
 7093TIP3    H242695   5.045   4.976  11.949  0.6904 -0.5700 -0.0637
 7094TIP3   OH242696   2.467   4.421  13.646 -0.0421  0.1353  0.6487
 7094TIP3    H142697   2.401   4.454  13.706 -2.7405 -3.6120  0.1417
 7094TIP3    H242698   2.512   4.352  13.695  1.4210  0.5615 -0.0266
 7095TIP3   OH242699   5.132   2.380   4.691 -0.7206  0.0043 -0.1113
 7095TIP3    H142700   5.135   2.328   4.770  0.2241 -0.0474 -0.1759
 7095TIP3    H242701   5.138   2.471   4.721 -2.2059  0.0956 -0.0098
 7096TIP3   OH242702   3.455   5.197   2.086  0.0635  0.0782  0.2037
 7096TIP3    H142703   3.407   5.158   2.159  0.3507  1.5366  1.2416
 7096TIP3    H242704   3.547   5.194   2.114  0.4478 -1.2872 -1.0759
 7097TIP3   OH242705   4.776   1.777  16.688 -0.6708  0.1680 -0.4984
 7097TIP3    H142706   4.770   1.681  16.683  0.4223  0.1687 -2.5542
 7097TIP3    H242707   4.746   1.797  16.777  2.1445 -2.3279  1.2019
 7098TIP3   OH242708   5.281   6.625   1.951 -0.0483  0.3899  0.0705
 7098TIP3    H142709   5.376   6.636   1.956  0.1764 -0.6384 -1.2841
 7098TIP3    H242710   5.254   6.685   1.881 -0.2791  0.0740 -0.1109
 7099TIP3   OH242711   4.783   5.238   4.412 -0.4652  0.3783 -0.2992
 7099TIP3    H142712   4.725   5.258   4.339  0.5154 -0.9402 -1.4862
 7099TIP3    H242713   4.828   5.321   4.431 -2.1590  1.2270  0.1726
 7100TIP3   OH242714   5.687   1.094  11.605 -0.5686  0.1326 -0.4277
 7100TIP3    H142715   5.702   1.008  11.567 -1.0291  0.4881 -1.4605
 7100TIP3    H242716   5.670   1.077  11.697  0.8870 -0.7342 -0.2799
 7101TIP3   OH242717   5.590   2.262  13.593 -0.2724  0.4027  0.0326
 7101TIP3    H142718   5.569   2.195  13.658 -1.4062  0.2644 -0.4623
 7101TIP3    H242719   5.516   2.323  13.596 -0.2935  0.4464 -1.0572
 7102TIP3   OH242720   5.490   6.675  12.734  0.1481  0.2346 -0.2229
 7102TIP3    H142721   5.532   6.649  12.652 -0.7954  1.1873 -1.0378
 7102TIP3    H242722   5.398   6.656  12.721 -0.0973  0.9477  0.3910
 7103TIP3   OH242723   1.978   0.073  14.488  0.1596  0.0505  0.2255
 7103TIP3    H142724   1.929   0.050  14.567 -1.0776 -1.5728 -0.9317
 7103TIP3    H242725   1.912   0.114  14.431 -0.3789 -3.2970 -1.8645
 7104TIP3   OH242726   3.777   1.831   5.858  0.2566 -0.5207 -0.7317
 7104TIP3    H142727   3.854   1.886   5.875  0.0932 -0.3035 -0.6945
 7104TIP3    H242728   3.792   1.752   5.910  0.2320 -0.2816 -0.3546
 7105TIP3   OH242729   2.330   0.866  17.227 -0.0038  0.4476 -0.3111
 7105TIP3    H142730   2.238   0.854  17.202  0.0161 -0.6540  0.0554
 7105TIP3    H242731   2.376   0.793  17.185  0.9037  1.5807 -1.3655
 7106TIP3   OH242732   6.209   6.615  17.368  0.2018  0.3934 -0.4825
 7106TIP3    H142733   6.223   6.708  17.355 -2.6932  1.0711  0.4312
 7106TIP3    H242734   6.120   6.599  17.336 -0.0081 -1.6923  0.9071
 7107TIP3   OH242735   3.297   1.675  14.638 -0.5159  0.0174 -0.0541
 7107TIP3    H142736   3.314   1.581  14.635 -2.1548 -0.3483  0.6848
 7107TIP3    H242737   3.224   1.683  14.699  0.2860  1.8906  0.6929
 7108TIP3   OH242738   1.814   4.861  11.955 -0.5527 -0.1419  0.1041
 7108TIP3    H142739   1.765   4.896  12.029 -1.3660 -0.9868 -0.0290
 7108TIP3    H242740   1.868   4.791  11.992 -2.0193 -1.5381 -0.3111
 7109TIP3   OH242741   0.872   2.407   1.496 -0.3822  0.1783  0.1268
 7109TIP3    H142742   0.925   2.481   1.528 -1.0624  1.7577 -2.1827
 7109TIP3    H242743   0.833   2.371   1.576  1.7491  0.8463  1.5805
 7110TIP3   OH242744   2.580   4.017  15.297 -0.3844  0.2256  0.2246
 7110TIP3    H142745   2.591   3.985  15.207  0.9257  1.4838 -0.0909
 7110TIP3    H242746   2.577   4.112  15.288 -0.7116  0.3427  1.4814
 7111TIP3   OH242747   1.066   6.429   3.260  0.2263 -0.3430  0.3052
 7111TIP3    H142748   1.106   6.425   3.173  0.5475  0.2008  0.4201
 7111TIP3    H242749   0.992   6.369   3.256 -0.1293  0.1371 -0.5385
 7112TIP3   OH242750   3.219   1.306  11.858  0.3094  0.5045 -0.3780
 7112TIP3    H142751   3.267   1.225  11.843 -0.5006  0.0810 -0.6981
 7112TIP3    H242752   3.136   1.294  11.812 -0.3792  0.9749  0.7175
 7113TIP3   OH242753   4.310   4.643  15.259  0.7042 -0.2480  0.4117
 7113TIP3    H142754   4.266   4.666  15.341  1.2307  1.3838  0.2676
 7113TIP3    H242755   4.308   4.547  15.257  0.8557 -0.3349  2.4353
 7114TIP3   OH242756   4.094   1.048   1.390 -0.3303  0.8116 -0.1257
 7114TIP3    H142757   4.073   1.037   1.483  0.0190  0.4705 -0.0819
 7114TIP3    H242758   4.010   1.051   1.346 -0.4849 -0.7469  0.0138
 7115TIP3   OH242759   1.593   0.626   0.605  0.0614 -0.1621 -0.0057
 7115TIP3    H142760   1.558   0.583   0.527 -0.8524 -2.6283  1.6387
 7115TIP3    H242761   1.680   0.586   0.616  0.4853  0.7091 -0.1407
 7116TIP3   OH242762   2.146   4.511  12.424  0.2350  0.0259  0.3794
 7116TIP3    H142763   2.063   4.511  12.376 -0.3474 -1.1072  1.3200
 7116TIP3    H242764   2.206   4.460  12.368  0.2197  0.5778 -0.1532
 7117TIP3   OH242765   2.160   5.287  16.090  0.1374 -0.1322 -0.2168
 7117TIP3    H142766   2.221   5.226  16.133 -1.9939 -1.0378  1.7407
 7117TIP3    H242767   2.105   5.231  16.037 -0.6761  0.3018  0.1517
 7118TIP3   OH242768   4.789   6.501   5.645  0.0527  0.8930  0.8124
 7118TIP3    H142769   4.882   6.486   5.627  0.3581  2.1317  1.2758
 7118TIP3    H242770   4.743   6.446   5.582  1.0549 -1.8735  2.3501
 7119TIP3   OH242771   6.346   5.881   2.533  0.1777  0.0823  0.0423
 7119TIP3    H142772   6.263   5.908   2.494  0.6730 -0.6992 -1.6304
 7119TIP3    H242773   6.351   5.787   2.517  1.6637  0.2194 -0.4512
 7120TIP3   OH242774   5.398   0.857  15.247  0.0762 -0.4977  0.1183
 7120TIP3    H142775   5.476   0.911  15.260 -1.0896  1.0240  1.2396
 7120TIP3    H242776   5.420   0.772  15.285  0.7950  0.2791  1.5176
 7121TIP3   OH242777   2.767   1.579   3.958 -0.2881 -0.5197  0.1140
 7121TIP3    H142778   2.698   1.512   3.959  0.1199 -0.9515 -0.3997
 7121TIP3    H242779   2.760   1.621   4.043  0.0336 -1.8079  0.8015
 7122TIP3   OH242780   0.704   1.786   3.528  0.1128  0.1028  0.2068
 7122TIP3    H142781   0.641   1.775   3.457  0.0996  2.2135 -0.1607
 7122TIP3    H242782   0.681   1.717   3.590 -1.7039 -0.0384 -0.5418
 7123TIP3   OH242783   0.844   3.687  11.828  0.1227  0.0618 -0.1145
 7123TIP3    H142784   0.775   3.624  11.844  0.5084 -1.0329 -2.4331
 7123TIP3    H242785   0.887   3.697  11.913 -1.6158 -0.7147  0.9137
 7124TIP3   OH242786   0.781   1.100   4.597  0.1607 -0.3450 -0.0427
 7124TIP3    H142787   0.699   1.064   4.565  0.3242  0.1461 -1.0876
 7124TIP3    H242788   0.756   1.180   4.643  0.1098  0.4253 -1.3441
 7125TIP3   OH242789   4.742   3.896  11.480 -0.7991  0.2942 -0.4350
 7125TIP3    H142790   4.668   3.836  11.484 -0.8026  0.3002 -0.4057
 7125TIP3    H242791   4.750   3.920  11.387  0.1432 -0.9286 -0.6899
 7126TIP3   OH242792   6.449   3.883   0.108  0.1578  0.2297 -0.0705
 7126TIP3    H142793   6.539   3.915   0.109 -0.2658  1.4607 -0.1054
 7126TIP3    H242794   6.398   3.956   0.073 -0.5334 -1.2911 -2.4984
 7127TIP3   OH242795   4.866   0.452  14.440  0.3452 -0.3362  0.2007
 7127TIP3    H142796   4.774   0.469  14.461  0.2840 -0.4710  0.0375
 7127TIP3    H242797   4.913   0.481  14.518  0.2827  0.9894 -0.2301
 7128TIP3   OH242798   0.211   3.589   0.037  0.0372  0.2515 -0.3767
 7128TIP3    H142799   0.291   3.548   0.069  2.6446  2.5860 -3.1826
 7128TIP3    H242800   0.205   3.671   0.086 -0.3217  0.3273 -0.5433
 7129TIP3   OH242801   2.635   4.723   2.151  0.5710 -0.0603 -0.4291
 7129TIP3    H142802   2.554   4.675   2.134 -0.5895  1.9486 -0.8014
 7129TIP3    H242803   2.611   4.815   2.142  2.4529  0.6855  1.3457
 7130TIP3   OH242804   3.932   5.967  14.993  0.0835  0.0922  0.2562
 7130TIP3    H142805   3.855   5.975  15.049 -1.1449  0.5212 -1.3971
 7130TIP3    H242806   4.006   5.976  15.052 -1.0941 -1.5875  2.1098
 7131TIP3   OH242807   3.838   4.297  12.772  0.1421 -0.7094 -0.2533
 7131TIP3    H142808   3.768   4.337  12.823  1.0496  0.2061  0.3116
 7131TIP3    H242809   3.796   4.224  12.727 -1.1313 -0.2865  0.2021
 7132TIP3   OH242810   5.913   3.100  11.946 -0.1897 -0.1039  0.4273
 7132TIP3    H142811   5.986   3.054  11.906 -1.9080 -1.3373 -1.4800
 7132TIP3    H242812   5.842   3.091  11.883 -1.7510  1.7987  1.8079
 7133TIP3   OH242813   0.150   1.216   0.023 -0.2733  0.6637 -0.7538
 7133TIP3    H142814   0.064   1.220   0.065 -0.0991 -1.4163 -0.0702
 7133TIP3    H242815   0.132   1.179  -0.063 -0.2068  1.5954 -1.1794
 7134TIP3   OH242816   6.718   4.341  13.764 -0.1743 -0.3899 -0.2563
 7134TIP3    H142817   6.742   4.357  13.855  2.0307 -2.2937 -0.4250
 7134TIP3    H242818   6.799   4.350  13.715 -1.0263 -0.8897 -1.8390
 7135TIP3   OH242819   0.368   1.267   0.194  0.4441  0.4256  0.0004
 7135TIP3    H142820   0.385   1.358   0.170 -0.0012  0.5328  0.0897
 7135TIP3    H242821   0.288   1.244   0.148  0.1177  0.3303  0.6136
 7136TIP3   OH242822   3.827   4.598   4.100  0.0513  0.0199 -0.0498
 7136TIP3    H142823   3.812   4.521   4.154  0.2520 -0.5656 -0.8080
 7136TIP3    H242824   3.899   4.645   4.144  1.6581 -1.5332 -0.8860
 7137TIP3   OH242825   2.780   4.771   0.170  0.2331  0.5569  0.2039
 7137TIP3    H142826   2.695   4.736   0.145  0.2874  0.5768 -0.0074
 7137TIP3    H242827   2.821   4.799   0.088 -0.5487  2.7896  0.4895
 7138TIP3   OH242828   5.405   2.316   4.551  0.0723 -0.5131  0.0843
 7138TIP3    H142829   5.316   2.335   4.580  0.0678  0.1078 -0.3220
 7138TIP3    H242830   5.461   2.345   4.623  0.0364  0.6200 -0.3297
 7139TIP3   OH242831   0.595   4.811   4.123 -0.7534  0.0707 -0.0553
 7139TIP3    H142832   0.569   4.719   4.121 -1.1305  0.1683 -2.2300
 7139TIP3    H242833   0.685   4.810   4.156 -1.4385 -0.8253  1.9506
 7140TIP3   OH242834   6.635   1.782   3.580 -0.5281  0.0096  0.0066
 7140TIP3    H142835   6.659   1.798   3.671  1.8989 -0.6615 -0.4582
 7140TIP3    H242836   6.685   1.846   3.530 -1.1135 -0.2468 -0.9448
 7141TIP3   OH242837   0.588   0.809  13.634  0.1699  0.4056  0.6746
 7141TIP3    H142838   0.570   0.873  13.702 -2.5087 -1.0150  1.4336
 7141TIP3    H242839   0.549   0.728  13.666 -0.2833 -0.5789 -2.0847
 7142TIP3   OH242840   4.236   6.522   3.499 -0.1627  0.0918 -0.0090
 7142TIP3    H142841   4.144   6.508   3.520 -1.1625  0.1121 -3.6075
 7142TIP3    H242842   4.250   6.616   3.507 -1.0751  0.3611 -1.3378
 7143TIP3   OH242843   3.759   1.452   1.281 -0.1841  0.0669 -0.3886
 7143TIP3    H142844   3.799   1.501   1.209 -1.3861 -0.3881 -1.4196
 7143TIP3    H242845   3.669   1.436   1.251 -0.7784  0.0458  1.3229
 7144TIP3   OH242846   6.657   6.632  13.503 -0.7088  0.2752  0.1174
 7144TIP3    H142847   6.568   6.607  13.526 -1.4179  0.1772 -2.4418
 7144TIP3    H242848   6.671   6.716  13.547 -2.7184  1.1596 -0.8263
 7145TIP3   OH242849   0.506   5.674  11.224  0.1493 -0.4326 -0.3766
 7145TIP3    H142850   0.522   5.735  11.152  1.5274 -0.6859 -0.2939
 7145TIP3    H242851   0.512   5.587  11.185  2.1884 -0.6222  0.2379
 7146TIP3   OH242852   4.510   3.234  10.710  0.9467  0.5977  0.8297
 7146TIP3    H142853   4.505   3.139  10.706  2.0742  0.5820 -0.8810
 7146TIP3    H242854   4.422   3.261  10.737 -0.3285 -0.8071 -1.5638
 7147TIP3   OH242855   1.352   1.954   3.321 -0.1802  0.1676  0.1736
 7147TIP3    H142856   1.319   1.987   3.237  0.3845  1.8259  0.5503
 7147TIP3    H242857   1.275   1.917   3.365 -1.3499  2.7327  0.4782
 7148TIP3   OH242858   5.019   0.374  12.923  0.0651 -0.0995  0.1625
 7148TIP3    H142859   5.040   0.464  12.898 -0.9738  0.0992 -0.0365
 7148TIP3    H242860   5.103   0.336  12.951  0.3292  1.2386  1.2566
 7149TIP3   OH242861   4.629   6.090  16.127 -0.3343  0.6126 -0.5201
 7149TIP3    H142862   4.621   6.020  16.193 -0.7907  0.3868 -0.8142
 7149TIP3    H242863   4.575   6.161  16.161 -0.0070  0.7652 -0.3079
 7150TIP3   OH242864   1.118   4.856  16.382  0.4551  0.6706  0.2731
 7150TIP3    H142865   1.161   4.821  16.460 -0.2367 -1.6433 -0.3007
 7150TIP3    H242866   1.165   4.816  16.309 -0.6740  0.5421 -0.4132
 7151TIP3   OH242867   0.465   3.260   0.838  0.2619 -0.0605 -0.1476
 7151TIP3    H142868   0.514   3.337   0.868 -0.1110  0.2846 -0.4171
 7151TIP3    H242869   0.492   3.249   0.746  0.8039 -0.6431  0.0718
 7152TIP3   OH242870   6.324   3.238   5.445  0.6429 -0.5247  0.2237
 7152TIP3    H142871   6.263   3.299   5.402 -0.1567 -1.0610  0.5759
 7152TIP3    H242872   6.290   3.151   5.425  0.4616 -0.7991  1.6116
 7153TIP3   OH242873   3.954   6.442   3.253  0.6747 -0.1748  0.5146
 7153TIP3    H142874   4.037   6.436   3.206  1.4206  1.1308  1.6063
 7153TIP3    H242875   3.978   6.472   3.341 -1.0326  1.3940  0.5030
 7154TIP3   OH242876   0.917   3.831   1.787  0.0101 -0.6321 -0.2338
 7154TIP3    H142877   0.951   3.804   1.702 -2.1854 -0.0416 -1.3728
 7154TIP3    H242878   0.847   3.893   1.767  1.4340  1.9771  2.1047
 7155TIP3   OH242879   2.235   2.491   4.398  0.1855 -0.2035 -0.8493
 7155TIP3    H142880   2.167   2.429   4.425 -1.2872  1.6853  0.0277
 7155TIP3    H242881   2.287   2.444   4.333 -1.7875 -1.8253 -1.3339
 7156TIP3   OH242882   4.052   3.914   0.265  0.4517  0.4257 -0.1957
 7156TIP3    H142883   4.000   3.984   0.225  0.1118 -0.5977 -1.6350
 7156TIP3    H242884   4.142   3.940   0.250  0.3277  0.7437 -0.4069
 7157TIP3   OH242885   3.429   0.314  16.910 -0.4256  0.1038  0.3422
 7157TIP3    H142886   3.447   0.344  16.999 -0.1517  2.2997 -0.4056
 7157TIP3    H242887   3.407   0.393  16.861  0.2169 -0.9216 -1.7357
 7158TIP3   OH242888   1.611   2.506   2.115 -0.0414 -0.0937 -0.1763
 7158TIP3    H142889   1.702   2.478   2.130  1.0184  1.9943 -2.0852
 7158TIP3    H242890   1.619   2.598   2.088 -2.7731  0.1882 -0.2326
 7159TIP3   OH242891   1.665   5.675  11.073 -0.0849 -0.1957  0.2437
 7159TIP3    H142892   1.724   5.609  11.109  0.7770  0.7712  0.6485
 7159TIP3    H242893   1.719   5.754  11.066 -0.2917 -0.1883 -2.7652
 7160TIP3   OH242894   3.749   6.671  16.819 -0.1460  0.2076  0.0217
 7160TIP3    H142895   3.779   6.716  16.740 -0.7274 -1.1812 -1.0316
 7160TIP3    H242896   3.757   6.736  16.889 -0.4494  1.7594 -1.3339
 7161TIP3   OH242897   2.702   1.155  14.156  0.2461 -0.1428 -0.0388
 7161TIP3    H142898   2.735   1.115  14.237 -1.4376  0.2710  0.8977
 7161TIP3    H242899   2.700   1.249  14.175 -2.0702 -0.1880  0.2558
 7162TIP3   OH242900   2.177   3.365   0.895 -0.0326  0.2871 -0.3738
 7162TIP3    H142901   2.183   3.275   0.927  2.3212  0.5604  0.1174
 7162TIP3    H242902   2.136   3.413   0.968  1.8344  0.1942  0.8158
 7163TIP3   OH242903   6.116   5.343  13.194  0.3030 -0.0723  0.2205
 7163TIP3    H142904   6.097   5.377  13.107 -2.0745  1.3795  1.2039
 7163TIP3    H242905   6.048   5.278  13.210  0.3144  0.1515  1.2299
 7164TIP3   OH242906   3.546   4.209   6.242  0.3462  0.0603  0.5837
 7164TIP3    H142907   3.475   4.203   6.177 -0.6788 -1.0634  1.7692
 7164TIP3    H242908   3.559   4.119   6.272  0.6668  0.5840  2.0822
 7165TIP3   OH242909   5.380   5.703  11.881  0.0686 -0.2257  0.6641
 7165TIP3    H142910   5.373   5.607  11.875  1.3266 -0.3553  1.0118
 7165TIP3    H242911   5.392   5.720  11.974 -0.1182  0.2705  0.5966
 7166TIP3   OH242912   5.945   3.646  11.328  0.0113  0.0396  0.6061
 7166TIP3    H142913   5.879   3.693  11.278  0.2104 -0.2263  0.0854
 7166TIP3    H242914   5.917   3.655  11.419 -0.5155  0.2782  0.4243
 7167TIP3   OH242915   5.750   6.390   5.554  0.1873  0.1019  0.3113
 7167TIP3    H142916   5.755   6.467   5.498 -0.3475  0.4793  0.7790
 7167TIP3    H242917   5.799   6.323   5.507 -0.2705  0.4072 -0.6136
 7168TIP3   OH242918   6.455   5.041  10.919 -0.1790 -0.1178  0.3750
 7168TIP3    H142919   6.515   5.115  10.907 -0.5583  0.3744  1.4436
 7168TIP3    H242920   6.492   4.972  10.863  1.2094  0.2786  0.7448
 7169TIP3   OH242921   3.689   2.516   4.594  0.0153  0.7039 -0.1675
 7169TIP3    H142922   3.687   2.513   4.498 -1.4967  1.4575 -0.1809
 7169TIP3    H242923   3.778   2.544   4.615  1.0661 -1.5354 -1.2458
 7170TIP3   OH242924   3.016   6.719   3.559 -0.2393 -0.1829  0.2694
 7170TIP3    H142925   2.924   6.745   3.561  0.0312  1.1948 -1.7870
 7170TIP3    H242926   3.025   6.668   3.479  0.7315 -0.6097  0.6332
 7171TIP3   OH242927   5.927   6.423   2.833 -0.2515 -0.3212 -0.0018
 7171TIP3    H142928   5.953   6.496   2.777 -0.7727  0.5822  0.9160
 7171TIP3    H242929   5.908   6.462   2.918 -1.0240 -1.4505  0.3755
 7172TIP3   OH242930   0.714   5.024   2.519 -0.0928 -0.2145 -0.1079
 7172TIP3    H142931   0.704   5.020   2.424 -0.2645 -0.9698 -0.0651
 7172TIP3    H242932   0.649   4.962   2.553 -1.1166  1.1702  0.5846
 7173TIP3   OH242933   2.439   3.587  17.260  0.0068 -0.4897  0.0099
 7173TIP3    H142934   2.424   3.650  17.330  4.3752  0.8356  0.0434
 7173TIP3    H242935   2.467   3.639  17.185  3.5834 -2.1147 -0.0328
 7174TIP3   OH242936   6.106   3.669   5.180  0.1738  0.3476 -0.1460
 7174TIP3    H142937   6.144   3.586   5.208 -1.7965 -0.2458  0.9353
 7174TIP3    H242938   6.115   3.668   5.084  3.8443  0.8203  0.0377
 7175TIP3   OH242939   2.411   0.779   5.013  0.0935  0.0718  0.2774
 7175TIP3    H142940   2.323   0.780   5.050 -0.5167  0.6275 -1.1035
 7175TIP3    H242941   2.469   0.781   5.088 -1.0685 -0.2515  1.2188
 7176TIP3   OH242942   0.215   3.816   0.190 -0.4368 -0.0204  0.3338
 7176TIP3    H142943   0.225   3.762   0.268  1.7842  1.2795  1.0529
 7176TIP3    H242944   0.214   3.906   0.223 -1.0076  0.5099 -1.0356
 7177TIP3   OH242945   2.346   5.947  15.766  0.0516 -0.0022  0.0398
 7177TIP3    H142946   2.301   5.872  15.727  0.6827 -0.4394  0.1383
 7177TIP3    H242947   2.279   6.015  15.772  0.0534  0.3002 -2.3469
 7178TIP3   OH242948   3.656   2.057  15.783  0.6797  0.0345 -0.0897
 7178TIP3    H142949   3.580   2.112  15.762 -0.0494 -0.9311 -0.0549
 7178TIP3    H242950   3.723   2.084  15.720  0.1768  0.6400 -0.3724
 7179TIP3   OH242951   0.642   3.772  12.820  0.1610  0.1179 -0.3227
 7179TIP3    H142952   0.732   3.739  12.818  0.0969 -0.1196  0.2839
 7179TIP3    H242953   0.610   3.761  12.731  0.1042 -1.6251 -0.1207
 7180TIP3   OH242954   5.661   5.513  15.976 -0.3181 -0.3955 -0.3698
 7180TIP3    H142955   5.653   5.534  16.069 -0.6780  0.6783 -0.6213
 7180TIP3    H242956   5.720   5.438  15.973  0.2284 -0.0289  0.6845
 7181TIP3   OH242957   0.571   2.569  14.114 -0.0192 -0.1861 -0.1865
 7181TIP3    H142958   0.515   2.542  14.187 -0.3450 -0.3892 -0.5103
 7181TIP3    H242959   0.609   2.488  14.081  0.2843 -0.0740 -0.1191
 7182TIP3   OH242960   1.703   4.422   5.394  0.2982 -0.2877  0.1028
 7182TIP3    H142961   1.615   4.384   5.391  0.4928 -0.8037  0.6160
 7182TIP3    H242962   1.702   4.491   5.328  0.0282 -1.4006 -1.0929
 7183TIP3   OH242963   0.220   5.523  15.818 -1.0637 -0.3230 -0.3925
 7183TIP3    H142964   0.197   5.576  15.742 -1.2573  1.4998  0.8785
 7183TIP3    H242965   0.218   5.584  15.892 -0.9372 -2.0352  1.1011
 7184TIP3   OH242966   1.897   3.843  15.609 -0.5282  0.0667 -0.4327
 7184TIP3    H142967   1.927   3.920  15.657  2.1572 -0.8157 -0.5541
 7184TIP3    H242968   1.925   3.858  15.518  0.1234 -1.0756 -0.4386
 7185TIP3   OH242969   5.615   0.053  15.186 -0.2223 -0.7449  0.0359
 7185TIP3    H142970   5.642   0.054  15.094 -1.5572 -2.4899 -0.4454
 7185TIP3    H242971   5.522   0.074  15.184  0.1879  1.5096  1.2798
 7186TIP3   OH242972   1.564   2.051  13.526 -0.0100  0.4652 -0.2692
 7186TIP3    H142973   1.652   2.032  13.494 -0.2461 -2.5711  0.6381
 7186TIP3    H242974   1.578   2.086  13.614  0.3007  0.0377 -0.1450
 7187TIP3   OH242975   2.129   0.626   1.095 -0.7543 -0.5036  0.0609
 7187TIP3    H142976   2.159   0.642   1.005  1.5882  0.1957  0.8893
 7187TIP3    H242977   2.051   0.679   1.105 -1.2116 -0.8111 -1.6461
 7188TIP3   OH242978   6.376   1.852  13.218  0.1251 -0.1672  0.2772
 7188TIP3    H142979   6.470   1.862  13.202  0.3521 -0.7743  1.1978
 7188TIP3    H242980   6.347   1.938  13.247  0.2305  0.2302 -0.7363
 7189TIP3   OH242981   5.837   2.101  15.649 -0.0236 -0.9632 -0.0400
 7189TIP3    H142982   5.762   2.121  15.705 -0.4248  0.5007 -1.0546
 7189TIP3    H242983   5.840   2.005  15.648 -0.3203 -1.0515  2.0164
 7190TIP3   OH242984   1.078   4.826  13.155 -0.4105 -0.5994 -0.2231
 7190TIP3    H142985   0.995   4.793  13.190 -1.4602  0.4909 -1.5490
 7190TIP3    H242986   1.064   4.921  13.150  1.8324 -0.0728  1.7986
 7191TIP3   OH242987   3.654   2.837   0.710  0.0679 -0.3431  0.6806
 7191TIP3    H142988   3.693   2.911   0.663 -1.2019 -0.1671 -0.1707
 7191TIP3    H242989   3.706   2.761   0.685  1.3118  0.2283  1.4676
 7192TIP3   OH242990   4.338   6.528  11.378 -0.0162 -0.4133  0.2769
 7192TIP3    H142991   4.342   6.438  11.409  1.5522 -0.5109 -0.0792
 7192TIP3    H242992   4.245   6.547  11.368 -0.3719 -1.9253  0.5258
 7193TIP3   OH242993   2.505   2.094  15.479 -0.6017  0.5020  0.3220
 7193TIP3    H142994   2.460   2.057  15.555 -0.4640 -0.2532  0.0431
 7193TIP3    H242995   2.471   2.183  15.472 -2.2262 -0.1179 -0.0273
 7194TIP3   OH242996   4.650   2.422   5.880 -0.6381  0.3738 -0.3378
 7194TIP3    H142997   4.563   2.391   5.854 -0.3809 -0.1874 -0.5520
 7194TIP3    H242998   4.639   2.450   5.971 -1.1044  0.5557 -0.4454
 7195TIP3   OH242999   6.489   4.824   2.927 -0.1596 -0.4001  0.2519
 7195TIP3    H143000   6.527   4.768   2.995  0.8145 -0.2420 -0.1463
 7195TIP3    H243001   6.560   4.838   2.865 -0.9560 -0.3196 -0.6716
 7196TIP3   OH243002   6.660   0.931   6.241 -0.4152  0.0036  0.5513
 7196TIP3    H143003   6.685   0.839   6.234 -0.7186 -0.2237  2.1418
 7196TIP3    H243004   6.719   0.976   6.181 -0.0590 -1.1811 -0.0205
 7197TIP3   OH243005   5.469   2.059  12.922 -0.2697  0.5476 -0.0303
 7197TIP3    H143006   5.407   1.996  12.884  0.2926 -0.6324  0.9565
 7197TIP3    H243007   5.472   2.130  12.858 -2.1812  0.3626 -0.3827
 7198TIP3   OH243008   4.169   3.742   0.596  0.4793 -0.5300  0.5398
 7198TIP3    H143009   4.103   3.695   0.545 -0.5554 -0.1461  1.4599
 7198TIP3    H243010   4.220   3.791   0.532 -1.2273  0.4969 -0.0930
 7199TIP3   OH243011   0.012   1.593  15.795  0.5796  0.2529  0.0313
 7199TIP3    H143012  -0.040   1.666  15.830  0.7794  0.2170  0.4095
 7199TIP3    H243013   0.025   1.615  15.703 -2.3227 -0.9788 -0.7777
 7200TIP3   OH243014   2.861   4.529  14.233  0.5245 -0.2482  0.6284
 7200TIP3    H143015   2.933   4.542  14.171 -0.2490 -0.7302 -0.4048
 7200TIP3    H243016   2.865   4.436  14.255 -0.3670 -0.5053 -0.2126
 7201TIP3   OH243017   5.276   1.371  13.478 -0.0532 -0.2777 -0.3202
 7201TIP3    H143018   5.206   1.327  13.428  0.8321 -1.6995 -0.3516
 7201TIP3    H243019   5.339   1.302  13.498  0.5591  0.6487  1.1380
 7202TIP3   OH243020   0.765   4.416   5.367 -0.3105 -0.0370 -0.4703
 7202TIP3    H143021   0.853   4.449   5.350 -0.2436  0.3533  0.5214
 7202TIP3    H243022   0.776   4.357   5.442 -1.0126  0.6859  0.2168
 7203TIP3   OH243023   2.740   0.442   6.131 -0.0403  0.2560 -0.2451
 7203TIP3    H143024   2.673   0.510   6.125 -0.6661 -0.2166  0.9294
 7203TIP3    H243025   2.799   0.472   6.200 -1.2469 -1.0999  1.4690
 7204TIP3   OH243026   4.988   5.090  14.087 -0.4899  0.1765 -0.7749
 7204TIP3    H143027   5.024   5.051  14.007  0.4079  2.0515 -1.3415
 7204TIP3    H243028   5.059   5.146  14.120 -1.4418  0.7108  0.4131
 7205TIP3   OH243029   2.637   2.005  12.768  0.5854  0.5256 -0.4452
 7205TIP3    H143030   2.655   2.083  12.820  1.1650  0.5377 -0.6539
 7205TIP3    H243031   2.702   2.008  12.698  1.5072 -0.8585  0.3186
 7206TIP3   OH243032   4.914   5.715  12.226 -0.6690 -0.0908  0.4405
 7206TIP3    H143033   4.897   5.808  12.211  2.0506  0.3437 -0.5220
 7206TIP3    H243034   4.870   5.671  12.152 -0.1359  0.6583 -0.3448
 7207TIP3   OH243035   5.891   1.473   2.109 -0.1583 -0.3061  0.3013
 7207TIP3    H143036   5.810   1.520   2.130 -0.0839  0.3953 -0.8659
 7207TIP3    H243037   5.908   1.496   2.017  1.2229 -0.6521  0.4590
 7208TIP3   OH243038   1.679   4.709  16.760 -0.2581 -0.4518  0.2497
 7208TIP3    H143039   1.617   4.776  16.787 -0.7562 -1.0346  0.5515
 7208TIP3    H243040   1.645   4.676  16.677  0.2242 -0.0323 -0.1243
 7209TIP3   OH243041   5.390   4.398  14.316 -0.0507 -0.2454 -0.0944
 7209TIP3    H143042   5.301   4.376  14.288 -0.7503  1.8959  0.2783
 7209TIP3    H243043   5.384   4.401  14.412 -0.1140  1.7531 -0.1202
 7210TIP3   OH243044   2.083   1.723  13.771 -0.3609  0.0801 -0.4068
 7210TIP3    H143045   2.037   1.645  13.739  1.0161 -1.0456  0.2457
 7210TIP3    H243046   2.099   1.775  13.692  0.2634 -1.1724 -1.1509
 7211TIP3   OH243047   3.369   1.727   2.770 -0.1509  0.0661  0.6132
 7211TIP3    H143048   3.351   1.788   2.698  0.8995 -0.6951 -0.3216
 7211TIP3    H243049   3.443   1.766   2.816 -1.5449  1.1652  2.0663
 7212TIP3   OH243050   4.791   3.298   6.563 -0.6057 -0.1103  0.2217
 7212TIP3    H143051   4.831   3.211   6.574 -0.1894 -0.3846 -2.8169
 7212TIP3    H243052   4.697   3.282   6.573 -0.3902 -0.2963  2.6393
 7213TIP3   OH243053   1.134   0.016  10.977  0.2142 -0.0589 -0.4331
 7213TIP3    H143054   1.108   0.068  11.053 -0.2979 -0.5030 -0.3061
 7213TIP3    H243055   1.099  -0.071  10.993  0.2095 -0.1916 -1.1161
 7214TIP3   OH243056   2.769   4.447  10.814 -0.3696  0.4053 -0.0670
 7214TIP3    H143057   2.681   4.421  10.786 -0.5711 -0.9989  1.6802
 7214TIP3    H243058   2.828   4.411  10.748 -1.1101  2.2117 -1.8065
 7215TIP3   OH243059   3.459   5.167  16.164  0.4693  0.1019  0.3387
 7215TIP3    H143060   3.500   5.113  16.096 -0.2002  1.5058 -1.2434
 7215TIP3    H243061   3.471   5.117  16.245  1.6896 -1.4148 -0.7264
 7216TIP3   OH243062   3.568   3.965  16.125  0.1336 -0.3595  0.0451
 7216TIP3    H143063   3.546   4.057  16.112 -0.5769 -0.3100  1.3539
 7216TIP3    H243064   3.662   3.965  16.139  0.2943  0.0328 -0.9409
 7217TIP3   OH243065   2.676   5.267  13.672 -0.1267  0.5380 -0.0791
 7217TIP3    H143066   2.698   5.355  13.641  0.2858  0.5200  0.1423
 7217TIP3    H243067   2.581   5.260  13.661  0.1331  0.0014 -2.7086
 7218TIP3   OH243068   5.552   6.044  12.546 -0.1200  0.8317  0.0688
 7218TIP3    H143069   5.526   6.128  12.583 -0.5354 -0.3547  2.7530
 7218TIP3    H243070   5.647   6.048  12.539 -0.1440  1.5458  0.1242
 7219TIP3   OH243071   2.668   3.773  14.338  0.1609 -0.0348 -0.5388
 7219TIP3    H143072   2.702   3.852  14.380  0.9426  0.2314 -1.6228
 7219TIP3    H243073   2.737   3.708  14.349 -0.2526 -0.4138 -0.1243
 7220TIP3   OH243074   0.566   4.864   6.195 -0.5216 -0.3476 -0.3542
 7220TIP3    H143075   0.656   4.861   6.227 -0.4771  0.6957 -0.3494
 7220TIP3    H243076   0.531   4.777   6.214 -0.8572  0.4658  3.5686
 7221TIP3   OH243077   3.346   0.141  11.781  0.4026  0.2980 -0.0500
 7221TIP3    H143078   3.433   0.111  11.810  1.6215  2.1282 -1.5826
 7221TIP3    H243079   3.316   0.072  11.722 -0.9989 -2.2379  3.3109
 7222TIP3   OH243080   1.918   2.653  16.757 -0.9534 -0.1512  0.5417
 7222TIP3    H143081   1.867   2.652  16.838  1.7628 -1.0105  2.4038
 7222TIP3    H243082   1.970   2.733  16.763 -2.1871  0.8773 -1.4581
 7223TIP3   OH243083   1.188   6.677  16.433  0.0942 -0.3305 -0.5124
 7223TIP3    H143084   1.263   6.709  16.483 -0.2572 -1.2993  0.7015
 7223TIP3    H243085   1.222   6.658  16.346  1.8312 -2.7495  0.5745
 7224TIP3   OH243086   3.607   2.036  14.349 -0.0948  0.0677 -0.0291
 7224TIP3    H143087   3.614   2.131  14.348  1.4001 -0.0156 -1.6361
 7224TIP3    H243088   3.546   2.017  14.420  1.9568  2.0679  2.4441
 7225TIP3   OH243089   1.909   5.843   0.510  0.1717 -0.4312 -0.0372
 7225TIP3    H143090   1.917   5.878   0.599  1.5850  0.0388 -0.3152
 7225TIP3    H243091   1.991   5.869   0.467 -0.3645 -0.8935 -1.3923
 7226TIP3   OH243092   3.478   4.566   0.896  0.2903  0.0160 -0.0261
 7226TIP3    H143093   3.483   4.661   0.889  1.6928 -0.0756 -0.7995
 7226TIP3    H243094   3.568   4.539   0.915 -0.1622 -1.1335  0.6093
 7227TIP3   OH243095   3.854   2.600  12.465 -0.5989 -0.8762 -0.3837
 7227TIP3    H143096   3.891   2.669  12.410 -0.1847 -0.9471 -0.1942
 7227TIP3    H243097   3.929   2.547  12.491 -1.0585 -2.3321 -1.7994
 7228TIP3   OH243098   5.810   2.051   4.688 -0.8258 -0.7636 -0.5214
 7228TIP3    H143099   5.785   2.142   4.673 -0.2657 -0.5070  0.0820
 7228TIP3    H243100   5.866   2.053   4.766 -1.4546 -1.7288 -0.0263
 7229TIP3   OH243101   0.054   4.941  16.436 -0.5942 -0.4102  0.6923
 7229TIP3    H143102   0.093   4.939  16.523 -0.4594  0.1411  0.6412
 7229TIP3    H243103  -0.040   4.945  16.452 -0.5384  0.4204  0.8132
 7230TIP3   OH243104   0.934   6.646  12.611 -0.2415 -0.6501  0.0290
 7230TIP3    H143105   0.878   6.644  12.689 -0.5093 -0.5170 -0.1602
 7230TIP3    H243106   1.013   6.598  12.637 -0.1275 -0.2023  0.5452
 7231TIP3   OH243107   0.233   5.655  14.865 -0.3788  0.1520 -0.4237
 7231TIP3    H143108   0.236   5.731  14.922 -1.4331 -0.4586  0.4986
 7231TIP3    H243109   0.177   5.681  14.792 -1.4041  0.0328  0.2942
 7232TIP3   OH243110   5.012   5.909   3.012 -0.6818  0.2809  0.2042
 7232TIP3    H143111   5.094   5.905   2.962 -0.0689 -1.9629  1.2183
 7232TIP3    H243112   5.019   5.990   3.063  1.9767 -0.8376  1.8350
 7233TIP3   OH243113   1.803   2.497   2.688  0.6203 -0.0710  0.6496
 7233TIP3    H143114   1.715   2.458   2.692  0.6389 -0.1251  0.5406
 7233TIP3    H243115   1.791   2.575   2.633  0.8663 -0.6944 -0.3091
 7234TIP3   OH243116   0.140   4.639   5.271  0.2790 -0.1307 -0.2188
 7234TIP3    H143117   0.206   4.705   5.291 -0.2460  0.0749  0.8632
 7234TIP3    H243118   0.159   4.567   5.330 -0.2245 -0.2300 -0.1753
 7235TIP3   OH243119   2.200   5.436   5.653  0.1772  0.6644 -0.5614
 7235TIP3    H143120   2.266   5.495   5.691 -0.4129  0.3743  0.9848
 7235TIP3    H243121   2.196   5.462   5.561  1.8582  1.2329 -0.5196
 7236TIP3   OH243122   3.238   6.527  11.321 -0.0877  0.9158 -0.6550
 7236TIP3    H143123   3.282   6.445  11.343  0.2259  1.9229  3.2309
 7236TIP3    H243124   3.157   6.499  11.279  0.4010 -1.3471 -0.2701
 7237TIP3   OH243125   0.166   2.281  14.450  0.6690  0.3242  0.0521
 7237TIP3    H143126   0.150   2.258  14.542  2.7444  0.0792  0.4076
 7237TIP3    H243127   0.198   2.200  14.410 -1.7209  0.0011 -1.3498
 7238TIP3   OH243128   5.159   1.715   5.073  0.3148  0.2987  0.0454
 7238TIP3    H143129   5.204   1.770   5.137  1.5164 -0.2581 -0.3059
 7238TIP3    H243130   5.163   1.627   5.110  0.0826  0.1365 -0.3075
 7239TIP3   OH243131   0.002   3.775  13.361 -0.6754 -0.0876  0.1791
 7239TIP3    H143132   0.074   3.802  13.417  0.7200  0.6577 -1.8698
 7239TIP3    H243133  -0.073   3.827  13.392 -0.1014 -0.0987  1.6504
 7240TIP3   OH243134   6.506   5.457   2.590  0.0629  0.3322  0.5769
 7240TIP3    H143135   6.525   5.457   2.684 -1.0511  2.6647  0.8762
 7240TIP3    H243136   6.566   5.523   2.554  0.5363 -0.5968 -0.3818
 7241TIP3   OH243137   1.472   4.897   3.780 -0.1188 -0.5361 -0.1086
 7241TIP3    H143138   1.543   4.960   3.769 -0.4998 -0.2050 -0.7430
 7241TIP3    H243139   1.475   4.873   3.873  0.5883 -0.2583 -0.0528
 7242TIP3   OH243140   2.932   4.056  13.485 -0.0488  0.1109 -0.0130
 7242TIP3    H143141   2.945   4.023  13.574  0.7372 -0.9176 -0.4908
 7242TIP3    H243142   2.851   4.015  13.456 -1.2452  1.7748  0.8009
 7243TIP3   OH243143   4.319   4.212  14.190 -0.5208  0.7004  0.9811
 7243TIP3    H143144   4.399   4.254  14.224  0.3610 -1.6273  2.0062
 7243TIP3    H243145   4.288   4.272  14.123  1.9523  1.8465  0.7219
 7244TIP3   OH243146   5.415   3.797   2.736  0.1450 -0.0172 -0.1398
 7244TIP3    H143147   5.456   3.883   2.727  0.1138  0.2477  1.9199
 7244TIP3    H243148   5.468   3.751   2.801  0.2837 -1.6568 -1.3475
 7245TIP3   OH243149   0.325   1.514  10.896  0.1114 -0.7700  0.1750
 7245TIP3    H143150   0.230   1.502  10.906  0.0553  0.0259  0.7229
 7245TIP3    H243151   0.363   1.430  10.923 -0.4399 -1.1452 -0.1915
 7246TIP3   OH243152   1.724   0.239   4.400  0.1265 -0.5128  1.0979
 7246TIP3    H143153   1.794   0.300   4.424 -0.1642  0.2120  0.1861
 7246TIP3    H243154   1.740   0.162   4.454  0.8001  0.1782  1.9228
 7247TIP3   OH243155   6.428   5.239   0.636 -0.3015  0.3868 -0.1449
 7247TIP3    H143156   6.378   5.320   0.625 -0.3081  0.3107 -0.6924
 7247TIP3    H243157   6.369   5.182   0.686 -0.2741  0.7361  0.2936
 7248TIP3   OH243158   5.526   2.431   2.787  0.0930 -0.3076 -0.2414
 7248TIP3    H143159   5.504   2.506   2.842  1.8006  0.6739 -0.8013
 7248TIP3    H243160   5.465   2.436   2.714 -1.1943 -0.7400  0.7712
 7249TIP3   OH243161   6.489   4.015  13.434  0.3636  0.2824  0.0435
 7249TIP3    H143162   6.550   4.072  13.480 -0.6406 -0.0356  1.8542
 7249TIP3    H243163   6.438   4.074  13.379  1.5553  0.6794 -0.6699
 7250TIP3   OH243164   3.892   1.209  14.742 -0.8573 -0.3404 -0.0192
 7250TIP3    H143165   3.938   1.227  14.824 -1.2516 -0.6560  0.2681
 7250TIP3    H243166   3.799   1.217  14.763 -0.9764 -0.8635 -0.3319
 7251TIP3   OH243167   2.449   5.962   5.594  0.5299  0.2346 -0.0667
 7251TIP3    H143168   2.440   6.013   5.674  1.8827 -1.3652  1.1797
 7251TIP3    H243169   2.539   5.929   5.596  0.6554  0.2978 -2.3508
 7252TIP3   OH243170   4.980   0.336  12.615 -0.4591  0.1716 -0.4948
 7252TIP3    H143171   5.063   0.290  12.622 -1.5105 -1.8057 -0.1963
 7252TIP3    H243172   4.933   0.314  12.696 -2.0857 -0.5082 -1.5691
 7253TIP3   OH243173   2.837   4.552  17.219 -0.0534  0.6806 -0.3161
 7253TIP3    H143174   2.899   4.587  17.156  0.1849 -2.0736 -1.7588
 7253TIP3    H243175   2.757   4.536  17.168 -0.2414 -0.5277  0.3250
 7254TIP3   OH243176   0.084   0.014  16.486  0.1478  0.0555  0.5749
 7254TIP3    H143177   0.170  -0.006  16.449 -0.0659  0.7431 -0.3341
 7254TIP3    H243178   0.030  -0.061  16.462 -0.1274  0.7304 -1.0391
 7255TIP3   OH243179   3.841   3.597  15.623  0.1651 -0.1668  0.6716
 7255TIP3    H143180   3.933   3.590  15.595 -0.2855 -0.8749 -0.7302
 7255TIP3    H243181   3.791   3.562  15.549 -1.2347  0.0570  1.4835
 7256TIP3   OH243182   1.898   6.611   5.601  0.1507  0.6412 -0.0737
 7256TIP3    H143183   1.873   6.584   5.689  1.4607 -0.0642  0.1027
 7256TIP3    H243184   1.992   6.627   5.606  0.2148  0.8016 -1.3034
 7257TIP3   OH243185   6.412   3.965  16.473 -0.6268  0.2716 -0.2971
 7257TIP3    H143186   6.468   3.932  16.543  0.7794 -0.0610 -1.5142
 7257TIP3    H243187   6.471   3.972  16.397 -2.2285 -0.0339 -1.6203
 7258TIP3   OH243188   1.009   0.656  16.760  0.0730 -0.3854 -0.3099
 7258TIP3    H143189   1.025   0.750  16.771 -2.1005  0.0210 -0.1579
 7258TIP3    H243190   0.927   0.652  16.711  1.0064 -2.2282 -1.8402
 7259TIP3   OH243191   0.334   1.389   4.926 -0.9129 -0.6334  0.8558
 7259TIP3    H143192   0.264   1.439   4.968 -1.6764 -1.9096  1.1751
 7259TIP3    H243193   0.296   1.362   4.842 -1.1413 -2.0385  1.3875
 7260TIP3   OH243194   5.324   2.314   3.599 -0.0649 -0.1110  0.0140
 7260TIP3    H143195   5.404   2.286   3.642 -0.4338 -0.8435  0.2441
 7260TIP3    H243196   5.352   2.379   3.535  0.4961  0.9584  1.3002
 7261TIP3   OH243197   2.128   5.323  14.481 -0.0976  0.2571  0.0016
 7261TIP3    H143198   2.203   5.364  14.437  0.1486 -0.1391  0.0495
 7261TIP3    H243199   2.152   5.324  14.574 -0.1447  0.1177  0.0155
 7262TIP3   OH243200   1.173   4.459   3.427  0.3143 -0.1709  0.0943
 7262TIP3    H143201   1.122   4.506   3.361 -1.9240  0.8544  2.4136
 7262TIP3    H243202   1.232   4.525   3.463  2.3038 -0.9760 -1.4455
 7263TIP3   OH243203   5.120   1.770  15.328 -0.3831 -0.3693 -0.0922
 7263TIP3    H143204   5.033   1.770  15.368 -0.6756  2.0037 -0.5713
 7263TIP3    H243205   5.166   1.842  15.371  0.0681  0.7476 -2.2631
 7264TIP3   OH243206   3.695   5.597   1.437 -0.0436  0.3600  0.3620
 7264TIP3    H143207   3.604   5.572   1.449 -0.5645  1.3610 -1.1904
 7264TIP3    H243208   3.691   5.685   1.400  1.5397  0.1986 -0.2643
 7265TIP3   OH243209   2.829   4.284  13.629 -0.2867 -0.0909 -0.7721
 7265TIP3    H143210   2.789   4.360  13.588 -0.1958  0.2812 -0.1781
 7265TIP3    H243211   2.923   4.301  13.625 -0.3144  0.9428  1.4092
 7266TIP3   OH243212   1.984   2.485   6.158  0.1203  0.2951  0.1627
 7266TIP3    H143213   1.963   2.570   6.197 -0.2276  0.0202  0.5868
 7266TIP3    H243214   2.004   2.505   6.067 -1.3668  0.6686 -0.1187
 7267TIP3   OH243215   4.442   0.124  12.375 -0.1994  0.3802  0.0793
 7267TIP3    H143216   4.518   0.158  12.423  0.8131 -0.7852 -0.6129
 7267TIP3    H243217   4.374   0.114  12.440  0.9694 -0.6645  1.2032
 7268TIP3   OH243218   0.288   6.019  12.766  0.5853  0.4784 -0.5801
 7268TIP3    H143219   0.330   6.027  12.680  0.5831 -0.1285 -0.6461
 7268TIP3    H243220   0.270   6.109  12.792  0.6248  0.6747 -1.1970
 7269TIP3   OH243221   2.384   4.384  11.524 -0.0398  0.0801 -0.0842
 7269TIP3    H143222   2.309   4.422  11.569 -1.0317  0.5860 -2.0906
 7269TIP3    H243223   2.428   4.458  11.482  0.7933 -0.3923 -0.0873
 7270TIP3   OH243224   1.545   2.205  11.756  0.1546  0.5735  0.3353
 7270TIP3    H143225   1.538   2.135  11.821 -1.0730 -0.4789 -0.8806
 7270TIP3    H243226   1.481   2.183  11.689  0.6572  2.1814 -0.7466
 7271TIP3   OH243227   2.519   6.468   5.859 -0.0374 -0.7487 -0.2564
 7271TIP3    H143228   2.492   6.441   5.947 -0.9718 -1.9937 -0.8844
 7271TIP3    H243229   2.579   6.541   5.873 -0.1334 -0.9563  1.4100
 7272TIP3   OH243230   1.603   5.148   6.256  0.3846 -0.6289 -0.1983
 7272TIP3    H143231   1.527   5.205   6.266  1.3501  0.4552  1.3041
 7272TIP3    H243232   1.668   5.201   6.209  1.0925 -0.6660  0.7175
 7273TIP3   OH243233   2.742   0.523   1.148 -0.2327  0.0960  0.2165
 7273TIP3    H143234   2.657   0.566   1.140 -0.4678 -0.2549  0.8197
 7273TIP3    H243235   2.722   0.430   1.158  0.2956 -0.2809 -1.8175
 7274TIP3   OH243236   2.212   5.732   2.692 -0.3984 -0.6099 -0.5810
 7274TIP3    H143237   2.174   5.787   2.624 -0.5014 -1.7027 -1.4465
 7274TIP3    H243238   2.155   5.743   2.768  1.4935  3.1967  0.5758
 7275TIP3   OH243239   1.381   6.134  15.552  0.2672  0.0813  0.3813
 7275TIP3    H143240   1.410   6.146  15.642  0.7435 -1.0943  0.4059
 7275TIP3    H243241   1.461   6.107  15.505  0.2441  1.5966 -0.6025
 7276TIP3   OH243242   4.689   4.546   0.506  0.3119  0.2365 -0.3106
 7276TIP3    H143243   4.757   4.535   0.440  1.1597  0.8808  0.4413
 7276TIP3    H243244   4.623   4.600   0.463  1.0167  0.9457 -0.5225
 7277TIP3   OH243245   6.226   6.444   4.025  0.4394  0.2534 -0.2035
 7277TIP3    H143246   6.135   6.422   4.006 -0.6727  3.2772  0.9789
 7277TIP3    H243247   6.258   6.487   3.946  0.2563  0.6918 -0.0450
 7278TIP3   OH243248   3.583   2.364  11.135  0.2027  0.5860 -0.4271
 7278TIP3    H143249   3.565   2.280  11.092  1.2961 -0.3829  0.9365
 7278TIP3    H243250   3.638   2.411  11.073 -2.5595  1.4825 -2.3950
 7279TIP3   OH243251   3.394   5.297   4.686 -0.4028 -0.1717  0.1162
 7279TIP3    H143252   3.298   5.299   4.681 -0.5723 -1.9041  1.5479
 7279TIP3    H243253   3.413   5.317   4.777  0.5719 -0.3067 -0.0509
 7280TIP3   OH243254   4.928   2.584   3.624  0.9583  0.5540  0.2516
 7280TIP3    H143255   4.949   2.569   3.716  2.3425  0.1958 -0.0941
 7280TIP3    H243256   5.013   2.603   3.583  0.2250  1.9010 -0.7318
 7281TIP3   OH243257   5.633   5.660   0.787  0.4877 -0.0485  0.3440
 7281TIP3    H143258   5.580   5.731   0.824  0.4322 -0.3057  0.7624
 7281TIP3    H243259   5.596   5.645   0.700 -0.3796 -0.4830  0.7724
 7282TIP3   OH243260   5.137   3.704   1.261 -0.0572  0.0509  0.4251
 7282TIP3    H143261   5.221   3.661   1.276  0.5454  0.6485 -1.0119
 7282TIP3    H243262   5.149   3.752   1.179 -1.1471  1.8078  1.2316
 7283TIP3   OH243263   0.502   5.297   4.947  0.1868 -0.1853  0.2414
 7283TIP3    H143264   0.583   5.247   4.935 -0.2535 -0.8405 -0.0579
 7283TIP3    H243265   0.517   5.347   5.027  1.7696  1.4712 -1.0279
 7284TIP3   OH243266   5.261   6.174   5.355  0.0573 -0.4193  0.3261
 7284TIP3    H143267   5.174   6.142   5.377 -1.1760  1.2331 -1.7594
 7284TIP3    H243268   5.271   6.254   5.407 -1.0240  1.0583 -1.5970
 7285TIP3   OH243269   1.170   6.054  16.559 -0.3070 -0.0341 -0.3329
 7285TIP3    H143270   1.089   6.103  16.568 -0.6322 -0.0346 -2.7552
 7285TIP3    H243271   1.186   6.050  16.465  1.7961 -1.1986  0.0120
 7286TIP3   OH243272   1.061   0.182   2.570  0.2336 -0.5015 -0.2588
 7286TIP3    H143273   1.013   0.100   2.558  0.0481 -0.2214 -1.6660
 7286TIP3    H243274   1.043   0.232   2.490 -0.4520  1.3239  0.9701
 7287TIP3   OH243275   4.466   0.175   0.698 -0.2651 -0.1157  0.4518
 7287TIP3    H143276   4.534   0.240   0.678 -0.3895  0.0348  0.5109
 7287TIP3    H243277   4.503   0.124   0.770 -0.9829  1.2112  1.8201
 7288TIP3   OH243278   4.804   3.097   6.284  0.1886 -0.2575  0.2513
 7288TIP3    H143279   4.887   3.092   6.332 -0.0378 -1.1651  0.5635
 7288TIP3    H243280   4.763   3.012   6.298 -1.7110  0.8283  1.7556
 7289TIP3   OH243281   5.109   3.861   0.580  0.1465  0.3911 -0.0775
 7289TIP3    H143282   5.056   3.886   0.505 -1.3589 -1.1353  0.4001
 7289TIP3    H243283   5.055   3.883   0.656  1.9096  2.5277  0.6657
 7290TIP3   OH243284   3.643   3.156   4.370  0.0064  0.1055  0.1461
 7290TIP3    H143285   3.657   3.100   4.446 -0.6371  3.3809  2.9411
 7290TIP3    H243286   3.549   3.152   4.354 -0.0776  0.5511  0.5135
 7291TIP3   OH243287   5.432   6.339  15.473 -0.3280 -0.2674 -0.0407
 7291TIP3    H143288   5.518   6.339  15.514  0.6101 -0.1309 -1.8933
 7291TIP3    H243289   5.405   6.431  15.473 -0.0022 -0.1685 -0.3595
 7292TIP3   OH243290   6.343   2.431   1.772 -0.2563 -0.0126  0.4238
 7292TIP3    H143291   6.346   2.500   1.838  0.8100  2.7065 -2.2204
 7292TIP3    H243292   6.432   2.395   1.771 -0.3564 -0.2697  0.6650
 7293TIP3   OH243293   0.715   4.093   0.968 -0.4640  0.0559  0.1660
 7293TIP3    H143294   0.627   4.073   0.938 -0.5045  0.3187  0.1106
 7293TIP3    H243295   0.726   4.186   0.951  0.7359 -0.4346 -2.1867
 7294TIP3   OH243296   3.220   2.227   0.136 -0.3365 -0.3913  0.3417
 7294TIP3    H143297   3.300   2.202   0.089 -0.0478 -0.4622  0.8618
 7294TIP3    H243298   3.243   2.217   0.228 -0.8602 -0.1382  0.5003
 7295TIP3   OH243299   3.236   1.905  15.765 -0.0172 -0.4700  0.0714
 7295TIP3    H143300   3.166   1.911  15.830  0.8263  0.0641  0.9565
 7295TIP3    H243301   3.191   1.882  15.684 -1.4073  1.4126  0.2521
 7296TIP3   OH243302   3.953   2.293  10.825  0.1075  0.6597  0.1723
 7296TIP3    H143303   3.957   2.218  10.766  0.1630  1.4381 -0.8380
 7296TIP3    H243304   4.003   2.265  10.902  0.0962 -0.3471 -0.1688
 7297TIP3   OH243305   4.588   3.706   3.385  0.5922  0.2852 -0.5824
 7297TIP3    H143306   4.582   3.610   3.384  0.9093  0.2621 -1.6149
 7297TIP3    H243307   4.498   3.736   3.371  0.8854  0.0731 -3.5567
 7298TIP3   OH243308   3.399   4.766  16.900  0.0712  0.6452 -0.2968
 7298TIP3    H143309   3.391   4.751  16.994  0.4791 -2.0409 -0.6084
 7298TIP3    H243310   3.479   4.819  16.891  1.0267 -0.5367  0.8090
 7299TIP3   OH243311   5.002   3.333  14.363  0.3890  0.0823  0.0125
 7299TIP3    H143312   5.076   3.277  14.386  0.7158  0.6109  0.2570
 7299TIP3    H243313   4.993   3.394  14.436  0.9945  1.3163 -0.9007
 7300TIP3   OH243314   5.047   5.809   0.416  0.1994  0.0159  0.1828
 7300TIP3    H143315   5.087   5.731   0.455  1.6289 -0.2306 -1.6293
 7300TIP3    H243316   5.017   5.861   0.491  0.6412 -1.5274  1.4820
 7301TIP3   OH243317   0.800   0.619  12.913 -0.4316 -0.1962  0.6979
 7301TIP3    H143318   0.775   0.529  12.934  0.2783 -0.6316 -0.2414
 7301TIP3    H243319   0.835   0.654  12.995  1.0320 -1.4052  0.6339
 7302TIP3   OH243320   5.688   3.694   4.889 -0.0615  0.1465  0.6485
 7302TIP3    H143321   5.712   3.632   4.959  0.4090  0.0843  0.4353
 7302TIP3    H243322   5.755   3.762   4.893 -0.9287  0.9901  1.2942
 7303TIP3   OH243323   1.661   6.490  12.410  0.6891  0.0804  0.2804
 7303TIP3    H143324   1.690   6.426  12.475  0.5802 -0.3007 -0.0465
 7303TIP3    H243325   1.660   6.442  12.328 -0.6177  0.1605  0.2415
 7304TIP3   OH243326   0.626   0.960  16.264 -0.0637  0.4798 -0.1316
 7304TIP3    H143327   0.572   0.995  16.194 -1.5222  0.3763  0.8971
 7304TIP3    H243328   0.591   0.999  16.344 -1.4483 -2.7761  1.0461
 7305TIP3   OH243329   4.513   5.838   0.053 -0.1257  0.0715 -0.2963
 7305TIP3    H143330   4.561   5.850  -0.028  0.8997  0.0119  0.2891
 7305TIP3    H243331   4.486   5.927   0.078  0.8619  0.2858  0.0637
 7306TIP3   OH243332   5.989   2.997   3.203  0.5053 -0.1748  0.5432
 7306TIP3    H143333   5.908   3.035   3.168  0.6379 -0.2653  0.1279
 7306TIP3    H243334   6.034   3.071   3.243  0.8013  0.1344 -0.3378
 7307TIP3   OH243335   1.713   1.328  16.696  0.4747 -0.0024 -0.3827
 7307TIP3    H143336   1.715   1.300  16.604 -1.5198 -0.4689 -0.3244
 7307TIP3    H243337   1.640   1.390  16.701  0.0486 -0.5900  1.0401
 7308TIP3   OH243338   4.027   2.449  12.067  0.1952  1.0774 -0.4119
 7308TIP3    H143339   3.939   2.487  12.062  0.3536  1.6311  0.7831
 7308TIP3    H243340   4.073   2.489  11.993 -1.0975 -0.7774 -2.3229
 7309TIP3   OH243341   1.668   5.104   3.778  0.3496  0.2165  0.6149
 7309TIP3    H143342   1.744   5.110   3.720 -2.1019 -1.6744 -3.1703
 7309TIP3    H243343   1.634   5.193   3.781 -0.3291  0.1632 -2.3738
 7310TIP3   OH243344   4.539   3.043   1.417 -0.1410  0.0621 -0.1014
 7310TIP3    H143345   4.550   2.955   1.451 -0.9664 -1.1595 -2.7375
 7310TIP3    H243346   4.629   3.076   1.405  0.2665 -1.3600 -1.2302
 7311TIP3   OH243347   1.677   1.926  16.106  0.1183 -0.1511 -0.0761
 7311TIP3    H143348   1.678   1.849  16.048  0.9366  0.3652 -0.7658
 7311TIP3    H243349   1.618   1.901  16.177 -0.7940 -0.8659 -1.0519
 7312TIP3   OH243350   2.343   0.432   1.919  0.4857  0.6994 -0.3473
 7312TIP3    H143351   2.377   0.360   1.865 -1.0450 -0.3366  0.0224
 7312TIP3    H243352   2.368   0.409   2.008  0.4706  0.9369 -0.2798
 7313TIP3   OH243353   2.994   5.733  12.803 -0.2235  0.3233 -0.2247
 7313TIP3    H143354   2.984   5.721  12.708  0.2465 -2.5446  0.0038
 7313TIP3    H243355   3.087   5.718  12.819 -0.2968  0.7886  0.7015
 7314TIP3   OH243356   4.359   0.077  14.920  0.3794 -0.0616 -0.1427
 7314TIP3    H143357   4.377   0.010  14.986 -1.0583  0.5170  0.8814
 7314TIP3    H243358   4.412   0.051  14.845  1.5935 -1.0876  1.0055
 7315TIP3   OH243359   4.712   1.691   2.588 -0.6031 -0.3135  0.2946
 7315TIP3    H143360   4.747   1.602   2.579 -1.7523 -0.6901 -0.7951
 7315TIP3    H243361   4.676   1.694   2.677  0.9805 -0.3451  0.9571
 7316TIP3   OH243362   2.591   4.587  13.216  0.0517  0.9835  0.2160
 7316TIP3    H143363   2.563   4.621  13.301  0.0641  0.7185  0.3277
 7316TIP3    H243364   2.516   4.536  13.184  1.0892 -1.5186  1.4742
 7317TIP3   OH243365   2.913   0.526   1.868  0.4266  0.6343 -0.2471
 7317TIP3    H143366   2.867   0.529   1.952 -0.8897 -3.2435 -0.6029
 7317TIP3    H243367   3.005   0.528   1.891  0.1553  3.0815  0.9379
 7318TIP3   OH243368   3.259   0.925  16.638 -0.7842 -0.4237  0.2897
 7318TIP3    H143369   3.197   0.902  16.569  0.2749 -0.5733 -0.6434
 7318TIP3    H243370   3.226   0.881  16.716 -1.5689 -0.9145 -0.3021
 7319TIP3   OH243371   6.408   4.642   4.110  0.5020 -0.1584 -0.5810
 7319TIP3    H143372   6.429   4.725   4.067  1.1924  0.1765  0.3757
 7319TIP3    H243373   6.332   4.662   4.165  0.4826 -0.2469 -0.5750
 7320TIP3   OH243374   0.775   2.357   5.630 -0.7613  0.5006  0.2224
 7320TIP3    H143375   0.814   2.390   5.711 -1.0538 -0.5343  0.8136
 7320TIP3    H243376   0.761   2.263   5.647  0.0194  0.0676 -1.3686
 7321TIP3   OH243377   1.705   0.592   6.611 -0.1653 -0.0292 -0.2125
 7321TIP3    H143378   1.684   0.621   6.700 -0.1922  0.0123 -0.2325
 7321TIP3    H243379   1.738   0.503   6.622 -2.4397 -0.9616 -0.4056
 7322TIP3   OH243380   6.645   3.404   4.475 -0.2566  0.3215 -0.5223
 7322TIP3    H143381   6.685   3.474   4.525 -2.4059  0.6167  0.8868
 7322TIP3    H243382   6.633   3.332   4.538 -1.0810 -0.0823 -1.1124
 7323TIP3   OH243383   2.763   6.280  15.238  0.3045  0.5360 -0.0449
 7323TIP3    H143384   2.750   6.268  15.332  0.4699 -3.1453 -0.3582
 7323TIP3    H243385   2.858   6.278  15.227  0.3664 -3.6640 -0.5210
 7324TIP3   OH243386   1.517   5.438  15.938 -0.3579  0.2489 -0.3920
 7324TIP3    H143387   1.498   5.477  16.023 -0.0927  1.7439 -0.9963
 7324TIP3    H243388   1.441   5.460  15.884  0.2721  0.8778 -1.0446
 7325TIP3   OH243389   3.779   2.944   5.619 -0.5896  0.4747  0.5046
 7325TIP3    H143390   3.824   3.029   5.625  0.2292 -0.0418  2.7871
 7325TIP3    H243391   3.711   2.948   5.686 -0.2977 -0.7898  0.9091
 7326TIP3   OH243392   1.144   0.230   2.831  0.4319 -0.4195 -0.3329
 7326TIP3    H143393   1.166   0.224   2.738  3.3202  0.7056  0.1683
 7326TIP3    H243394   1.146   0.139   2.862  1.1370 -0.6639 -1.0558
 7327TIP3   OH243395   2.315   5.469   4.311  0.4811 -0.2169 -0.3389
 7327TIP3    H143396   2.401   5.486   4.349  1.2447  1.3919 -2.5379
 7327TIP3    H243397   2.264   5.431   4.382  1.9747  1.9417  2.0623
 7328TIP3   OH243398   0.832   6.607  14.698  0.4824 -0.2788  0.3270
 7328TIP3    H143399   0.906   6.611  14.759 -0.1166  0.2035  1.0400
 7328TIP3    H243400   0.778   6.536  14.730 -0.9104  1.2894  1.6588
 7329TIP3   OH243401   4.187   5.733   1.400 -0.4877 -0.0374  0.4637
 7329TIP3    H143402   4.108   5.707   1.447 -0.4680 -0.5350  0.2340
 7329TIP3    H243403   4.188   5.676   1.323  0.4689 -0.5292  0.8252
 7330TIP3   OH243404   4.624   5.913   4.309  0.2654  0.4234  0.0015
 7330TIP3    H143405   4.679   5.888   4.235  0.9670 -0.0376  0.6697
 7330TIP3    H243406   4.601   5.831   4.352  3.0238  0.7727  2.5224
 7331TIP3   OH243407   4.040   1.750  15.871  0.2650 -0.3004 -0.7603
 7331TIP3    H143408   3.980   1.812  15.912  0.2929  0.1922 -1.4553
 7331TIP3    H243409   4.116   1.803  15.845  0.6434 -0.7706 -0.6368
 7332TIP3   OH243410   4.835   6.457  15.769 -0.1040 -0.2577 -0.3921
 7332TIP3    H143411   4.815   6.392  15.836 -0.4965  0.8713  0.6361
 7332TIP3    H243412   4.770   6.527  15.784 -0.0719  0.1070 -1.8306
 7333TIP3   OH243413   4.842   3.960  16.363  0.2582  0.2565 -0.0608
 7333TIP3    H143414   4.852   3.884  16.419  1.2921  0.5950  0.2439
 7333TIP3    H243415   4.770   3.937  16.303  0.3222 -0.8010  0.2498
 7334TIP3   OH243416   2.745   6.529  13.630  0.0010  0.0406 -0.2593
 7334TIP3    H143417   2.735   6.490  13.716 -0.8453 -1.8582 -1.1539
 7334TIP3    H243418   2.839   6.540  13.619  0.1252  0.1355  0.8345
 7335TIP3   OH243419   6.421   3.247   4.899  0.5173 -0.4472 -0.6149
 7335TIP3    H143420   6.450   3.241   4.990  1.1630  1.7139 -0.6195
 7335TIP3    H243421   6.343   3.303   4.903  0.8091  0.0249 -1.4256
 7336TIP3   OH243422   4.629   3.907   3.570 -0.8374  0.0615  0.2002
 7336TIP3    H143423   4.619   3.911   3.665 -3.4659  0.3364 -0.0118
 7336TIP3    H243424   4.634   3.814   3.550 -1.3780 -0.0467  0.5466
 7337TIP3   OH243425   2.909   3.488  15.396 -0.2731 -0.4958 -0.0522
 7337TIP3    H143426   2.893   3.420  15.461 -0.7645 -1.1707 -0.8630
 7337TIP3    H243427   2.935   3.565  15.448 -0.0071 -1.2007  0.8907
 7338TIP3   OH243428   0.376   5.575   4.528  0.1551  0.1597 -0.7699
 7338TIP3    H143429   0.396   5.492   4.484 -2.2444 -0.4529 -0.8783
 7338TIP3    H243430   0.371   5.552   4.621  0.1962  0.3441 -0.7222
 7339TIP3   OH243431   0.294   1.184   3.301 -0.3462  0.4782 -0.1653
 7339TIP3    H143432   0.248   1.104   3.325  1.2091 -0.6737 -0.8699
 7339TIP3    H243433   0.279   1.193   3.206  0.5277  0.3056 -0.3260
 7340TIP3   OH243434   0.847   2.536  13.136  0.5568  0.3797 -0.0461
 7340TIP3    H143435   0.865   2.442  13.135 -0.2527  0.2181 -1.1264
 7340TIP3    H243436   0.932   2.577  13.120  0.9266 -0.1532  0.4967
 7341TIP3   OH243437   5.096   6.466  12.216  0.2517 -0.7280 -0.1152
 7341TIP3    H143438   5.141   6.544  12.183  0.5756 -0.1797  1.5032
 7341TIP3    H243439   5.155   6.393  12.195  0.9135 -0.2746  0.1175
 7342TIP3   OH243440   0.514   2.124   0.393  0.0352 -0.3167 -0.6279
 7342TIP3    H143441   0.550   2.057   0.335  1.0607  1.0775 -1.6777
 7342TIP3    H243442   0.563   2.114   0.475 -1.0478 -1.9484 -0.1391
 7343TIP3   OH243443   1.603   1.705  10.421  0.2918 -0.7299  0.1260
 7343TIP3    H143444   1.674   1.719  10.483 -2.2409  1.4381  2.7916
 7343TIP3    H243445   1.548   1.638  10.462 -0.8335 -0.0850 -0.2881
 7344TIP3   OH243446   1.878   0.230  13.450  0.0987  0.1662 -0.2640
 7344TIP3    H143447   1.797   0.185  13.476 -0.4530  0.6910 -1.0242
 7344TIP3    H243448   1.926   0.165  13.398  1.4225 -1.0515  2.2962
 7345TIP3   OH243449   1.403   0.532   5.893  0.3109  0.8131  0.2063
 7345TIP3    H143450   1.454   0.507   5.970  0.0209  1.8543  0.7502
 7345TIP3    H243451   1.407   0.628   5.892  0.2815  0.8132 -1.0576
 7346TIP3   OH243452   2.169   1.580   0.047 -0.6605 -0.4369  0.2948
 7346TIP3    H143453   2.093   1.523   0.039 -0.0150 -1.2876  0.0685
 7346TIP3    H243454   2.214   1.550   0.126 -0.2482 -0.3116  0.1115
 7347TIP3   OH243455   4.748   5.553   2.533 -0.1744 -0.0087 -0.1655
 7347TIP3    H143456   4.779   5.595   2.452 -3.0676 -0.4518 -1.6596
 7347TIP3    H243457   4.826   5.515   2.572  1.3406 -0.0060 -2.9117
 7348TIP3   OH243458   5.013   3.839  10.991  0.1262 -0.0834 -0.1385
 7348TIP3    H143459   5.035   3.932  10.991  0.6589 -0.1316 -2.5287
 7348TIP3    H243460   5.091   3.796  11.024  1.1149  0.1827 -1.9863
 7349TIP3   OH243461   6.311   0.593   6.205 -0.6122 -0.0942 -0.3607
 7349TIP3    H143462   6.336   0.682   6.230 -0.0342 -0.0272 -1.1454
 7349TIP3    H243463   6.393   0.551   6.179 -1.0617 -0.4553 -1.2149
 7350TIP3   OH243464   0.273   1.666   2.142  0.3963  0.4492 -0.5567
 7350TIP3    H143465   0.242   1.638   2.056  2.4895 -1.9857 -0.6455
 7350TIP3    H243466   0.238   1.601   2.202  1.4358  0.3520 -0.0380
 7351TIP3   OH243467   1.881   4.973   3.464 -0.4122 -0.0840  0.1089
 7351TIP3    H143468   1.819   5.027   3.416 -0.7544  1.1382  1.8320
 7351TIP3    H243469   1.912   5.029   3.535  2.0910 -0.9179 -0.2061
 7352TIP3   OH243470   0.877   4.677   3.388 -0.4375  0.2606 -0.2501
 7352TIP3    H143471   0.922   4.708   3.467 -0.8151 -0.1349  0.1311
 7352TIP3    H243472   0.928   4.712   3.315  0.0693  0.4120  0.1717
 7353TIP3   OH243473   0.645   5.827  12.690  0.0106  0.0814 -0.7205
 7353TIP3    H143474   0.664   5.745  12.644 -0.2322  1.4828 -3.4881
 7353TIP3    H243475   0.721   5.883  12.672 -0.0757  0.7121  0.6666
 7354TIP3   OH243476   6.516   5.822  11.532 -0.0004 -0.0661 -0.1284
 7354TIP3    H143477   6.459   5.805  11.457  0.5168 -0.5114 -0.4270
 7354TIP3    H243478   6.588   5.760  11.522 -0.1523 -0.4484  0.9808
 7355TIP3   OH243479   1.119   4.958  14.696 -0.1455  0.3163  0.7107
 7355TIP3    H143480   1.110   4.908  14.777 -1.2898 -0.0005  0.3991
 7355TIP3    H243481   1.029   4.973  14.667  0.1779  2.1937  0.5710
 7356TIP3   OH243482   0.837   4.054   5.666 -0.2665  0.0917  0.1365
 7356TIP3    H143483   0.841   3.960   5.680 -0.5615  0.3549  2.1943
 7356TIP3    H243484   0.762   4.067   5.608 -0.0127 -0.9326 -0.4419
 7357TIP3   OH243485   3.443   0.482  16.227 -0.7778  0.3917 -0.0536
 7357TIP3    H143486   3.488   0.398  16.216 -1.8127 -0.2450  0.4011
 7357TIP3    H243487   3.511   0.548  16.213  0.5021 -0.5315  1.4168
 7358TIP3   OH243488   5.867   2.969  16.919  0.5797  0.2189 -0.0737
 7358TIP3    H143489   5.923   2.939  16.847 -0.3487 -0.5955 -0.4773
 7358TIP3    H243490   5.928   2.996  16.987  1.5024  1.1623 -1.2049
 7359TIP3   OH243491   2.576   4.175  15.551 -0.1275  0.3622 -0.3399
 7359TIP3    H143492   2.560   4.253  15.498 -0.5634  0.9126  0.5751
 7359TIP3    H243493   2.523   4.106  15.510 -1.3907  1.0709  0.0577
 7360TIP3   OH243494   4.401   4.303  10.864 -0.6483  0.3100 -0.4709
 7360TIP3    H143495   4.352   4.301  10.946  0.6778 -0.0246  0.3419
 7360TIP3    H243496   4.448   4.386  10.866 -1.2756  0.7090 -1.3303
 7361TIP3   OH243497   4.588   6.704  12.200 -0.2625 -0.2563 -0.0981
 7361TIP3    H143498   4.671   6.745  12.175  0.0944  0.9225  2.6677
 7361TIP3    H243499   4.536   6.775  12.236  0.0509 -1.8356  4.1104
 7362TIP3   OH243500   2.131   1.828   6.186 -0.2228 -0.6169  0.1470
 7362TIP3    H143501   2.201   1.835   6.252  0.5989  1.5630 -0.8752
 7362TIP3    H243502   2.065   1.891   6.214  0.7476  1.3489 -1.7534
 7363TIP3   OH243503   0.203   5.183  13.714 -0.6254  0.2114  0.0664
 7363TIP3    H143504   0.166   5.099  13.742 -0.0103  0.1833  0.8310
 7363TIP3    H243505   0.139   5.217  13.651 -1.3954 -0.3451  0.5198
 7364TIP3   OH243506   4.806   2.330   1.110  0.6157  0.0190 -0.1702
 7364TIP3    H143507   4.785   2.242   1.142  1.3625  0.3893  1.4501
 7364TIP3    H243508   4.841   2.315   1.022 -0.9086 -1.1158 -0.6310
 7365TIP3   OH243509   6.647   0.910   4.665 -0.5258 -0.5009 -0.5731
 7365TIP3    H143510   6.673   0.832   4.714 -1.5592 -1.1643 -1.0591
 7365TIP3    H243511   6.578   0.880   4.607 -1.3038  0.8863 -0.4054
 7366TIP3   OH243512   4.948   1.857   0.319  0.4112 -0.0731 -0.1207
 7366TIP3    H143513   4.978   1.854   0.410  3.0462  0.3025 -0.9088
 7366TIP3    H243514   5.012   1.805   0.271 -0.8116 -0.0857 -1.8430
 7367TIP3   OH243515   4.226   6.485   3.078 -0.0089  0.5545 -0.0494
 7367TIP3    H143516   4.322   6.483   3.082 -0.0496  0.0737  2.9981
 7367TIP3    H243517   4.204   6.416   3.015  1.6376 -1.4829  1.4564
 7368TIP3   OH243518   2.205   3.272   5.643 -0.2267  0.4721 -0.0197
 7368TIP3    H143519   2.110   3.284   5.646 -0.3439  0.4052 -1.9299
 7368TIP3    H243520   2.240   3.361   5.635 -0.0157  0.5982  1.9837
 7369TIP3   OH243521   4.488   6.364   1.526 -0.1832  0.0967 -0.7926
 7369TIP3    H143522   4.510   6.452   1.557 -0.7853 -0.3379  0.9301
 7369TIP3    H243523   4.407   6.376   1.477 -1.6078  0.1998  1.4639
 7370TIP3   OH243524   6.496   0.349   3.605 -0.4880 -0.5420  0.2232
 7370TIP3    H143525   6.454   0.434   3.595 -0.8576 -0.6450  0.8760
 7370TIP3    H243526   6.561   0.346   3.534 -0.2068  0.4373  0.4243
 7371TIP3   OH243527   2.348   2.540   2.574 -0.4214 -0.2660 -0.0988
 7371TIP3    H143528   2.399   2.469   2.612  1.3217  0.0960 -1.6363
 7371TIP3    H243529   2.306   2.583   2.649  2.1227 -0.1369  1.3462
 7372TIP3   OH243530   2.342   1.453   4.753  0.0034 -0.5575 -0.4412
 7372TIP3    H143531   2.317   1.373   4.798  0.1687  0.0973  0.8685
 7372TIP3    H243532   2.411   1.426   4.693 -0.2008 -1.4585 -0.2866
 7373TIP3   OH243533   6.272   2.798   4.275 -0.0761  0.4262 -0.0880
 7373TIP3    H143534   6.319   2.719   4.302  0.9261  0.6611 -1.0745
 7373TIP3    H243535   6.294   2.809   4.183  1.8767  3.2485  0.5918
 7374TIP3   OH243536   3.029   3.023   4.368  0.2074  0.3790  0.2769
 7374TIP3    H143537   3.042   3.087   4.298  3.2558  0.5157  0.8058
 7374TIP3    H243538   3.063   2.942   4.332 -3.1803 -0.9879 -0.2101
 7375TIP3   OH243539   6.010   4.184   1.987  0.2086  0.7683 -0.1603
 7375TIP3    H143540   5.926   4.219   1.956  0.1737  0.9649  0.1575
 7375TIP3    H243541   6.048   4.255   2.038  0.5830  0.6874 -0.3241
 7376TIP3   OH243542   2.992   5.411  15.182 -0.0647 -0.2918 -0.1443
 7376TIP3    H143543   3.014   5.499  15.211 -2.7432  0.9069 -1.3866
 7376TIP3    H243544   3.072   5.379  15.140  1.7407  0.5088  2.4168
 7377TIP3   OH243545   4.786   5.190  12.574  0.4174 -0.2668 -0.4594
 7377TIP3    H143546   4.773   5.283  12.589  0.4356 -0.4738  0.9911
 7377TIP3    H243547   4.758   5.148  12.656 -0.3111 -1.5971 -1.3513
 7378TIP3   OH243548   4.026   1.674   3.753  0.1041  0.2740  0.7529
 7378TIP3    H143549   3.960   1.677   3.822  1.0781 -0.1715  1.7277
 7378TIP3    H243550   4.091   1.611   3.784  0.4716 -0.0963 -0.6630
 7379TIP3   OH243551   3.476   1.221  12.538 -0.2389 -0.0258  0.0181
 7379TIP3    H143552   3.496   1.204  12.446 -1.0492  0.2710 -0.2261
 7379TIP3    H243553   3.463   1.316  12.544 -0.8569 -0.1168  0.2887
 7380TIP3   OH243554   2.428   4.881  13.196  0.2624  0.0964 -0.4376
 7380TIP3    H143555   2.470   4.889  13.110 -1.4768  0.8107 -1.2525
 7380TIP3    H243556   2.453   4.961  13.242 -0.1349  0.4886 -0.8928
 7381TIP3   OH243557   0.773   1.874   1.957 -0.4094 -0.3170  0.2923
 7381TIP3    H143558   0.693   1.854   2.006 -0.7289  0.1874 -0.0203
 7381TIP3    H243559   0.743   1.903   1.871  0.0667  0.9293  0.5295
 7382TIP3   OH243560   0.178   5.629   3.808 -0.0658  0.4137  0.2919
 7382TIP3    H143561   0.183   5.723   3.791  0.2663  0.6105  1.3842
 7382TIP3    H243562   0.163   5.623   3.903  0.0934 -0.6338  0.2612
 7383TIP3   OH243563   3.315   6.662  16.670 -0.3514  0.3887  0.3136
 7383TIP3    H143564   3.358   6.580  16.644 -2.0844 -0.5438  0.1895
 7383TIP3    H243565   3.319   6.717  16.592  0.0059  0.0588  0.0940
 7384TIP3   OH243566   5.145   1.801   3.036 -0.1014 -0.3120 -0.5675
 7384TIP3    H143567   5.104   1.792   3.122  0.4802 -0.6484 -0.3188
 7384TIP3    H243568   5.075   1.782   2.974 -0.3669 -0.7354 -0.1506
 7385TIP3   OH243569   6.208   5.580  16.531 -0.0855 -0.0235 -0.2014
 7385TIP3    H143570   6.216   5.672  16.556  1.7687 -0.9357  3.2625
 7385TIP3    H243571   6.280   5.565  16.471  0.1342  0.5902 -0.0977
 7386TIP3   OH243572   5.541   0.103  14.100 -0.6719 -0.3726 -0.0710
 7386TIP3    H143573   5.560   0.157  14.177 -0.3247 -0.8684  0.1952
 7386TIP3    H243574   5.621   0.107  14.048 -1.1609  0.5692 -0.7916
 7387TIP3   OH243575   6.261   4.393   4.446  0.3471  0.1777 -0.1356
 7387TIP3    H143576   6.170   4.418   4.464  0.4493  0.3757  0.1032
 7387TIP3    H243577   6.277   4.319   4.504  0.8927  1.2400  1.1057
 7388TIP3   OH243578   2.597   5.134  11.172  0.3998 -0.0916 -0.2407
 7388TIP3    H143579   2.686   5.168  11.163  0.8406 -0.4144  2.1091
 7388TIP3    H243580   2.601   5.044  11.139  0.8862 -0.0045 -0.4146
 7389TIP3   OH243581   2.674   6.199   4.152  0.0046 -0.4612  0.1593
 7389TIP3    H143582   2.652   6.285   4.188 -0.7862 -0.5437 -0.1212
 7389TIP3    H243583   2.627   6.137   4.208  1.7536 -0.8320  1.3148
 7390TIP3   OH243584   0.544   2.082   5.976 -0.0783 -0.8085 -0.3362
 7390TIP3    H143585   0.621   2.128   6.010 -1.1980  0.6742  0.2834
 7390TIP3    H243586   0.581   2.007   5.929  1.6302 -2.8394  3.7578
 7391TIP3   OH243587   2.500   4.795   4.991 -0.1636 -0.1300 -0.2171
 7391TIP3    H143588   2.464   4.790   5.080  0.0666  2.8291  0.1215
 7391TIP3    H243589   2.577   4.739   4.994 -1.4269 -1.9315  0.7196
 7392TIP3   OH243590   4.170   3.125  13.877  0.3023 -0.1042  0.6927
 7392TIP3    H143591   4.110   3.142  13.949  1.0786  0.7846  1.1467
 7392TIP3    H243592   4.119   3.072  13.815 -0.8346  0.3612  1.2062
 7393TIP3   OH243593   5.671   1.904  12.832 -0.2109  0.8002  0.2481
 7393TIP3    H143594   5.680   1.809  12.829  0.5657  0.8796 -1.1078
 7393TIP3    H243595   5.604   1.920  12.898 -0.9138 -0.7334 -0.0404
 7394TIP3   OH243596   1.436   3.309   1.906  0.1830 -0.2080 -0.5806
 7394TIP3    H143597   1.345   3.283   1.889  0.3471 -1.1758 -0.0492
 7394TIP3    H243598   1.471   3.239   1.961  0.9881  0.6038 -0.0310
 7395TIP3   OH243599   3.114   3.118  15.561  0.2143  0.2274 -0.3339
 7395TIP3    H143600   3.195   3.164  15.583 -0.3440  1.5748 -0.9460
 7395TIP3    H243601   3.046   3.185  15.572 -0.7995 -0.8414  0.0497
 7396TIP3   OH243602   6.347   6.559  16.128 -0.0581  0.0051 -0.5492
 7396TIP3    H143603   6.277   6.493  16.127  0.9764 -1.1277 -0.2944
 7396TIP3    H243604   6.304   6.639  16.098 -1.5339 -0.5830 -0.1090
 7397TIP3   OH243605   6.334   4.158  14.361  0.5963  0.1619  0.3058
 7397TIP3    H143606   6.356   4.243  14.399  2.0271 -0.2879  0.5157
 7397TIP3    H243607   6.409   4.103  14.380 -0.1604 -1.0604 -0.1501
 7398TIP3   OH243608   4.509   0.992   4.200 -0.5316  0.2786 -0.5578
 7398TIP3    H143609   4.604   1.001   4.212 -0.6664  0.6131  0.3628
 7398TIP3    H243610   4.493   0.898   4.207 -0.3227  0.2670 -0.2216
 7399TIP3   OH243611   2.911   4.032   0.068 -0.0036 -0.0399  1.2133
 7399TIP3    H143612   2.995   4.053   0.109  0.7771 -0.5659 -0.0379
 7399TIP3    H243613   2.924   4.056  -0.024 -1.1517 -0.3593  0.9632
 7400TIP3   OH243614   3.489   1.428   5.076  0.5603 -0.2052 -0.3218
 7400TIP3    H143615   3.509   1.472   4.993  0.8684 -1.2326 -0.8178
 7400TIP3    H243616   3.560   1.454   5.135  1.7024 -1.3284 -1.1247
 7401TIP3   OH243617   5.152   1.768  13.655 -0.1396 -0.1030 -0.1362
 7401TIP3    H143618   5.223   1.831  13.644  0.8106 -0.8147  1.5487
 7401TIP3    H243619   5.095   1.783  13.580  1.3101  1.1175 -1.0510
 7402TIP3   OH243620   1.265   4.031   4.253  0.2842 -0.1151  0.1822
 7402TIP3    H143621   1.254   4.073   4.168  0.4930 -1.6766 -0.6360
 7402TIP3    H243622   1.186   4.056   4.302  0.1555  0.7802 -0.4454
 7403TIP3   OH243623   2.039   1.174  12.675  0.0712 -0.4698  0.1712
 7403TIP3    H143624   1.986   1.099  12.703  1.4571 -1.8258 -0.6785
 7403TIP3    H243625   2.043   1.166  12.580 -0.4269  1.1817 -0.0141
 7404TIP3   OH243626   1.432   2.659   1.776  0.3146 -0.3202  0.4223
 7404TIP3    H143627   1.386   2.579   1.800  0.2807 -0.3464  0.2713
 7404TIP3    H243628   1.515   2.629   1.740  0.4211 -0.2756  0.6316
 7405TIP3   OH243629   0.304   0.549   4.906  0.2347 -0.3591  0.4867
 7405TIP3    H143630   0.330   0.488   4.837  0.6473 -1.2256  1.3876
 7405TIP3    H243631   0.363   0.530   4.979 -0.4857  0.2272  1.2465
 7406TIP3   OH243632   5.611   6.489   2.815  0.1369 -0.1563  0.6726
 7406TIP3    H143633   5.572   6.423   2.872  0.0032  0.3131  1.1281
 7406TIP3    H243634   5.651   6.552   2.874  0.1181  0.2601  0.2459
 7407TIP3   OH243635   6.091   4.096   4.000  0.1559 -0.4107  0.1686
 7407TIP3    H143636   6.173   4.052   4.021  0.1342  0.4400  2.2313
 7407TIP3    H243637   6.024   4.029   4.009  0.2867 -0.3615  1.8369
 7408TIP3   OH243638   4.261   1.781  12.738  0.0742  0.2887 -0.3212
 7408TIP3    H143639   4.167   1.786  12.758  0.1874  0.0620  0.2924
 7408TIP3    H243640   4.303   1.786  12.824  0.6451  0.8451 -0.6279
 7409TIP3   OH243641   1.096   4.536  11.880 -0.3607  0.3440 -0.2343
 7409TIP3    H143642   1.058   4.474  11.818 -2.4994  0.8972  0.4373
 7409TIP3    H243643   1.024   4.556  11.941  1.6873 -0.3744  2.6155
 7410TIP3   OH243644   4.724   5.377   5.031 -0.0496 -0.0560  0.1763
 7410TIP3    H143645   4.702   5.384   4.938 -0.1221  1.7060  0.2885
 7410TIP3    H243646   4.656   5.426   5.076  0.1890 -0.5796  1.1383
 7411TIP3   OH243647   6.640   0.630   0.366 -0.0390 -0.0952 -0.1336
 7411TIP3    H143648   6.700   0.701   0.388 -0.6830  0.3259  0.2732
 7411TIP3    H243649   6.697   0.555   0.349  0.5699  0.0122  1.2986
 7412TIP3   OH243650   4.121   4.170  12.270 -0.7646 -0.0159 -0.1077
 7412TIP3    H143651   4.041   4.216  12.292 -0.7066 -0.4522  1.1101
 7412TIP3    H243652   4.096   4.077  12.269 -0.3483 -0.1314 -0.0459
 7413TIP3   OH243653   5.670   3.021   1.285  0.4730 -0.4606 -0.1867
 7413TIP3    H143654   5.753   2.978   1.305  1.9597  1.9754 -0.7418
 7413TIP3    H243655   5.666   3.023   1.189  1.1882  1.8556 -0.2163
 7414TIP3   OH243656   0.005   2.961   0.467  0.0456  0.1581  0.2829
 7414TIP3    H143657  -0.065   2.960   0.402  0.5822  1.3317 -0.3398
 7414TIP3    H243658  -0.002   2.877   0.511 -1.5411  0.1102  0.0029
 7415TIP3   OH243659   6.110   5.172  16.375 -0.4780 -0.2584  0.1166
 7415TIP3    H143660   6.074   5.193  16.289  1.8446  2.5437 -0.3172
 7415TIP3    H243661   6.154   5.088  16.363 -2.6454 -1.3813 -0.5518
 7416TIP3   OH243662   6.221   4.198  13.673  0.1387 -0.0705  0.0013
 7416TIP3    H143663   6.192   4.119  13.719  0.0962 -1.1366 -1.7523
 7416TIP3    H243664   6.153   4.213  13.607 -0.8631  2.6098  1.4919
 7417TIP3   OH243665   6.591   2.867  14.494 -0.0068 -0.0489 -0.4879
 7417TIP3    H143666   6.539   2.800  14.451 -1.0506  0.5247 -0.1534
 7417TIP3    H243667   6.527   2.928  14.530  0.7279 -0.8670  2.5400
 7418TIP3   OH243668   0.953   5.279  13.685  0.3524  0.5233  0.7845
 7418TIP3    H143669   0.980   5.365  13.651 -0.5661  1.4841  2.3528
 7418TIP3    H243670   1.028   5.248  13.735  1.1644 -0.2300 -0.8060
 7419TIP3   OH243671   6.205   3.074   4.775 -0.4820 -0.2894 -0.1606
 7419TIP3    H143672   6.142   3.144   4.791 -1.0094 -0.4853 -1.2282
 7419TIP3    H243673   6.290   3.119   4.768 -0.4830 -0.0215  1.2455
 7420TIP3   OH243674   4.928   3.082  15.911 -0.3942  0.2551  0.7675
 7420TIP3    H143675   4.988   3.124  15.850 -1.3288 -0.3046 -0.5814
 7420TIP3    H243676   4.854   3.142  15.918 -0.7020 -0.1057  0.6375
 7421TIP3   OH243677   0.462   5.039   4.196 -0.5787  0.1921 -0.0074
 7421TIP3    H143678   0.483   5.088   4.117  2.2401  0.6791  0.9161
 7421TIP3    H243679   0.485   4.948   4.175 -1.9115 -0.0725 -0.4046
 7422TIP3   OH243680   3.654   6.189   5.174  0.2132 -0.0220 -0.4144
 7422TIP3    H143681   3.603   6.133   5.116  0.3496 -0.6312  0.0369
 7422TIP3    H243682   3.646   6.276   5.137 -2.1250  0.1151  0.2750
 7423TIP3   OH243683   1.160   3.225   4.119 -0.1912  0.1428 -0.0514
 7423TIP3    H143684   1.179   3.234   4.025  0.9300 -1.6625 -0.0355
 7423TIP3    H243685   1.211   3.149   4.147  0.7758  1.5792  2.3852
 7424TIP3   OH243686   1.512   5.839  12.311  0.8226  0.4635 -0.1454
 7424TIP3    H143687   1.478   5.860  12.398 -0.1131 -0.8403 -0.1660
 7424TIP3    H243688   1.603   5.813  12.326  0.6665  0.2504  0.4571
 7425TIP3   OH243689   6.385   1.230  10.813 -0.2102 -0.1640  1.0509
 7425TIP3    H143690   6.475   1.256  10.834  0.1052 -0.6526  0.3184
 7425TIP3    H243691   6.334   1.259  10.889  0.0414  2.9287  0.1895
 7426TIP3   OH243692   5.192   3.497  12.083  0.1135  0.1313  0.4812
 7426TIP3    H143693   5.260   3.487  12.017 -0.4363 -0.9052  0.0510
 7426TIP3    H243694   5.118   3.446  12.050 -1.8258  3.1662 -0.2811
 7427TIP3   OH243695   2.988   2.692   2.847 -0.4919 -0.0165 -0.2979
 7427TIP3    H143696   3.008   2.765   2.789 -1.7519  0.0780 -0.6523
 7427TIP3    H243697   2.985   2.731   2.935 -0.5623  0.2376 -0.4125
 7428TIP3   OH243698   5.204   3.360   1.250 -0.4191  0.5447 -0.3099
 7428TIP3    H143699   5.247   3.412   1.318 -1.6330  1.6005 -0.3079
 7428TIP3    H243700   5.145   3.302   1.299  2.3731 -2.4408 -0.1419
 7429TIP3   OH243701   6.512   5.728  14.206  0.7440 -0.0906 -0.4611
 7429TIP3    H143702   6.478   5.759  14.289  2.4152  1.9955 -0.4775
 7429TIP3    H243703   6.507   5.632  14.212  1.9292 -0.0622  2.5460
 7430TIP3   OH243704   1.554   3.882   2.385  0.0176  0.1257 -0.6004
 7430TIP3    H143705   1.519   3.915   2.302  1.2459 -0.4153 -1.3652
 7430TIP3    H243706   1.477   3.860   2.437 -0.7774  0.2621 -1.6891
 7431TIP3   OH243707   4.212   4.398  15.295  0.3510  0.3804 -0.1862
 7431TIP3    H143708   4.176   4.362  15.214  0.8441  1.3262 -0.8456
 7431TIP3    H243709   4.235   4.321  15.347 -0.1800 -0.2413 -0.8426
 7432TIP3   OH243710   5.786   5.088   0.840 -0.4221  0.2344 -0.5773
 7432TIP3    H143711   5.852   5.029   0.877  0.2256  1.3691  0.1085
 7432TIP3    H243712   5.832   5.170   0.826 -2.1267  1.7259  1.8230
 7433TIP3   OH243713   4.878   4.391   5.494  0.0266  0.5162  0.4077
 7433TIP3    H143714   4.974   4.393   5.494  0.0399  1.5154 -1.2211
 7433TIP3    H243715   4.852   4.443   5.570  0.7611  0.7009  0.5362
 7434TIP3   OH243716   5.704   2.622  16.551  0.2510  0.0173  0.0086
 7434TIP3    H143717   5.789   2.586  16.524  0.8996  2.6401 -1.8869
 7434TIP3    H243718   5.652   2.623  16.470 -0.8645  0.3537  0.7102
 7435TIP3   OH243719   4.990   0.770  11.894  0.2783  0.2318 -0.0534
 7435TIP3    H143720   4.941   0.801  11.970  0.7893 -0.5768  0.6238
 7435TIP3    H243721   4.924   0.735  11.835 -0.0426 -0.0190  0.4483
 7436TIP3   OH243722   1.401   2.446   3.732  0.2539  0.1335 -0.2362
 7436TIP3    H143723   1.433   2.435   3.821  0.3032  0.3969 -0.2182
 7436TIP3    H243724   1.392   2.357   3.698  0.9423  0.0496 -0.2193
 7437TIP3   OH243725   0.338   0.314   3.169  0.0358 -0.0731 -0.0852
 7437TIP3    H143726   0.390   0.273   3.100  1.0064  1.9638 -0.6426
 7437TIP3    H243727   0.266   0.356   3.121 -0.6872 -0.7247  0.4195
 7438TIP3   OH243728   6.010   0.724   1.213 -0.1960  0.3288 -0.1027
 7438TIP3    H143729   6.018   0.699   1.305 -1.3028  0.4099  0.0178
 7438TIP3    H243730   6.050   0.650   1.166  0.5609  0.3773  0.4329
 7439TIP3   OH243731   6.176   1.354   2.377 -0.4611  0.5025  0.2612
 7439TIP3    H143732   6.167   1.334   2.284 -0.0353  1.1996  0.0647
 7439TIP3    H243733   6.266   1.386   2.386 -1.0748  2.2557  0.5514
 7440TIP3   OH243734   1.433   5.377   3.523 -0.3397  0.0898 -0.0266
 7440TIP3    H143735   1.418   5.471   3.537  0.5819  0.2678 -0.1523
 7440TIP3    H243736   1.346   5.338   3.528 -0.7243  0.9368  0.1452
 7441TIP3   OH243737   2.748   3.691   4.726 -0.0699  0.1737  0.0423
 7441TIP3    H143738   2.816   3.690   4.794 -0.5782  0.1708  0.5556
 7441TIP3    H243739   2.774   3.761   4.667 -1.6696  2.9083  2.3390
 7442TIP3   OH243740   6.725   5.286   1.555  0.4222 -0.3139 -0.2780
 7442TIP3    H143741   6.662   5.213   1.557  0.8936 -0.7255  0.9981
 7442TIP3    H243742   6.674   5.361   1.526 -1.4439  0.0082  3.2260
 7443TIP3   OH243743   5.677   6.318  13.964  0.1640 -0.1883  0.2619
 7443TIP3    H143744   5.714   6.230  13.966  2.0364  0.5660  0.7383
 7443TIP3    H243745   5.601   6.314  14.021 -0.2278 -1.6711 -0.3245
 7444TIP3   OH243746   6.154   5.195  14.010  0.0679 -0.6754 -0.7701
 7444TIP3    H143747   6.093   5.249  14.061  0.3658 -0.0504 -1.0703
 7444TIP3    H243748   6.205   5.257  13.959  0.2327 -1.2546 -1.3341
 7445TIP3   OH243749   3.798   3.392  16.937  0.5238  0.3597  0.2392
 7445TIP3    H143750   3.767   3.398  16.846 -1.1188 -1.2651  0.6189
 7445TIP3    H243751   3.722   3.361  16.986  1.3969  1.1228  2.1844
 7446TIP3   OH243752   5.523   3.357  12.719 -0.0304  0.1313  0.1797
 7446TIP3    H143753   5.529   3.349  12.624  1.2992 -0.0858  0.2621
 7446TIP3    H243754   5.448   3.303  12.743  1.1797 -1.9941 -0.5327
 7447TIP3   OH243755   0.664   0.045   1.307  0.0294  0.6164  0.5183
 7447TIP3    H143756   0.575   0.033   1.274  0.1132 -1.8350  1.0139
 7447TIP3    H243757   0.683  -0.035   1.354  2.9568  0.5466 -0.5892
 7448TIP3   OH243758   5.549   5.901   6.364 -0.7030 -0.1679 -0.5413
 7448TIP3    H143759   5.634   5.857   6.363 -1.0920 -0.9253 -0.9898
 7448TIP3    H243760   5.567   5.991   6.337  0.2092  0.1600  1.0344
 7449TIP3   OH243761   5.602   6.651  16.662 -1.1369  0.3633 -0.0707
 7449TIP3    H143762   5.634   6.689  16.744 -1.3879  1.6581 -0.5601
 7449TIP3    H243763   5.582   6.726  16.607  0.5144 -0.4658 -1.9130
 7450TIP3   OH243764   2.881   1.307   1.427  0.0095  1.2910 -0.4115
 7450TIP3    H143765   2.805   1.288   1.482  2.2750 -1.0415  2.2338
 7450TIP3    H243766   2.885   1.233   1.366  0.4051  1.1729 -0.2424
 7451TIP3   OH243767   3.650   1.106   3.999  0.1150  0.2450 -0.6578
 7451TIP3    H143768   3.680   1.179   4.053  0.6422 -0.1855 -0.3635
 7451TIP3    H243769   3.635   1.035   4.061  1.0146 -0.3489 -1.0988
 7452TIP3   OH243770   4.204   0.247   1.859 -0.3979 -0.3673 -0.0063
 7452TIP3    H143771   4.285   0.243   1.910 -1.1167 -2.9097  1.0618
 7452TIP3    H243772   4.193   0.341   1.840  1.1904  0.4044  2.4024
 7453TIP3   OH243773   5.469   4.340  16.198 -1.0175 -0.1611 -0.2055
 7453TIP3    H143774   5.524   4.274  16.157 -0.2847  0.3024 -0.0097
 7453TIP3    H243775   5.414   4.292  16.260  1.5035 -0.3582  2.0790
 7454TIP3   OH243776   0.145   4.315   4.110  0.0685 -0.4684  0.1634
 7454TIP3    H143777   0.206   4.292   4.179 -0.4486 -1.1455  0.3985
 7454TIP3    H243778   0.116   4.231   4.074  0.5485 -0.1338 -1.0761
 7455TIP3   OH243779   4.684   1.912   3.933 -0.5539 -0.0158  0.3848
 7455TIP3    H143780   4.708   1.973   4.002 -2.1415  1.1574 -0.0272
 7455TIP3    H243781   4.702   1.960   3.852 -0.2275 -0.7510  0.0183
 7456TIP3   OH243782   1.720   2.575   5.710 -0.1931 -0.0363  0.2016
 7456TIP3    H143783   1.801   2.617   5.680  0.7040 -3.1791 -2.2773
 7456TIP3    H243784   1.656   2.594   5.641 -0.4566 -0.6941  0.2574
 7457TIP3   OH243785   4.246   4.189   3.300  0.3194 -0.5769 -0.1324
 7457TIP3    H143786   4.312   4.122   3.317  1.3344  0.3838 -0.1680
 7457TIP3    H243787   4.292   4.272   3.312 -0.8536  0.1228 -0.2865
 7458TIP3   OH243788   6.483   3.439  14.601  0.0820 -0.3359 -0.1184
 7458TIP3    H143789   6.401   3.476  14.634 -0.5866  0.5999 -2.6110
 7458TIP3    H243790   6.471   3.345  14.609 -1.0996 -0.2056 -0.0843
 7459TIP3   OH243791   0.364   2.677  14.788  1.5283  0.0379  0.1947
 7459TIP3    H143792   0.339   2.750  14.844  1.2963 -0.7573  1.1606
 7459TIP3    H243793   0.320   2.695  14.705  0.7158  0.5240  0.7109
 7460TIP3   OH243794   1.179   2.717   2.650  0.4457 -0.6487  0.0629
 7460TIP3    H143795   1.151   2.807   2.667 -0.2826 -0.9786  0.6540
 7460TIP3    H243796   1.190   2.713   2.555 -1.3659 -0.4481 -0.1871
 7461TIP3   OH243797   0.842   0.663  14.586 -0.3632 -0.2879 -0.0554
 7461TIP3    H143798   0.839   0.683  14.679  1.1338 -0.5029  0.0677
 7461TIP3    H243799   0.910   0.596  14.578 -0.5054 -0.3037 -1.2937
 7462TIP3   OH243800   0.576   0.519   2.914  0.1880  0.8281 -0.7520
 7462TIP3    H143801   0.537   0.541   2.999 -0.6943  0.0753 -0.9494
 7462TIP3    H243802   0.593   0.425   2.919 -1.9722  0.2807 -2.2004
 7463TIP3   OH243803   2.821   0.831  12.134 -0.1042  0.2163  0.6710
 7463TIP3    H143804   2.746   0.881  12.165  2.1731  2.7312  2.6814
 7463TIP3    H243805   2.847   0.875  12.053 -1.1248 -1.1167 -0.4351
 7464TIP3   OH243806   0.468   5.012  16.783 -0.2625 -0.3844 -0.1460
 7464TIP3    H143807   0.561   5.021  16.800 -0.3785 -0.1928  0.4150
 7464TIP3    H243808   0.459   4.926  16.742  0.4523  0.5741 -2.5044
 7465TIP3   OH243809   0.693   1.702   1.409  0.2013  0.2184  0.5716
 7465TIP3    H143810   0.634   1.777   1.397  0.3184  0.2614  0.2540
 7465TIP3    H243811   0.651   1.649   1.476 -0.1870  0.2630  0.3650
 7466TIP3   OH243812   3.530   6.257  15.552  0.4180  0.4758 -0.1542
 7466TIP3    H143813   3.555   6.252  15.460  1.1428  2.4783 -0.1155
 7466TIP3    H243814   3.509   6.350  15.566 -0.3938  0.0716  1.5187
 7467TIP3   OH243815   5.845   6.146   3.398  0.2811  0.1375  0.0778
 7467TIP3    H143816   5.889   6.105   3.473  1.7997 -1.8991 -1.8177
 7467TIP3    H243817   5.813   6.230   3.433  1.8675 -0.2160  2.7085
 7468TIP3   OH243818   4.842   1.850  12.395 -0.1554  0.2171  0.1722
 7468TIP3    H143819   4.791   1.914  12.345 -0.8280 -0.5392 -0.1469
 7468TIP3    H243820   4.876   1.791  12.328 -3.1724 -2.3401  0.6625
 7469TIP3   OH243821   1.140   5.859   1.673  0.3322  0.2300 -0.2317
 7469TIP3    H143822   1.090   5.920   1.619  1.0658  1.8123  0.8025
 7469TIP3    H243823   1.114   5.772   1.641 -2.6109  0.9517 -0.1511
 7470TIP3   OH243824   2.782   4.584   1.493  0.1828  0.4889 -0.1043
 7470TIP3    H143825   2.819   4.538   1.568 -0.7190  1.4685  0.9570
 7470TIP3    H243826   2.694   4.548   1.484 -1.0196  2.8498  1.5428
 7471TIP3   OH243827   2.006   5.544   6.044  0.0656  0.1862  0.6516
 7471TIP3    H143828   2.086   5.563   6.094  0.0445  0.3815  0.6120
 7471TIP3    H243829   1.942   5.518   6.110  0.1390  0.1056  0.6913
 7472TIP3   OH243830   1.904   4.967   4.317 -0.1888  0.1436  0.4494
 7472TIP3    H143831   1.975   4.972   4.252 -1.2364  0.4687 -0.6978
 7472TIP3    H243832   1.944   4.924   4.392  1.8007  2.0677  0.6084
 7473TIP3   OH243833   0.323   0.599   0.845 -0.0768 -0.7478  0.0443
 7473TIP3    H143834   0.242   0.629   0.887 -0.1521 -0.9820  0.0698
 7473TIP3    H243835   0.352   0.673   0.793 -1.6373 -1.4458 -1.9383
 7474TIP3   OH243836   3.672   2.073   4.695  0.1077  0.9078 -0.3983
 7474TIP3    H143837   3.626   2.157   4.690 -0.3494  0.6500 -0.5551
 7474TIP3    H243838   3.713   2.063   4.609 -2.4362 -0.4946 -1.5515
 7475TIP3   OH243839   3.644   1.580   5.440  0.3903 -0.2240  0.4597
 7475TIP3    H143840   3.551   1.556   5.432  0.2021  0.8584 -1.0760
 7475TIP3    H243841   3.691   1.502   5.412 -0.0896 -0.3539 -0.0067
 7476TIP3   OH243842   1.545   6.557   0.064 -0.1167 -0.5813  0.0523
 7476TIP3    H143843   1.544   6.652   0.069  1.8634 -0.5318  0.2921
 7476TIP3    H243844   1.638   6.533   0.065 -0.5286 -2.4755 -0.8625
 7477TIP3   OH243845   5.128   4.032   5.370 -0.7702  0.1566 -0.3228
 7477TIP3    H143846   5.183   3.961   5.336 -0.7216 -0.3462  0.7870
 7477TIP3    H243847   5.060   4.043   5.304 -0.8179 -0.9760 -0.4766
 7478TIP3   OH243848   3.066   4.926  14.086  0.2447 -0.0331  0.6744
 7478TIP3    H143849   3.071   5.018  14.112 -0.4263 -0.0210  0.7949
 7478TIP3    H243850   3.156   4.895  14.089  0.9025  1.3454 -2.1425
 7479TIP3   OH243851   0.589   0.292   0.306  0.4798  0.0745 -0.4437
 7479TIP3    H143852   0.625   0.254   0.226 -1.2619  1.4289 -1.9620
 7479TIP3    H243853   0.633   0.377   0.314  0.7741 -0.1289  0.1513
 7480TIP3   OH243854   1.104   0.049  16.707  0.2280  0.1560  0.1484
 7480TIP3    H143855   1.080   0.140  16.726  0.9955  0.2681  0.6064
 7480TIP3    H243856   1.023  -0.001  16.723  0.7419  0.2417  3.6902
 7481TIP3   OH243857   3.811   4.777  12.853  0.0406 -0.0149  0.7856
 7481TIP3    H143858   3.748   4.734  12.795 -0.2916  1.0861  0.2862
 7481TIP3    H243859   3.796   4.738  12.939 -1.6831  0.5392  0.7791
 7482TIP3   OH243860   5.866   1.911  16.788 -0.0821  0.4406 -0.2399
 7482TIP3    H143861   5.902   1.900  16.877 -1.6381  2.2365  0.6784
 7482TIP3    H243862   5.941   1.896  16.730  1.2020  0.1583  1.3967
 7483TIP3   OH243863   3.596   2.977   4.586  0.3905  0.2063 -0.1268
 7483TIP3    H143864   3.633   3.052   4.633  2.8134  0.0917 -1.6589
 7483TIP3    H243865   3.672   2.937   4.542 -1.5342 -0.3461 -3.1813
 7484TIP3   OH243866   5.963   0.048   1.165 -0.4807 -0.0263  0.3770
 7484TIP3    H143867   5.961  -0.016   1.094  2.2838  0.2829 -0.0682
 7484TIP3    H243868   5.881   0.033   1.213 -2.8031  0.1456 -3.1499
 7485TIP3   OH243869   2.972   0.884  11.520  0.0758  0.4758  0.3281
 7485TIP3    H143870   3.067   0.881  11.511  0.2248  0.9715  1.5461
 7485TIP3    H243871   2.939   0.829  11.449  1.2267  1.1407 -0.7608
 7486TIP3   OH243872   1.156   3.746   4.226 -0.3608 -0.4514 -0.3229
 7486TIP3    H143873   1.191   3.824   4.182 -0.8011 -0.2569 -0.3287
 7486TIP3    H243874   1.071   3.732   4.185  0.4243 -1.9502 -1.5514
 7487TIP3   OH243875   2.824   6.242  11.889 -0.0692  0.2463  1.0723
 7487TIP3    H143876   2.896   6.242  11.952  0.2724 -0.0890  0.6897
 7487TIP3    H243877   2.824   6.331  11.852  3.0796 -0.8298 -2.1775
 7488TIP3   OH243878   0.805   3.304  14.293  0.5771 -0.3590  0.3861
 7488TIP3    H143879   0.875   3.328  14.355  1.6185 -1.3303 -0.3763
 7488TIP3    H243880   0.846   3.313  14.207 -0.7058  0.4800 -0.1706
 7489TIP3   OH243881   0.350   3.954   1.648 -0.3341 -0.4821 -0.4688
 7489TIP3    H143882   0.286   3.904   1.598 -0.5663  0.7775 -1.5002
 7489TIP3    H243883   0.387   4.015   1.584 -0.5083  1.0696  0.8426
 7490TIP3   OH243884   5.702   1.718  11.261 -0.0892  0.6566  0.1461
 7490TIP3    H143885   5.621   1.723  11.211 -0.4297 -3.0656  0.0542
 7490TIP3    H243886   5.770   1.701  11.195  0.2324  0.4970  0.5119
 7491TIP3   OH243887   6.727   4.006   2.521  0.1473  0.2455 -0.8524
 7491TIP3    H143888   6.701   3.932   2.466 -0.5851 -0.4811  0.4048
 7491TIP3    H243889   6.674   3.996   2.601 -0.7541  2.7284 -1.0549
 7492TIP3   OH243890   3.879   2.977  15.723  0.5260 -0.1449 -0.2276
 7492TIP3    H143891   3.938   2.978  15.648  1.0790 -0.1037  0.2052
 7492TIP3    H243892   3.900   3.057  15.772 -0.2125  0.1151 -0.3147
 7493TIP3   OH243893   5.208   5.761   2.267 -0.1995  0.5774 -0.3997
 7493TIP3    H143894   5.298   5.787   2.249 -0.5949  1.0717 -1.8018
 7493TIP3    H243895   5.178   5.821   2.335 -0.0901  1.7381 -1.3396
 7494TIP3   OH243896   5.074   1.128  15.510  0.3043  0.0102  0.1223
 7494TIP3    H143897   5.095   1.221  15.519  0.2001  0.3958 -2.7697
 7494TIP3    H243898   5.079   1.111  15.416 -2.4612 -2.2415  0.2370
 7495TIP3   OH243899   1.805   6.478  16.209  0.2327 -0.4777 -0.1498
 7495TIP3    H143900   1.719   6.443  16.234  0.7304 -0.9022  1.0359
 7495TIP3    H243901   1.787   6.567  16.180 -0.6198 -0.5955 -0.0222
 7496TIP3   OH243902   2.781   4.907  13.175 -0.1342  0.0355  0.2454
 7496TIP3    H143903   2.851   4.901  13.240 -0.0345  0.2706  0.1616
 7496TIP3    H243904   2.730   4.827  13.187  1.0593 -0.9217 -0.7322
 7497TIP3   OH243905   2.610   6.693  11.229  0.5770 -0.3442 -0.6734
 7497TIP3    H143906   2.687   6.745  11.206 -0.4090  1.9709  0.8826
 7497TIP3    H243907   2.609   6.693  11.325 -1.6605  0.2792 -0.6295
 7498TIP3   OH243908   3.576   2.049   5.736  0.3201  0.1045 -0.6688
 7498TIP3    H143909   3.585   2.095   5.820  0.2814  0.8653 -1.0681
 7498TIP3    H243910   3.621   2.106   5.673  1.0514 -0.8471 -1.0375
 7499TIP3   OH243911   0.924   0.913   4.117  0.1292 -0.6594 -0.3027
 7499TIP3    H143912   0.838   0.925   4.158  0.7494 -0.6886  1.0708
 7499TIP3    H243913   0.913   0.947   4.028 -0.6303  1.7590  0.6321
 7500TIP3   OH243914   2.551   6.613  13.168  0.2432 -0.3086  0.2696
 7500TIP3    H143915   2.578   6.657  13.087 -1.0432 -0.3789 -0.2296
 7500TIP3    H243916   2.510   6.531  13.138  0.7118 -0.8423  1.0634
 7501TIP3   OH243917   4.596   0.434   0.703  0.0489 -0.7272  0.1796
 7501TIP3    H143918   4.652   0.422   0.780  1.5104  0.7210 -0.5992
 7501TIP3    H243919   4.633   0.510   0.658 -1.9004 -0.3986 -0.9796
 7502TIP3   OH243920   4.369   3.761  16.130  0.3229  0.0514  0.0396
 7502TIP3    H143921   4.367   3.666  16.115  0.4955  0.1567 -0.7098
 7502TIP3    H243922   4.400   3.770  16.220 -1.5821 -0.6403  0.8094
 7503TIP3   OH243923   5.815   6.342   2.191  0.3032  0.4649  0.5489
 7503TIP3    H143924   5.746   6.353   2.126  2.4515 -0.4716 -2.0412
 7503TIP3    H243925   5.776   6.375   2.272 -2.9197  0.5861 -0.8906
 7504TIP3   OH243926   0.672   4.794   5.779 -0.5784  0.0250 -0.4422
 7504TIP3    H143927   0.702   4.860   5.841 -1.6235 -0.6934  0.8492
 7504TIP3    H243928   0.596   4.754   5.820 -1.5659 -0.1861 -2.3807
 7505TIP3   OH243929   3.663   6.254   1.455  0.4353 -0.2806  0.1658
 7505TIP3    H143930   3.611   6.294   1.524 -0.7559  1.9987 -1.8977
 7505TIP3    H243931   3.737   6.214   1.501 -1.5410 -1.0663  2.9323
 7506TIP3   OH243932   5.640   3.020  10.469 -0.1707  0.9526 -0.3732
 7506TIP3    H143933   5.705   2.984  10.409  1.0120 -1.0231  1.9047
 7506TIP3    H243934   5.574   2.951  10.477 -0.1288  1.0383  0.8250
 7507TIP3   OH243935   3.955   5.113  12.720  0.1773  0.0909 -0.2200
 7507TIP3    H143936   3.933   5.178  12.653 -0.3962 -0.8620 -0.9840
 7507TIP3    H243937   4.028   5.064  12.683 -0.6299 -0.9344 -0.5113
 7508TIP3   OH243938   1.231   1.358   1.065  0.7103  0.6887  0.3497
 7508TIP3    H143939   1.248   1.274   1.109 -2.1667  0.7401  1.8133
 7508TIP3    H243940   1.229   1.422   1.137  3.0620  2.1279 -0.7672
 7509TIP3   OH243941   2.630   6.546   0.570 -0.5800 -0.4171  0.3078
 7509TIP3    H143942   2.623   6.453   0.593  1.3890 -0.6124  0.3271
 7509TIP3    H243943   2.671   6.586   0.647  0.1474  0.1421 -0.3574
 7510TIP3   OH243944   3.106   6.464   0.403 -0.7476 -0.0666  0.5691
 7510TIP3    H143945   3.030   6.439   0.457 -0.2685 -1.8547  0.4930
 7510TIP3    H243946   3.179   6.467   0.464 -0.7482  1.0381  0.5323
 7511TIP3   OH243947   4.916   0.257   0.726  0.1320 -0.2201  0.8654
 7511TIP3    H143948   4.977   0.222   0.791 -1.2769  0.6364  2.7258
 7511TIP3    H243949   4.834   0.268   0.773 -0.8039  0.9531 -0.9265
 7512TIP3   OH243950   3.567   2.842  13.719 -0.2170  0.6585  0.8250
 7512TIP3    H143951   3.478   2.872  13.736 -0.4413 -0.4297  1.6352
 7512TIP3    H243952   3.568   2.751  13.747  1.0388  0.5305  0.4257
 7513TIP3   OH243953   1.043   5.478  12.675  0.0309 -0.3137  0.5750
 7513TIP3    H143954   0.991   5.527  12.610  0.0603 -0.2080  0.6315
 7513TIP3    H243955   1.095   5.545  12.719  0.9563 -0.5393 -0.1593
 7514TIP3   OH243956   3.969   1.153   0.484 -0.2847 -0.0545  0.0637
 7514TIP3    H143957   3.971   1.193   0.397 -1.7141  1.6459  0.7592
 7514TIP3    H243958   4.059   1.161   0.516  0.4831 -1.5329 -1.5577
 7515TIP3   OH243959   2.667   5.035   0.899 -0.6555  0.2943 -0.1116
 7515TIP3    H143960   2.696   5.005   0.812 -4.2491  1.4889 -1.9159
 7515TIP3    H243961   2.637   4.955   0.942  3.4599 -0.7583  1.2985
 7516TIP3   OH243962   4.350   6.080   1.872  0.0275 -0.2583 -0.0384
 7516TIP3    H143963   4.429   6.101   1.823  1.2420 -1.8950  1.0829
 7516TIP3    H243964   4.343   5.984   1.866 -1.6350 -0.1924  0.2658
 7517TIP3   OH243965   1.605   1.417   4.003  0.1619  0.4904  0.4623
 7517TIP3    H143966   1.551   1.397   3.927 -0.6753  0.0532  1.1409
 7517TIP3    H243967   1.687   1.369   3.989  0.6661  1.7063 -0.9037
 7518TIP3   OH243968   1.265   6.316  11.787 -0.2480  0.8211 -0.2085
 7518TIP3    H143969   1.181   6.343  11.750 -0.5484  0.6324  0.3103
 7518TIP3    H243970   1.299   6.395  11.828 -0.0735  0.9481 -0.5977
 7519TIP3   OH243971   5.377   2.864  13.720 -0.4473 -0.5322  0.4033
 7519TIP3    H143972   5.404   2.848  13.811 -1.3990 -0.9090  0.6327
 7519TIP3    H243973   5.351   2.778  13.687  0.3974 -0.4902 -0.4122
 7520TIP3   OH243974   5.142   5.717  16.436 -0.1523 -0.3690  0.1334
 7520TIP3    H143975   5.089   5.753  16.507  0.4066  0.3190  0.2219
 7520TIP3    H243976   5.162   5.627  16.463  3.6255  1.0729  3.0509
 7521TIP3   OH243977   1.866   1.228   2.072 -0.0551  0.2937  0.4296
 7521TIP3    H143978   1.811   1.212   2.149 -1.3488  1.4289 -0.2126
 7521TIP3    H243979   1.954   1.237   2.107 -0.0134 -2.7726  1.3735
 7522TIP3   OH243980   5.252   4.134   3.731 -0.0782  0.1148 -0.4837
 7522TIP3    H143981   5.205   4.218   3.732 -3.0910 -1.4090 -0.7859
 7522TIP3    H243982   5.265   4.113   3.824 -2.4598 -0.5678 -0.2200
 7523TIP3   OH243983   3.667   0.058   4.699  0.1270  0.0995  0.0127
 7523TIP3    H143984   3.578   0.093   4.707  0.1580  0.0804  0.4429
 7523TIP3    H243985   3.722   0.123   4.742  0.3240  0.1021 -0.2372
 7524TIP3   OH243986   2.524   1.884   0.698 -0.2385  0.5785  0.3362
 7524TIP3    H143987   2.482   1.800   0.717 -1.4394  0.0775 -3.6172
 7524TIP3    H243988   2.617   1.868   0.714 -0.4566 -1.5176 -0.1254
 7525TIP3   OH243989   0.232   0.436  15.718  0.5944 -0.4479 -0.1491
 7525TIP3    H143990   0.237   0.469  15.808 -0.5158  0.3731 -0.3688
 7525TIP3    H243991   0.269   0.507  15.665 -0.8066  0.0207 -0.5283
 7526TIP3   OH243992   1.391   2.004   5.215 -0.0059  0.4246  0.1263
 7526TIP3    H143993   1.416   2.091   5.184  1.0666  0.4362  0.9521
 7526TIP3    H243994   1.453   1.944   5.174  0.2118  0.2332  0.7126
 7527TIP3   OH243995   6.637   2.088   1.446  0.3141  0.2506 -0.7213
 7527TIP3    H143996   6.678   2.129   1.523  0.9448  1.5642 -1.7156
 7527TIP3    H243997   6.566   2.035   1.482  2.3382 -1.4642  1.0028
 7528TIP3   OH243998   4.591   0.113   4.093  0.1584  0.1684 -0.3221
 7528TIP3    H143999   4.545   0.183   4.140  1.3212  0.4492  0.4579
 7528TIP3    H244000   4.547   0.033   4.120  0.9367  0.2949  1.5143
 7529TIP3   OH244001   3.206   1.300  10.992  0.4520 -0.3006  0.2027
 7529TIP3    H144002   3.120   1.327  10.958  0.0388 -0.2491  1.2525
 7529TIP3    H244003   3.238   1.237  10.927 -0.5760 -0.6389 -0.0026
 7530TIP3   OH244004   1.460   3.276  11.891  0.1120 -0.5985 -0.1920
 7530TIP3    H144005   1.459   3.267  11.986 -0.4072 -0.3308 -0.1706
 7530TIP3    H244006   1.377   3.318  11.870  1.2832  1.7291 -0.5409
 7531TIP3   OH244007   0.241   5.035   3.888 -0.3200 -0.0381 -0.0444
 7531TIP3    H144008   0.320   5.010   3.839 -0.2131  0.0091  0.1034
 7531TIP3    H244009   0.189   5.085   3.826  0.1512  0.6557  0.1066
 7532TIP3   OH244010   3.761   0.828   5.231 -0.2482  0.5021  0.9454
 7532TIP3    H144011   3.826   0.823   5.161 -0.0655  1.6035  1.0202
 7532TIP3    H244012   3.804   0.791   5.308 -1.4510 -3.7517 -0.1200
 7533TIP3   OH244013   1.711   3.404  16.163 -0.8580 -0.3066  0.3481
 7533TIP3    H144014   1.665   3.323  16.141 -1.0218 -0.4411  1.1462
 7533TIP3    H244015   1.692   3.417  16.256 -0.4462  0.3997  0.3353
 7534TIP3   OH244016   5.536   4.769   0.963  0.1840 -0.2611 -0.2881
 7534TIP3    H144017   5.625   4.738   0.945  0.9531  2.1638 -1.0731
 7534TIP3    H244018   5.507   4.719   1.039  1.7243 -1.9876 -0.7789
 7535TIP3   OH244019   5.086   5.504   4.845 -0.2943 -0.6784  0.2285
 7535TIP3    H144020   5.037   5.578   4.882 -2.2870 -0.5049 -2.4319
 7535TIP3    H244021   5.029   5.428   4.860 -0.1108 -0.9617 -0.4836
 7536TIP3   OH244022   1.214   1.581   1.680  0.0191 -0.2777  0.4603
 7536TIP3    H144023   1.158   1.589   1.758 -0.1260  0.4515  0.2913
 7536TIP3    H244024   1.204   1.665   1.635  0.5489 -0.4824 -0.0489
 7537TIP3   OH244025   0.048   2.459   2.700 -0.0908 -0.3754 -0.2333
 7537TIP3    H144026   0.133   2.431   2.664  0.3466 -0.1225  0.5800
 7537TIP3    H244027   0.071   2.505   2.781 -1.0598 -1.2277  0.5571
 7538TIP3   OH244028   1.657   0.915  11.174  0.0538  0.0737  0.1055
 7538TIP3    H144029   1.584   0.943  11.119  1.5195 -0.1257 -2.0369
 7538TIP3    H244030   1.735   0.928  11.120  1.4723 -1.3013  1.6956
 7539TIP3   OH244031   4.768   5.342  16.190 -0.8027  0.2499 -0.5266
 7539TIP3    H144032   4.724   5.380  16.267 -1.3367  1.4035 -1.3631
 7539TIP3    H244033   4.755   5.407  16.121 -1.1496 -1.1672 -1.8549
 7540TIP3   OH244034   3.591   2.010  16.071 -0.5799  0.1588  0.0194
 7540TIP3    H144035   3.594   2.027  15.977  3.6438 -0.3853 -0.1573
 7540TIP3    H244036   3.581   2.096  16.111  2.5098  1.1610 -1.0344
 7541TIP3   OH244037   5.774   2.928  13.073 -0.3712  0.6680  0.1517
 7541TIP3    H144038   5.847   2.966  13.123  0.2110 -0.3618  0.1191
 7541TIP3    H244039   5.767   2.984  12.996  0.1282  1.0235  0.3534
 7542TIP3   OH244040   6.506   5.591   3.720  0.0187 -0.0021  0.4916
 7542TIP3    H144041   6.432   5.638   3.684 -0.8643 -0.6176  1.4434
 7542TIP3    H244042   6.498   5.601   3.814  1.0376 -0.2533  0.6216
 7543TIP3   OH244043   3.795   4.886   6.244 -0.3083 -0.1341  1.1283
 7543TIP3    H144044   3.763   4.975   6.261  1.4040  0.7698 -0.0273
 7543TIP3    H244045   3.720   4.829   6.265 -1.4805  1.5644  1.8216
 7544TIP3   OH244046   5.758   1.799   0.018 -0.0125  0.1507 -0.2603
 7544TIP3    H144047   5.697   1.742   0.065 -1.2356  2.1288  0.6692
 7544TIP3    H244048   5.709   1.880   0.003  1.4463  0.7749 -2.0910
 7545TIP3   OH244049   1.430   0.401   5.006 -0.6864 -0.4063  0.0589
 7545TIP3    H144050   1.442   0.422   5.099 -1.6373  3.4168 -0.5165
 7545TIP3    H244051   1.337   0.413   4.991 -0.4710 -0.5233 -1.5004
 7546TIP3   OH244052   0.952   0.034   1.500 -0.3994  0.2370 -0.4598
 7546TIP3    H144053   0.962   0.070   1.588 -0.3426 -2.9266  0.9405
 7546TIP3    H244054   0.862   0.056   1.475 -0.9761 -0.2199  1.1098
 7547TIP3   OH244055   5.597   4.932  10.624  0.3402 -0.5135  0.0612
 7547TIP3    H144056   5.578   5.005  10.566  0.3448 -0.5347  0.0331
 7547TIP3    H244057   5.613   4.973  10.709 -0.0842 -0.5181  0.1443
 7548TIP3   OH244058   1.980   5.120   2.097 -0.5987 -0.7929 -0.1862
 7548TIP3    H144059   1.987   5.110   2.192 -1.5425 -2.2102 -0.2337
 7548TIP3    H244060   1.922   5.195   2.086 -0.8545 -0.8964  0.3808
 7549TIP3   OH244061   4.249   4.973   1.810  0.7817 -0.2565  0.1793
 7549TIP3    H144062   4.258   4.900   1.870 -0.9571 -0.2023  0.5691
 7549TIP3    H244063   4.175   4.949   1.754 -0.3418  1.4797  0.8128
 7550TIP3   OH244064   5.793   2.989  15.463 -0.1744  0.0220 -0.0135
 7550TIP3    H144065   5.884   3.002  15.490 -0.4467  0.0624  0.9349
 7550TIP3    H244066   5.750   3.072  15.482 -0.4931 -0.1212 -0.1031
 7551TIP3   OH244067   4.467   6.383   2.986 -0.1844 -0.1002  0.4482
 7551TIP3    H144068   4.457   6.404   2.894 -1.3685  0.8703  0.7727
 7551TIP3    H244069   4.561   6.375   2.999  0.1027  1.3915 -0.5005
 7552TIP3   OH244070   3.565   5.313  13.840  0.1000  0.1704 -1.3472
 7552TIP3    H144071   3.587   5.285  13.752  0.2742 -2.3907 -0.5830
 7552TIP3    H244072   3.492   5.256  13.866 -0.1407  1.0587  0.0505
 7553TIP3   OH244073   2.934   6.146   2.986  0.2637  0.1189  0.0890
 7553TIP3    H144074   2.957   6.098   3.066  0.5826  0.7774  0.4019
 7553TIP3    H244075   2.840   6.162   2.994 -0.3934 -2.5080 -1.1546
 7554TIP3   OH244076   2.095   6.141   0.034 -0.4360  0.3833  0.2051
 7554TIP3    H144077   2.010   6.134   0.076  0.1935  0.4687  1.5428
 7554TIP3    H244078   2.075   6.149  -0.059 -2.0038  2.6999  0.6583
 7555TIP3   OH244079   4.551   4.704   0.138  0.6511  0.4414  0.2639
 7555TIP3    H144080   4.607   4.778   0.114  1.7826 -0.7763 -0.9964
 7555TIP3    H244081   4.548   4.649   0.060 -3.5322  1.0800 -0.2787
 7556TIP3   OH244082   3.656   0.856  11.276  0.3802  0.2280  0.7534
 7556TIP3    H144083   3.720   0.792  11.246 -2.6468 -1.9731 -1.6104
 7556TIP3    H244084   3.677   0.935  11.226  1.0812 -0.5397 -0.2254
 7557TIP3   OH244085   3.408   2.080   4.848  0.5028 -0.4518 -0.1139
 7557TIP3    H144086   3.502   2.077   4.829  0.7479 -1.8465  1.1758
 7557TIP3    H244087   3.401   2.134   4.926  0.1681  0.0194 -0.4640
 7558TIP3   OH244088   5.485   5.305   5.238 -0.8229 -0.5370  0.1236
 7558TIP3    H144089   5.437   5.345   5.310 -0.9820 -1.3053  0.4580
 7558TIP3    H244090   5.453   5.350   5.159 -0.6023  0.3451  0.5289
 7559TIP3   OH244091   0.086   3.349  15.774 -0.2430 -0.1124 -0.1082
 7559TIP3    H144092   0.116   3.438  15.755  0.7651 -0.5953 -0.8884
 7559TIP3    H244093  -0.009   3.358  15.786  0.0726  1.3313  1.6413
 7560TIP3   OH244094   0.185   5.332  11.741  0.3394  0.1853 -0.2315
 7560TIP3    H144095   0.186   5.369  11.653 -0.9052 -0.5441 -0.5868
 7560TIP3    H244096   0.110   5.373  11.784 -1.1074 -1.8425 -0.6507
 7561TIP3   OH244097   1.215   1.736  12.345  0.2115 -0.4863 -0.2992
 7561TIP3    H144098   1.210   1.727  12.250  0.7361 -0.7218 -0.3108
 7561TIP3    H244099   1.131   1.772  12.371 -0.2788 -1.2952 -0.7475
 7562TIP3   OH244100   3.325   5.554   2.386 -0.3975  0.4996  0.2279
 7562TIP3    H144101   3.255   5.497   2.354 -0.3106  1.0211 -0.9519
 7562TIP3    H244102   3.330   5.536   2.480 -1.5821 -0.1151  0.1903
 7563TIP3   OH244103   0.162   1.934   2.240 -0.1581 -0.2905 -0.0881
 7563TIP3    H144104   0.169   1.844   2.208  0.6057 -0.5061  0.6344
 7563TIP3    H244105   0.186   1.928   2.332  0.5480  0.7535 -0.1926
 7564TIP3   OH244106   4.548   5.144   3.601  0.0627  0.4836 -0.1996
 7564TIP3    H144107   4.571   5.187   3.518 -1.4230  0.7599 -0.5017
 7564TIP3    H244108   4.472   5.193   3.632 -0.3845 -0.6436  0.5083
 7565TIP3   OH244109   5.192   3.809  15.141 -1.2269  0.2223 -0.0257
 7565TIP3    H144110   5.180   3.904  15.144 -1.0186  0.2277  0.7960
 7565TIP3    H244111   5.248   3.789  15.217  1.2209 -0.1959 -1.8081
 7566TIP3   OH244112   1.517   0.910   6.972 -0.0734 -0.0858 -0.0375
 7566TIP3    H144113   1.539   0.990   6.925 -2.4591 -0.1694 -1.4727
 7566TIP3    H244114   1.497   0.846   6.904 -0.8883 -1.0728  1.0672
 7567TIP3   OH244115   2.796   0.858   3.865 -0.1709 -0.2895 -0.0622
 7567TIP3    H144116   2.845   0.849   3.784 -2.3050  0.7298 -1.5757
 7567TIP3    H244117   2.810   0.949   3.892  0.3610 -0.5647  0.6064
 7568TIP3   OH244118   4.627   6.023  13.777 -0.2688  0.1039  0.0530
 7568TIP3    H144119   4.683   6.092  13.812 -0.1811 -0.0528  0.2285
 7568TIP3    H244120   4.689   5.959  13.740 -0.3795  0.5244 -0.8748
 7569TIP3   OH244121   0.925   2.312  15.294  0.0321 -0.0490 -0.1536
 7569TIP3    H144122   0.902   2.404  15.277 -0.4096 -0.1683 -0.2166
 7569TIP3    H244123   1.000   2.316  15.353  1.7033  0.4003 -2.1643
 7570TIP3   OH244124   6.625   6.345  12.472  0.5077 -0.3296  0.3702
 7570TIP3    H144125   6.694   6.284  12.497 -0.0050 -1.2452 -0.4112
 7570TIP3    H244126   6.557   6.290  12.433 -1.6028  0.2531  2.9302
 7571TIP3   OH244127   4.327   1.343   5.228  0.6990  0.1160 -0.7633
 7571TIP3    H144128   4.294   1.284   5.160  1.8777 -0.9080 -0.4827
 7571TIP3    H244129   4.422   1.342   5.216  0.8625  0.5041  0.4374
 7572TIP3   OH244130   2.949   2.910  15.047 -0.1749  0.3409  0.1249
 7572TIP3    H144131   2.981   2.946  15.130 -1.3526  0.2374  0.6378
 7572TIP3    H244132   3.004   2.833  15.032 -0.3455  0.0051  1.1225
 7573TIP3   OH244133   4.994   6.141  12.350 -0.0849  0.1874 -0.7790
 7573TIP3    H144134   5.086   6.155  12.330 -0.2529  0.9065 -1.0768
 7573TIP3    H244135   4.965   6.076  12.285 -0.1550  1.0842 -1.6629
 7574TIP3   OH244136   0.785   3.672   1.556 -0.0443 -0.1941 -0.6533
 7574TIP3    H144137   0.690   3.673   1.570  0.0550  1.8387  0.1473
 7574TIP3    H244138   0.802   3.752   1.506  1.3390 -0.0790 -0.0276
 7575TIP3   OH244139   4.529   0.488   2.069  0.0085  0.3161 -0.6806
 7575TIP3    H144140   4.553   0.546   1.997  0.4207  0.3855 -0.4876
 7575TIP3    H244141   4.590   0.414   2.061  0.3208  0.5142 -0.1609
 7576TIP3   OH244142   3.488   3.156   4.908 -0.2078 -0.2140  0.4068
 7576TIP3    H144143   3.536   3.161   4.825  0.5595  0.9403  0.8994
 7576TIP3    H244144   3.483   3.063   4.927 -0.4588 -0.5017 -0.9727
 7577TIP3   OH244145   2.536   6.021  12.400 -0.2252 -0.2308 -0.1250
 7577TIP3    H144146   2.494   5.958  12.341 -1.5106  1.1437 -0.7466
 7577TIP3    H244147   2.620   6.041  12.358 -1.0029  0.5122 -1.3697
 7578TIP3   OH244148   5.642   2.521   1.023  0.0716 -0.4940 -0.3169
 7578TIP3    H144149   5.718   2.536   0.967 -0.4886 -3.6122 -2.1719
 7578TIP3    H244150   5.569   2.513   0.962 -1.0205 -1.5558  1.0650
 7579TIP3   OH244151   1.846   2.433  14.368 -0.2463 -0.1198  0.0961
 7579TIP3    H144152   1.769   2.465  14.322  0.6642  2.0177 -0.0592
 7579TIP3    H244153   1.862   2.346  14.332 -2.0057 -0.2089 -0.5460
 7580TIP3   OH244154   0.439   4.925   3.707 -0.1704 -0.3962 -0.5470
 7580TIP3    H144155   0.529   4.953   3.724 -0.9240  1.1080  1.3503
 7580TIP3    H244156   0.441   4.830   3.720  0.7756 -0.1474  1.4988
 7581TIP3   OH244157   0.991   0.417  15.390  0.0249  0.0942  0.8066
 7581TIP3    H144158   1.074   0.455  15.359 -0.0163 -0.0383  0.5274
 7581TIP3    H244159   0.951   0.380  15.311 -0.1535 -0.1208  0.9964
 7582TIP3   OH244160   2.109   2.667  13.397  0.0935  0.3306 -0.1014
 7582TIP3    H144161   2.054   2.605  13.349  0.1603 -0.9968  1.4655
 7582TIP3    H244162   2.090   2.752  13.357 -3.3372  0.0055  0.5199
 7583TIP3   OH244163   4.617   5.553  16.061 -0.2102 -0.0235 -0.1446
 7583TIP3    H144164   4.547   5.589  16.006 -0.3715  1.7986  1.1549
 7583TIP3    H244165   4.584   5.467  16.088 -2.4743  1.1602  1.2020
 7584TIP3   OH244166   2.320   5.127  16.257 -0.2918 -0.1594 -0.0705
 7584TIP3    H144167   2.378   5.202  16.245 -2.1038  1.2440 -0.4116
 7584TIP3    H244168   2.362   5.076  16.326  3.3752 -1.3402 -2.8259
 7585TIP3   OH244169   5.864   2.013  11.233  0.3156  0.4076  0.2730
 7585TIP3    H144170   5.802   1.952  11.194  0.1134  0.5965  0.2927
 7585TIP3    H244171   5.830   2.100  11.208  0.1159  0.5351  0.9643
 7586TIP3   OH244172   3.000   2.918  13.604 -0.3969  0.4207  0.1839
 7586TIP3    H144173   2.937   2.980  13.568 -2.0581 -0.4797  1.4118
 7586TIP3    H244174   2.947   2.853  13.650  1.3374 -1.3539 -0.1686
 7587TIP3   OH244175   2.871   1.116   3.453  0.2658  0.2594  0.1995
 7587TIP3    H144176   2.893   1.177   3.523  0.2575  1.9033 -1.1613
 7587TIP3    H244177   2.783   1.141   3.426  0.5402  0.1369 -0.8564
 7588TIP3   OH244178   0.752   5.285   1.959  0.2816 -0.4485 -0.1859
 7588TIP3    H144179   0.767   5.379   1.963 -1.9261 -0.0544  0.7611
 7588TIP3    H244180   0.680   5.275   1.896 -0.4276 -1.3195  0.7164
 7589TIP3   OH244181   6.105   2.619  11.773  0.5720  0.3505  0.4229
 7589TIP3    H144182   6.095   2.528  11.801 -0.9038  0.5408  0.5928
 7589TIP3    H244183   6.174   2.654  11.829  1.1449 -0.6437  0.3719
 7590TIP3   OH244184   0.204   4.987   2.188 -0.4776 -0.1914  0.2947
 7590TIP3    H144185   0.156   5.067   2.167 -0.2315 -0.1467 -0.1119
 7590TIP3    H244186   0.232   4.953   2.103 -0.1031 -0.4089  0.5027
 7591TIP3   OH244187   4.799   1.912  11.243 -0.1178 -0.9874 -0.1221
 7591TIP3    H144188   4.860   1.839  11.252 -0.5205 -1.2207  0.9271
 7591TIP3    H244189   4.748   1.892  11.165 -0.0142 -1.6752 -0.0175
 7592TIP3   OH244190   0.186   4.790   2.370 -0.0763 -0.0913 -0.0786
 7592TIP3    H144191   0.198   4.857   2.302  2.7407  1.5242  1.7917
 7592TIP3    H244192   0.204   4.836   2.452 -1.0022 -2.5090  1.5917
 7593TIP3   OH244193   2.762   1.232   3.124 -0.5835  0.0609 -0.1498
 7593TIP3    H144194   2.741   1.230   3.031  1.4513  2.1008 -0.7314
 7593TIP3    H244195   2.856   1.218   3.128 -0.3314  1.7555  1.4039
 7594TIP3   OH244196   3.544   2.103   3.182 -0.0296 -0.3377 -0.7282
 7594TIP3    H144197   3.606   2.146   3.240 -1.9505  0.1662  1.0550
 7594TIP3    H244198   3.553   2.010   3.203 -0.2760 -0.2160 -0.0629
 7595TIP3   OH244199   6.239   3.265   2.276  0.3553 -0.0339 -0.3860
 7595TIP3    H144200   6.207   3.225   2.195  1.6105 -0.0715 -0.8994
 7595TIP3    H244201   6.174   3.242   2.342 -0.0290 -1.1348 -1.1192
 7596TIP3   OH244202   2.090   3.177   0.528  0.1964  0.8020  0.1999
 7596TIP3    H144203   2.131   3.247   0.580  2.1075  0.7007 -1.0904
 7596TIP3    H244204   2.152   3.104   0.533 -0.1862  0.3609 -1.1833
 7597TIP3   OH244205   4.447   2.217  13.740  0.0294  0.8154 -0.0161
 7597TIP3    H144206   4.445   2.136  13.689 -0.8933  1.0012 -0.3026
 7597TIP3    H244207   4.357   2.249  13.736 -0.1634  0.6619  2.0231
 7598TIP3   OH244208   1.555   6.533   1.652 -0.0788 -0.2519  0.1374
 7598TIP3    H144209   1.471   6.578   1.644  0.0057 -0.2858 -1.3276
 7598TIP3    H244210   1.605   6.564   1.576  0.8439 -1.0313  0.4128
 7599TIP3   OH244211   4.926   6.565   0.258  0.0574 -0.2181  0.0518
 7599TIP3    H144212   4.858   6.632   0.263 -0.1971 -0.1930 -2.3998
 7599TIP3    H244213   4.890   6.491   0.307 -0.8871  0.4658  0.4206
 7600TIP3   OH244214   5.513   1.811  16.120 -0.0193 -0.3022  0.3728
 7600TIP3    H144215   5.529   1.859  16.201  1.2738 -0.6716  0.3563
 7600TIP3    H244216   5.595   1.819  16.071 -0.9086  0.2560 -1.0896
 7601TIP3   OH244217   1.444   5.812  13.800  0.0084  0.0250 -0.1749
 7601TIP3    H144218   1.475   5.844  13.715  0.4944  1.8835  0.6504
 7601TIP3    H244219   1.506   5.743  13.824 -0.2007 -0.6073 -1.3503
 7602TIP3   OH244220   3.195   1.809  12.605 -0.5057 -0.6405 -0.5864
 7602TIP3    H144221   3.191   1.861  12.685 -1.0377 -0.9240 -0.4277
 7602TIP3    H244222   3.238   1.867  12.541  0.0968 -0.4819 -0.0536
 7603TIP3   OH244223   0.293   1.353   2.614  0.1449  0.0916 -0.3270
 7603TIP3    H144224   0.340   1.319   2.690  0.7781 -0.9465 -1.1663
 7603TIP3    H244225   0.275   1.277   2.560 -0.5081  0.7840 -1.1167
 7604TIP3   OH244226   0.343   2.924   0.796 -0.2064  0.0211  0.2273
 7604TIP3    H144227   0.320   2.981   0.869 -0.9279 -1.8583  1.5361
 7604TIP3    H244228   0.259   2.904   0.754  0.1495  0.6923 -0.8669
 7605TIP3   OH244229   4.139   6.465   1.113  0.1410  0.3685  0.7075
 7605TIP3    H144230   4.142   6.550   1.156 -2.5430  0.3402  1.1085
 7605TIP3    H244231   4.046   6.443   1.108  0.4921 -1.0774 -2.3199
 7606TIP3   OH244232   2.446   1.824  12.720 -0.5560  0.0883 -0.4700
 7606TIP3    H144233   2.481   1.899  12.768  1.6069 -2.1367  1.6667
 7606TIP3    H244234   2.501   1.818  12.642 -1.4274  1.2893 -1.2073
 7607TIP3   OH244235   1.492   6.530  14.911  0.3247  0.6524  0.1329
 7607TIP3    H144236   1.555   6.602  14.907  0.9492  0.1109  0.2509
 7607TIP3    H244237   1.498   6.497  15.000  0.0775  0.4127  0.0620
 7608TIP3   OH244238   2.300   6.341   0.003  0.4227  0.1151 -0.1023
 7608TIP3    H144239   2.288   6.248  -0.017  1.5525 -0.2225  0.6681
 7608TIP3    H244240   2.312   6.383  -0.082 -1.8114 -0.1442 -0.5926
 7609TIP3   OH244241   0.563   6.680   2.719  0.4615  0.2536  0.3396
 7609TIP3    H144242   0.638   6.735   2.743 -0.0079  0.5666  1.1485
 7609TIP3    H244243   0.505   6.684   2.796  1.4193 -3.2023  1.4408
 7610TIP3   OH244244   1.375   5.219   5.174 -0.1027 -0.1944  0.0743
 7610TIP3    H144245   1.348   5.250   5.260 -0.5813 -1.8788  0.5702
 7610TIP3    H244246   1.346   5.288   5.114 -1.9819 -0.1109  1.0090
 7611TIP3   OH244247   3.090   0.329   5.732  0.0435 -0.3473  0.5354
 7611TIP3    H144248   3.022   0.329   5.665 -0.1542 -1.8463  0.7017
 7611TIP3    H244249   3.168   0.361   5.687 -0.1025 -1.2571 -0.4128
 7612TIP3   OH244250   2.192   5.864   2.272 -0.2211 -0.6060 -0.0513
 7612TIP3    H144251   2.248   5.839   2.345 -0.2069 -1.7617 -0.4273
 7612TIP3    H244252   2.227   5.815   2.197  0.1268  0.9735 -0.9802
 7613TIP3   OH244253   1.273   0.193   1.912  0.1321 -0.1851  0.0129
 7613TIP3    H144254   1.279   0.237   1.827 -0.2326  0.3852  0.2767
 7613TIP3    H244255   1.288   0.263   1.976 -1.5317 -0.2126  0.4775
 7614TIP3   OH244256   5.590   3.346  16.995  0.1685 -0.3801 -0.5824
 7614TIP3    H144257   5.623   3.256  16.997 -1.7678 -1.1351  1.8374
 7614TIP3    H244258   5.610   3.381  17.082  0.2216  1.3312 -1.2304
 7615TIP3   OH244259   2.370   1.790  11.236 -0.2902  0.3863  0.2195
 7615TIP3    H144260   2.350   1.697  11.220  0.6819  0.1842  0.1066
 7615TIP3    H244261   2.300   1.820  11.294 -1.3355 -0.0731 -0.7705
 7616TIP3   OH244262   3.789   0.650   0.115  0.0860  0.4816 -0.1129
 7616TIP3    H144263   3.695   0.655   0.094 -0.1502 -1.6932  0.1526
 7616TIP3    H244264   3.792   0.653   0.211  0.5286  2.8325 -0.1479
 7617TIP3   OH244265   5.950   5.094   1.702 -0.1214  0.3093  0.0045
 7617TIP3    H144266   5.951   5.154   1.777  0.3771 -0.4619  0.6470
 7617TIP3    H244267   5.911   5.144   1.631  1.3372  1.7804  0.1861
 7618TIP3   OH244268   6.357   0.264   3.293  0.1171 -0.0353  0.1369
 7618TIP3    H144269   6.321   0.194   3.238 -1.6432  0.7937  0.1533
 7618TIP3    H244270   6.449   0.241   3.304  0.2108 -0.9574 -2.0088
 7619TIP3   OH244271   1.502   6.090  16.584 -0.1400  0.4052  0.3652
 7619TIP3    H144272   1.455   6.154  16.638  0.3254 -0.3748  1.7603
 7619TIP3    H244273   1.454   6.089  16.501 -1.7375  0.6563  1.2337
 7620TIP3   OH244274   5.607   2.806   1.857 -0.2475 -0.4258  0.0670
 7620TIP3    H144275   5.580   2.834   1.769  1.8115  2.5510  0.2431
 7620TIP3    H244276   5.530   2.762   1.892 -1.9625  0.3934 -2.3506
 7621TIP3   OH244277   3.748   5.703   5.433  0.3161  0.6060  0.5188
 7621TIP3    H144278   3.711   5.783   5.396 -1.4544 -0.9452 -1.3759
 7621TIP3    H244279   3.824   5.684   5.377 -0.2692  0.1142 -0.1294
 7622TIP3   OH244280   5.506   1.761   1.717 -0.3498 -0.0331 -0.4363
 7622TIP3    H144281   5.492   1.821   1.643 -4.0541 -2.4869 -2.0374
 7622TIP3    H244282   5.447   1.793   1.785  0.0426 -0.0818 -0.0673
 7623TIP3   OH244283   1.685   6.433  11.278 -0.2531 -0.5011 -0.3144
 7623TIP3    H144284   1.758   6.479  11.319  0.2894 -1.3540 -0.2902
 7623TIP3    H244285   1.683   6.465  11.188 -0.8460  0.6778  0.1067
 7624TIP3   OH244286   2.927   1.135  14.701  0.1370 -0.1832  0.0132
 7624TIP3    H144287   2.905   1.227  14.711 -0.8346 -0.4940  0.9693
 7624TIP3    H244288   2.864   1.102  14.637 -0.5202 -0.5016  0.8037
 7625TIP3   OH244289   4.217   6.660   4.407 -0.1254  0.3411 -0.0396
 7625TIP3    H144290   4.130   6.683   4.439 -0.4414 -0.5370 -0.2190
 7625TIP3    H244291   4.217   6.564   4.407  1.2272  0.3212  0.9603
 7626TIP3   OH244292   1.271   6.409  14.785  0.3135 -0.2898  0.7772
 7626TIP3    H144293   1.314   6.328  14.757  1.0819  0.8747 -1.7000
 7626TIP3    H244294   1.343   6.467  14.808 -0.0875  0.4997  0.0799
 7627TIP3   OH244295   0.964   3.282  14.064 -0.0496  0.0217 -0.1453
 7627TIP3    H144296   1.041   3.338  14.048 -1.8624  2.8825  0.3563
 7627TIP3    H244297   0.936   3.255  13.976  0.1092  1.0938 -0.5545
 7628TIP3   OH244298   0.499   1.015   4.812  0.6432 -0.5853  0.0952
 7628TIP3    H144299   0.550   1.096   4.808  0.0467 -0.2475 -1.1518
 7628TIP3    H244300   0.516   0.980   4.900  0.0293  1.4617  1.0784
 7629TIP3   OH244301   1.538   1.237  14.016 -0.9189 -0.1211  0.1369
 7629TIP3    H144302   1.519   1.292  14.092  4.9749  2.3469  0.3977
 7629TIP3    H244303   1.481   1.271  13.947 -1.6876  2.2767  1.8071
 7630TIP3   OH244304   1.432   0.552  17.173  0.0335  0.5863  0.5080
 7630TIP3    H144305   1.409   0.461  17.156  0.3833  0.4954  0.5031
 7630TIP3    H244306   1.397   0.600  17.097 -1.0047  0.6010  0.9784
 7631TIP3   OH244307   3.443   3.497  11.812  0.1779 -0.2593 -0.5960
 7631TIP3    H144308   3.425   3.561  11.881  1.5111 -1.5516  1.0459
 7631TIP3    H244309   3.537   3.502  11.799  0.1625 -1.2163 -1.1259
 7632TIP3   OH244310   4.392   0.742   4.073 -0.6314 -0.0927 -0.0057
 7632TIP3    H144311   4.342   0.712   4.149 -0.7317 -0.6536 -0.2932
 7632TIP3    H244312   4.396   0.667   4.015 -0.0116  0.1475 -0.2837
 7633TIP3   OH244313   2.510   4.955  16.424  0.0838  0.0379  0.1129
 7633TIP3    H144314   2.546   4.868  16.405 -1.0081 -0.5444  0.6526
 7633TIP3    H244315   2.586   5.013  16.421  1.0242 -1.1133  0.9378
 7634TIP3   OH244316   0.775   6.660   5.258 -0.3150 -0.3275 -0.1267
 7634TIP3    H144317   0.858   6.631   5.295 -0.4977  0.3593  0.8666
 7634TIP3    H244318   0.711   6.644   5.327 -0.8086  0.2031 -0.4490
 7635TIP3   OH244319   1.320   0.112  16.575 -0.0322 -0.5185 -0.3107
 7635TIP3    H144320   1.324   0.208  16.581 -1.3082 -0.3411 -1.7983
 7635TIP3    H244321   1.228   0.091  16.591  0.2779 -1.5414  0.2409
 7636TIP3   OH244322   2.543   6.533   1.226 -0.2455 -0.0272 -0.0360
 7636TIP3    H144323   2.470   6.471   1.219 -0.5582  0.2855  0.3607
 7636TIP3    H244324   2.606   6.490   1.283  0.3331 -0.7132 -1.1459
 7637TIP3   OH244325   2.823   0.354  12.308 -0.5647 -0.1382  0.5443
 7637TIP3    H144326   2.820   0.447  12.331 -0.7551 -0.1117  0.4164
 7637TIP3    H244327   2.871   0.352  12.226 -2.2526  0.0675 -0.5071
 7638TIP3   OH244328   0.829   0.525   5.834  0.8253 -0.2605  0.1293
 7638TIP3    H144329   0.862   0.516   5.744  0.5548 -1.4234  0.1300
 7638TIP3    H244330   0.900   0.567   5.882  1.0397  0.2121 -0.5911
 7639TIP3   OH244331   4.756   1.282   4.763 -0.3368  0.2246  0.3004
 7639TIP3    H144332   4.734   1.365   4.720  1.3207  1.7485  2.1740
 7639TIP3    H244333   4.692   1.274   4.833 -1.3676 -0.8609 -0.7277
 7640TIP3   OH244334   3.450   5.495   1.445 -0.3952 -0.4039  0.4289
 7640TIP3    H144335   3.475   5.406   1.419 -0.1236  0.3951 -2.3536
 7640TIP3    H244336   3.425   5.487   1.537  0.7609 -3.1113  0.5942
 7641TIP3   OH244337   5.435   5.794   3.161  0.3619 -0.0850 -0.1594
 7641TIP3    H144338   5.500   5.734   3.125  1.6496  0.6747  0.8448
 7641TIP3    H244339   5.376   5.737   3.211  3.1015 -0.3923  3.0660
 7642TIP3   OH244340   3.311   0.664  11.720 -0.2074 -0.2946 -0.0094
 7642TIP3    H144341   3.376   0.620  11.666  0.6203  1.6207 -0.6565
 7642TIP3    H244342   3.233   0.609  11.714  0.4868 -1.1617 -1.5273
 7643TIP3   OH244343   2.345   2.833  12.733  0.3707  0.1328 -0.2597
 7643TIP3    H144344   2.289   2.757  12.743 -1.3005  1.3775  0.3635
 7643TIP3    H244345   2.390   2.820  12.649 -0.0644 -1.3784 -0.2857
 7644TIP3   OH244346   1.911   0.997   3.630  0.0509  0.1483  0.3854
 7644TIP3    H144347   1.909   0.907   3.661 -2.1781  0.4247  1.2628
 7644TIP3    H244348   1.981   1.038   3.681 -0.4627 -0.5579  1.7219
 7645TIP3   OH244349   3.403   6.419  15.218  0.0398 -0.2829  0.0390
 7645TIP3    H144350   3.462   6.344  15.224 -0.5740 -0.8191 -0.5755
 7645TIP3    H244351   3.368   6.416  15.129 -1.0143 -0.0504  0.4279
 7646TIP3   OH244352   5.179   2.646   4.712  0.1785  0.7284  0.1658
 7646TIP3    H144353   5.134   2.664   4.795  0.4218 -1.4664  0.8629
 7646TIP3    H244354   5.166   2.724   4.659 -2.4385  1.0929  1.2072
 7647TIP3   OH244355   0.724   3.204  14.628 -0.2622  0.5069  0.3387
 7647TIP3    H144356   0.738   3.149  14.705 -0.6743 -0.8778 -0.5563
 7647TIP3    H244357   0.693   3.287  14.665  2.2645  0.9099  1.8311
 7648TIP3   OH244358   4.169   0.914  13.220  0.8265 -0.2165  0.3061
 7648TIP3    H144359   4.134   0.858  13.289  0.6383  1.1345  1.3299
 7648TIP3    H244360   4.153   1.003  13.250 -0.6232  0.4358 -2.1511
 7649TIP3   OH244361   3.378   1.009  11.198  0.6431 -0.1166  0.1287
 7649TIP3    H144362   3.460   1.053  11.178  0.9999 -0.8577 -0.0682
 7649TIP3    H244363   3.354   1.042  11.285 -0.0035  1.7605 -0.7054
 7650TIP3   OH244364   2.669   0.894  13.263 -0.0649  0.9354 -0.6359
 7650TIP3    H144365   2.632   0.816  13.305 -0.7569  1.9548  0.7300
 7650TIP3    H244366   2.638   0.889  13.172  1.2385 -1.1790 -1.0386
 7651TIP3   OH244367   6.200   3.859  13.284  0.5168 -0.4437 -0.1202
 7651TIP3    H144368   6.241   3.831  13.366 -1.4128  1.5677  1.6552
 7651TIP3    H244369   6.221   3.789  13.222  1.2513 -2.5456  2.3186
 7652TIP3   OH244370   1.280   2.262  12.860 -0.0650  0.0060 -0.1111
 7652TIP3    H144371   1.285   2.173  12.824 -3.0833 -0.5308  0.4837
 7652TIP3    H244372   1.310   2.253  12.951  0.6794 -0.1568 -0.3673
 7653TIP3   OH244373   5.902   4.878  11.142  0.6186  0.4929 -0.0544
 7653TIP3    H144374   5.855   4.850  11.220 -1.4894  0.8834 -1.1034
 7653TIP3    H244375   5.966   4.809  11.126  0.8691  0.2470  1.7961
 7654TIP3   OH244376   5.771   4.969   5.529  0.3775 -0.1597 -0.2808
 7654TIP3    H144377   5.720   5.012   5.460  0.6299 -0.7374 -0.8407
 7654TIP3    H244378   5.767   4.876   5.507 -0.0077 -0.4068  0.8114
 7655TIP3   OH244379   2.593   3.513   6.359 -0.3449 -0.4093  0.5302
 7655TIP3    H144380   2.584   3.551   6.272 -2.5854 -0.2658  0.7769
 7655TIP3    H244381   2.593   3.418   6.343  0.9891 -0.3935  0.2750
 7656TIP3   OH244382   3.626   0.689  16.229  0.2479 -0.3194 -0.2653
 7656TIP3    H144383   3.686   0.759  16.254  0.9869  0.1037 -2.9046
 7656TIP3    H244384   3.680   0.628  16.180 -0.9368 -1.3808 -0.2921
 7657TIP3   OH244385   1.172   1.857   3.763  0.3290  0.5847 -0.0164
 7657TIP3    H144386   1.081   1.871   3.734  0.5094  1.9765  0.0436
 7657TIP3    H244387   1.178   1.762   3.776 -0.3456  0.0968 -2.5919
 7658TIP3   OH244388   4.815   3.834   3.324  0.3215  0.3082  0.1239
 7658TIP3    H144389   4.780   3.869   3.242  1.3990  1.3481  0.0798
 7658TIP3    H244390   4.744   3.780   3.359 -0.0677 -0.3934 -1.6089
 7659TIP3   OH244391   0.030   0.389   0.591 -0.4810 -0.9961  0.3474
 7659TIP3    H144392   0.033   0.385   0.496  2.0427 -0.8161  0.3469
 7659TIP3    H244393   0.068   0.474   0.613  1.2863 -2.0127  1.5076
 7660TIP3   OH244394   3.710   1.186  14.047 -0.2752 -0.0001 -0.3553
 7660TIP3    H144395   3.646   1.238  13.998  0.6961  1.3500 -0.2387
 7660TIP3    H244396   3.662   1.157  14.125 -0.5194  1.6981  0.1547
 7661TIP3   OH244397   6.055   4.068  16.079  0.6324 -0.4268 -0.2746
 7661TIP3    H144398   5.970   4.085  16.120  0.0683 -1.2222 -1.0741
 7661TIP3    H244399   6.095   4.154  16.070 -0.0489 -0.0520  0.2027
 7662TIP3   OH244400   2.106   3.698  11.550  0.4914  0.0270  0.5509
 7662TIP3    H144401   2.112   3.613  11.595  0.8426  0.2552  0.9432
 7662TIP3    H244402   2.158   3.757  11.605  0.4308  0.4444  0.1574
 7663TIP3   OH244403   5.007   6.128  17.227 -0.0946 -0.3512  0.6718
 7663TIP3    H144404   5.063   6.050  17.228  2.4711  1.2799 -1.4703
 7663TIP3    H244405   5.018   6.166  17.314 -1.7794 -2.5263  1.9256
 7664TIP3   OH244406   5.117   6.292  13.002 -0.4170 -0.0521  0.4946
 7664TIP3    H144407   5.080   6.245  12.928  1.4604 -0.4451 -0.2617
 7664TIP3    H244408   5.112   6.385  12.978  1.4655 -0.2331 -0.8493
 7665TIP3   OH244409   3.227   3.593  14.838  0.2246 -0.3912 -0.7010
 7665TIP3    H144410   3.178   3.544  14.772  1.8689 -0.2266 -2.1270
 7665TIP3    H244411   3.319   3.576  14.817  0.9278  3.2004 -1.3150
 7666TIP3   OH244412   3.675   6.694  13.521  0.1582  0.6055  0.0499
 7666TIP3    H144413   3.734   6.688  13.596  1.9245 -1.5260 -1.4230
 7666TIP3    H244414   3.590   6.666  13.556  0.7970  0.2395  1.3949
 7667TIP3   OH244415   3.865   2.094   4.358 -0.2223  0.2740 -0.4176
 7667TIP3    H144416   3.887   2.178   4.398  0.0610  0.1697 -0.3510
 7667TIP3    H244417   3.773   2.081   4.379  0.0126  0.0470  0.5313
 7668TIP3   OH244418   4.487   2.312   2.426 -1.1796 -1.1300 -0.1304
 7668TIP3    H144419   4.418   2.250   2.402 -1.0373 -1.7058  0.8818
 7668TIP3    H244420   4.441   2.387   2.464 -1.2558 -2.1155  1.8985
 7669TIP3   OH244421   6.299   1.120  17.063  0.3794  0.1980  0.1605
 7669TIP3    H144422   6.310   1.122  16.968 -1.0387 -1.6895 -0.1125
 7669TIP3    H244423   6.229   1.055  17.077  1.5675 -0.6608  2.5681
 7670TIP3   OH244424   2.454   1.443   0.237  0.3990  0.2818 -0.6795
 7670TIP3    H144425   2.441   1.374   0.172 -1.8663 -0.5043  0.5056
 7670TIP3    H244426   2.522   1.408   0.296 -1.0528 -1.2422  0.1848
 7671TIP3   OH244427   4.821   6.018  15.203 -0.3304  0.4174 -0.2119
 7671TIP3    H144428   4.792   6.078  15.272 -1.0276  0.6585 -0.7072
 7671TIP3    H244429   4.753   6.023  15.137  0.1120 -0.1585 -0.7192
 7672TIP3   OH244430   4.350   2.487  14.011  0.2105  0.1719  0.1026
 7672TIP3    H144431   4.354   2.393  13.997  1.2077  0.1031  0.7586
 7672TIP3    H244432   4.394   2.525  13.935  0.3651  0.0779  0.1443
 7673TIP3   OH244433   3.712   4.286  15.326 -0.4699  0.1091  0.6313
 7673TIP3    H144434   3.712   4.264  15.233  1.1550 -0.3940  0.7292
 7673TIP3    H244435   3.782   4.349  15.337  0.5302 -1.1367  1.7748
 7674TIP3   OH244436   5.546   0.422  11.823  0.3017  0.4765  0.4004
 7674TIP3    H144437   5.584   0.499  11.865  1.8079 -0.2115  0.3504
 7674TIP3    H244438   5.563   0.434  11.730  1.0835 -0.1971  0.4501
 7675TIP3   OH244439   3.440   1.100  16.814 -0.0659  0.5510  0.1390
 7675TIP3    H144440   3.531   1.077  16.795 -0.3582 -1.8923  1.3404
 7675TIP3    H244441   3.391   1.069  16.738  0.0849  2.0779 -0.6152
 7676TIP3   OH244442   1.016   0.934  11.399 -0.2054  0.3415  0.2667
 7676TIP3    H144443   0.923   0.916  11.386 -0.1604  0.7493 -0.7241
 7676TIP3    H244444   1.061   0.862  11.354 -0.0368 -0.2833  1.4179
 7677TIP3   OH244445   5.948   1.360   6.354  0.1136  0.0884  0.0602
 7677TIP3    H144446   5.930   1.285   6.411 -1.2007 -0.4663 -1.0314
 7677TIP3    H244447   6.041   1.355   6.335 -0.3115 -2.6083 -1.7802
 7678TIP3   OH244448   5.717   1.673  11.532  0.7164  0.2614 -0.0221
 7678TIP3    H144449   5.715   1.657  11.438 -1.4207 -1.1162  0.2066
 7678TIP3    H244450   5.626   1.667  11.560  1.3255  0.3927  2.1942
 7679TIP3   OH244451   3.647   3.961  15.038 -0.3367 -0.5763 -0.1418
 7679TIP3    H144452   3.634   4.054  15.019  1.0103 -0.5455 -1.0591
 7679TIP3    H244453   3.563   3.920  15.017 -0.5321  0.2550 -1.0361
 7680TIP3   OH244454   6.144   0.118   3.861 -0.3756  0.0113  0.1859
 7680TIP3    H144455   6.091   0.040   3.880 -0.2097 -0.0861  0.2521
 7680TIP3    H244456   6.231   0.083   3.840 -0.9060  0.0091 -2.2160
 7681TIP3   OH244457   5.631   2.694   1.264  0.3910 -0.2389  0.8395
 7681TIP3    H144458   5.665   2.627   1.204  1.0915  2.3901 -1.8926
 7681TIP3    H244459   5.709   2.730   1.306 -0.0436 -1.5519  2.9618
 7682TIP3   OH244460   5.899   0.147  15.324  0.3139  0.0440 -0.7818
 7682TIP3    H144461   5.976   0.156  15.380 -0.1058  1.5846 -0.4108
 7682TIP3    H244462   5.853   0.071  15.359  0.5329  0.4333  0.3808
 7683TIP3   OH244463   3.616   4.187   1.633  0.5024  0.1698  0.4343
 7683TIP3    H144464   3.684   4.250   1.605 -0.2808  1.0064  0.3564
 7683TIP3    H244465   3.597   4.137   1.554 -0.4773  1.3781 -0.1318
 7684TIP3   OH244466   4.525   1.470  11.476 -0.0671  0.7356  0.2656
 7684TIP3    H144467   4.593   1.516  11.427 -0.5559  0.9208 -0.2402
 7684TIP3    H244468   4.465   1.438  11.409  0.5287 -1.0963  0.5457
 7685TIP3   OH244469   6.685   5.103  11.712 -0.5104  0.2006  0.0073
 7685TIP3    H144470   6.779   5.094  11.700 -0.7609 -0.5770 -1.6977
 7685TIP3    H244471   6.665   5.193  11.687  0.1296  1.4457  3.4291
 7686TIP3   OH244472   2.817   4.838  15.589 -0.0032  0.0159 -0.3438
 7686TIP3    H144473   2.888   4.897  15.565  2.3668 -2.3352  0.4158
 7686TIP3    H244474   2.781   4.876  15.670  1.4024  0.5066  0.0813
 7687TIP3   OH244475   3.759   3.014  14.871  0.7377  0.4081 -0.4066
 7687TIP3    H144476   3.842   3.020  14.919  0.0451  1.5226  0.7257
 7687TIP3    H244477   3.744   2.921  14.861  2.3190  0.1756 -1.0030
 7688TIP3   OH244478   2.831   1.171   5.275  0.4106  0.1033 -0.2075
 7688TIP3    H144479   2.802   1.116   5.202  0.4265 -0.1472 -0.0289
 7688TIP3    H244480   2.925   1.154   5.283  0.5506  0.6730 -0.5824
 7689TIP3   OH244481   5.257   2.636   2.558 -0.5803 -0.9322  0.0844
 7689TIP3    H144482   5.267   2.550   2.600 -1.5352 -1.0422  0.1026
 7689TIP3    H244483   5.162   2.651   2.555 -0.4132  1.1675  2.2033
 7690TIP3   OH244484   1.264   3.629  14.831  0.1312 -0.0746  0.6826
 7690TIP3    H144485   1.234   3.539  14.842 -1.8828  0.6283  1.3609
 7690TIP3    H244486   1.265   3.642  14.736 -0.1196 -0.6460  0.5964
 7691TIP3   OH244487   4.994   2.656   2.510  0.5024 -0.2747  0.0074
 7691TIP3    H144488   4.942   2.609   2.445 -0.5234  0.7587  0.0492
 7691TIP3    H244489   4.931   2.686   2.575  1.0766  1.3049 -0.1140
 7692TIP3   OH244490   4.292   0.704  12.461 -0.2625 -0.0515  0.1298
 7692TIP3    H144491   4.258   0.693  12.372 -2.2119 -0.3142  0.8500
 7692TIP3    H244492   4.345   0.625  12.476 -0.2291 -0.1893 -0.6605
 7693TIP3   OH244493   0.540   0.898   3.075  0.4647 -0.2448 -0.2258
 7693TIP3    H144494   0.634   0.890   3.094  0.4508  0.0138 -0.0587
 7693TIP3    H244495   0.497   0.864   3.153  0.4026  1.3494  0.4598
 7694TIP3   OH244496   4.375   2.146  16.427 -0.1794  0.3674  0.5754
 7694TIP3    H144497   4.460   2.141  16.471  0.1734  2.6038  0.2586
 7694TIP3    H244498   4.319   2.086  16.477  1.8028 -2.0696  0.1046
 7695TIP3   OH244499   2.313   2.169   1.372  0.1304 -0.8616  0.4743
 7695TIP3    H144500   2.393   2.118   1.355  0.2168 -0.6213  0.1451
 7695TIP3    H244501   2.344   2.246   1.420  0.1505 -0.5973  0.0492
 7696TIP3   OH244502   5.398   2.475   0.505  0.1631 -0.4538 -0.5349
 7696TIP3    H144503   5.456   2.411   0.464 -1.5863 -2.7034  0.2972
 7696TIP3    H244504   5.339   2.502   0.435  0.8612  0.2417 -0.8705
 7697TIP3   OH244505   2.590   5.170  12.656 -0.3107  0.9812  0.4178
 7697TIP3    H144506   2.575   5.168  12.562  2.1365  0.3191 -0.0328
 7697TIP3    H244507   2.519   5.223  12.691 -1.1016  1.4914 -1.8216
 7698TIP3   OH244508   0.589   3.231  13.879  0.3408 -0.2079 -0.2141
 7698TIP3    H144509   0.591   3.215  13.785  1.2659  0.8269 -0.3963
 7698TIP3    H244510   0.645   3.162  13.915 -0.6862 -1.1244 -0.3063
 7699TIP3   OH244511   4.273   1.861   3.837 -0.1332 -1.1998  0.6962
 7699TIP3    H144512   4.181   1.843   3.818 -0.6519  1.8117 -0.3081
 7699TIP3    H244513   4.272   1.904   3.923 -0.0901  1.0237 -0.3253
 7700TIP3   OH244514   4.816   3.317   5.160 -0.4454 -0.3444 -0.1259
 7700TIP3    H144515   4.895   3.347   5.116 -1.1906  1.0657 -0.5387
 7700TIP3    H244516   4.819   3.358   5.246  0.1494 -1.7415  0.5640
 7701TIP3   OH244517   4.430   3.684   3.715  0.0481  0.3957  0.5966
 7701TIP3    H144518   4.368   3.757   3.723  0.6067  0.9176  0.2415
 7701TIP3    H244519   4.416   3.631   3.794 -0.7387  0.5905  0.5952
 7702TIP3   OH244520   0.314   2.662  15.109  0.5391 -0.0835 -0.3212
 7702TIP3    H144521   0.310   2.570  15.132  0.2588  0.2149  0.8825
 7702TIP3    H244522   0.405   2.676  15.081  0.8612 -0.5040  0.4840
 7703TIP3   OH244523   1.421   4.587   4.994  0.2060 -0.3424  0.0879
 7703TIP3    H144524   1.369   4.539   5.059 -0.9863  0.1011 -0.4954
 7703TIP3    H244525   1.363   4.658   4.965  0.9769 -0.1046 -0.9324
 7704TIP3   OH244526   4.678   1.424   0.660  0.3266  0.4694  0.1795
 7704TIP3    H144527   4.654   1.471   0.580  0.7778  0.1715 -0.1322
 7704TIP3    H244528   4.636   1.475   0.730 -2.4195 -0.7854 -0.3999
 7705TIP3   OH244529   3.189   2.704  16.650  0.6194  0.0203 -0.2207
 7705TIP3    H144530   3.227   2.620  16.676  0.5361 -0.3778 -1.3117
 7705TIP3    H244531   3.164   2.691  16.558  1.6694  1.5930 -0.7796
 7706TIP3   OH244532   4.953   5.803   0.152 -0.3671 -0.4368 -0.0184
 7706TIP3    H144533   4.965   5.816   0.246 -0.5948  0.6335 -0.1153
 7706TIP3    H244534   4.902   5.879   0.124  0.4365 -0.2849 -1.1560
 7707TIP3   OH244535   4.437   3.690  12.773 -1.1616 -0.6553 -0.2458
 7707TIP3    H144536   4.450   3.685  12.679 -0.5366  0.2732 -0.2258
 7707TIP3    H244537   4.369   3.625  12.792 -0.0245 -2.1439 -1.0643
 7708TIP3   OH244538   2.810   1.037  16.212 -0.7516  0.0715  0.2817
 7708TIP3    H144539   2.796   1.128  16.188 -1.6078  0.4358  2.0355
 7708TIP3    H244540   2.843   1.040  16.301  0.4978 -1.2994 -0.0804
 7709TIP3   OH244541   4.023   2.900  13.789  0.1250 -0.4204 -0.3406
 7709TIP3    H144542   4.023   2.929  13.698 -1.9487  0.4291 -0.1289
 7709TIP3    H244543   4.064   2.813  13.787 -0.6324 -0.7781 -2.2199
 7710TIP3   OH244544   3.085   2.919   1.712  0.2598  0.3050  0.2915
 7710TIP3    H144545   3.164   2.970   1.693 -0.9435  2.6859  1.1938
 7710TIP3    H244546   3.049   2.961   1.790 -0.1733 -2.8210  1.9107
 7711TIP3   OH244547   4.159   6.114  14.572  0.1202 -0.1941 -0.5874
 7711TIP3    H144548   4.200   6.146  14.491  0.1432  0.9036 -0.1575
 7711TIP3    H244549   4.214   6.147  14.642 -2.4392  3.0488  0.1312
 7712TIP3   OH244550   4.179   0.142   5.529 -0.1013 -0.4262 -0.9299
 7712TIP3    H144551   4.274   0.154   5.520 -0.1184  2.1801  1.1792
 7712TIP3    H244552   4.151   0.211   5.588 -3.3977 -1.0142 -1.5756
 7713TIP3   OH244553   6.754   2.835   2.780  0.1206  0.0644 -0.8488
 7713TIP3    H144554   6.756   2.827   2.875 -1.2438  0.2684 -0.7795
 7713TIP3    H244555   6.846   2.826   2.753  0.5924  0.5088  0.5180
 7714TIP3   OH244556   5.452   3.991   4.564 -0.3785 -0.3464 -0.0562
 7714TIP3    H144557   5.486   3.909   4.530  0.2960 -0.0585 -0.0885
 7714TIP3    H244558   5.415   3.968   4.650 -0.1833 -0.6804 -0.0621
 7715TIP3   OH244559   2.502   1.198   3.601  0.1825 -0.2570 -0.5076
 7715TIP3    H144560   2.548   1.176   3.521  0.4350  1.4905 -0.8819
 7715TIP3    H244561   2.571   1.212   3.666  0.0527 -0.2131 -0.3773
 7716TIP3   OH244562   5.067   0.327   4.735 -0.0348  0.3782  0.3453
 7716TIP3    H144563   5.151   0.371   4.747 -0.0559  1.2174 -2.0197
 7716TIP3    H244564   5.053   0.328   4.640 -2.8821  0.6143  0.6811
 7717TIP3   OH244565   6.169   5.775   1.309 -0.4528 -0.6958 -0.5540
 7717TIP3    H144566   6.206   5.742   1.227  0.1506 -1.5834  0.0569
 7717TIP3    H244567   6.094   5.829   1.281  0.3496 -0.1348 -1.7300
 7718TIP3   OH244568   6.593   5.114   1.236 -0.2063 -0.2957  0.2065
 7718TIP3    H144569   6.570   5.204   1.259  0.6519 -0.0853  0.3046
 7718TIP3    H244570   6.510   5.069   1.228 -0.6260  0.3192  0.9504
 7719TIP3   OH244571   6.267   4.635  16.372  0.3191  0.1587 -0.0507
 7719TIP3    H144572   6.194   4.597  16.422  1.1518 -1.8254 -0.2509
 7719TIP3    H244573   6.344   4.587  16.402  1.0600 -0.1075 -2.2210
 7720TIP3   OH244574   4.168   4.239  15.027  0.4276  0.0967  0.1324
 7720TIP3    H144575   4.104   4.304  14.997  1.6651  0.4812 -1.8750
 7720TIP3    H244576   4.119   4.183  15.088 -1.5169  1.0001 -0.5259
 7721TIP3   OH244577   3.299   5.638   5.238 -0.0132  0.5522  0.0590
 7721TIP3    H144578   3.233   5.602   5.179  1.1399 -0.1695 -0.8651
 7721TIP3    H244579   3.265   5.622   5.326 -1.5575  1.2154 -0.3813
 7722TIP3   OH244580   0.984   1.052   0.524  0.2509  0.0003  0.2289
 7722TIP3    H144581   0.982   0.977   0.583  2.9138 -1.7196 -1.6549
 7722TIP3    H244582   0.994   1.128   0.582 -1.9366 -1.0467  2.1409
 7723TIP3   OH244583   2.971   1.585  15.059 -0.0131 -0.1283  0.3346
 7723TIP3    H144584   2.878   1.566  15.060 -0.6797  2.3988  4.0366
 7723TIP3    H244585   3.011   1.510  15.104 -0.5410 -0.2306  0.6404
 7724TIP3   OH244586   6.717   1.104   6.965 -0.0321  0.0708 -0.0727
 7724TIP3    H144587   6.782   1.083   7.031 -0.5336 -0.6938  0.1894
 7724TIP3    H244588   6.768   1.128   6.888  0.5592 -0.6556  0.0852
 7725TIP3   OH244589   4.142   2.277  17.232 -0.2386 -0.7007  0.0962
 7725TIP3    H144590   4.229   2.303  17.201 -1.0853  2.4353  0.0089
 7725TIP3    H244591   4.094   2.256  17.152  0.5084 -3.0801  0.1808
 7726TIP3   OH244592   1.135   2.329   4.709  0.2356 -0.3499  0.3825
 7726TIP3    H144593   1.064   2.276   4.745  1.0838 -1.9640 -0.1965
 7726TIP3    H244594   1.146   2.297   4.620  1.5512 -0.0231  0.3997
 7727TIP3   OH244595   3.423   1.487  12.447 -0.1522  1.0202  0.0153
 7727TIP3    H144596   3.470   1.531  12.376  0.1302  1.4200  0.4437
 7727TIP3    H244597   3.331   1.506  12.429 -0.2699 -0.6498 -1.4250
 7728TIP3   OH244598   3.267   4.213  17.172 -0.4280 -0.0691  0.1605
 7728TIP3    H144599   3.301   4.238  17.258 -2.3282 -2.4047  1.6962
 7728TIP3    H244600   3.204   4.144  17.190  0.4305 -1.9598 -3.2802
 7729TIP3   OH244601   6.210   5.263  13.714 -0.4151  0.6002 -0.0427
 7729TIP3    H144602   6.265   5.249  13.637 -0.8017 -0.4497 -0.1424
 7729TIP3    H244603   6.140   5.321  13.683 -0.0524  0.9367 -0.2360
 7730TIP3   OH244604   0.941   0.186  13.136 -0.1762 -0.2271  0.0100
 7730TIP3    H144605   0.924   0.092  13.124  2.6365 -0.6035 -2.0983
 7730TIP3    H244606   0.951   0.197  13.230 -0.9091 -1.9622  0.3251
 7731TIP3   OH244607   4.053   0.680   3.440 -0.1898 -0.9588 -0.4874
 7731TIP3    H144608   4.131   0.721   3.403 -0.5537  0.0067 -0.2196
 7731TIP3    H244609   3.984   0.699   3.376 -0.4163 -0.9254 -0.2335
 7732TIP3   OH244610   6.165   3.950   3.062 -0.3191  0.0635  0.1042
 7732TIP3    H144611   6.160   4.044   3.078 -0.9242  0.0941 -0.2351
 7732TIP3    H244612   6.074   3.920   3.063 -0.1999 -0.3561 -0.7303
 7733TIP3   OH244613   3.219   4.464  14.395  0.1646 -0.2153 -0.3087
 7733TIP3    H144614   3.161   4.541  14.394 -0.6664 -0.8085  0.2431
 7733TIP3    H244615   3.205   4.426  14.482  1.7723 -0.1066  0.0305
 7734TIP3   OH244616   1.653   5.666   1.800 -0.1108 -0.0949  0.3680
 7734TIP3    H144617   1.744   5.654   1.825 -0.0387 -0.6910 -0.1373
 7734TIP3    H244618   1.648   5.756   1.768 -0.2627  0.7616  2.6622
 7735TIP3   OH244619   2.581   3.628   4.266 -0.1766  0.0140 -0.6981
 7735TIP3    H144620   2.608   3.615   4.357  1.5060  1.5394 -0.9267
 7735TIP3    H244621   2.619   3.553   4.220  0.1741 -0.0202 -0.3602
 7736TIP3   OH244622   0.311   3.621   2.687 -0.0166  0.4587  0.2946
 7736TIP3    H144623   0.328   3.606   2.780 -2.4671  0.2691  0.7769
 7736TIP3    H244624   0.217   3.607   2.677  0.3810 -0.8574 -2.5007
 7737TIP3   OH244625   4.507   1.013  13.565  0.2444  0.3574  0.1230
 7737TIP3    H144626   4.516   0.932  13.615 -0.0083 -0.4068 -1.0367
 7737TIP3    H244627   4.593   1.026  13.525  0.4331  0.9398  0.7084
 7738TIP3   OH244628   0.887   2.343  15.996 -0.0386  0.7816 -0.3055
 7738TIP3    H144629   0.895   2.247  16.003 -3.4018  0.4668  1.1826
 7738TIP3    H244630   0.844   2.357  15.912 -0.4134  0.8836 -0.0997
 7739TIP3   OH244631   2.658   6.047  16.853  0.0899 -0.0072  0.2037
 7739TIP3    H144632   2.577   6.083  16.817  1.3290  0.7380 -2.0592
 7739TIP3    H244633   2.723   6.117  16.840  1.6271 -1.4605 -0.3310
 7740TIP3   OH244634   2.453   5.228   2.186  0.1620 -0.3743 -0.4617
 7740TIP3    H144635   2.357   5.222   2.179  0.1078  0.3958 -0.4047
 7740TIP3    H244636   2.481   5.137   2.192 -0.4080 -0.7317 -2.4059
 7741TIP3   OH244637   3.535   6.359  11.711  0.2862 -0.2785  0.2372
 7741TIP3    H144638   3.573   6.272  11.723  0.6697 -0.0725  0.5174
 7741TIP3    H244639   3.452   6.355  11.759 -0.4139 -0.9582 -0.9688
 7742TIP3   OH244640   4.281   0.047  13.740 -0.2084 -0.1182 -0.9912
 7742TIP3    H144641   4.247   0.052  13.651  0.0581  0.1177 -1.0809
 7742TIP3    H244642   4.209   0.080  13.795  0.0980  1.0331 -1.2385
 7743TIP3   OH244643   4.101   6.557   1.539  0.2746 -0.3324  0.7325
 7743TIP3    H144644   4.029   6.616   1.514 -0.3133 -1.8425 -1.3577
 7743TIP3    H244645   4.175   6.585   1.486 -0.4358 -2.3148 -1.4974
 7744TIP3   OH244646   2.000   6.495  13.654  0.1579 -0.4769  0.0721
 7744TIP3    H144647   1.986   6.456  13.740 -0.2012 -1.3846 -0.3886
 7744TIP3    H244648   2.088   6.531  13.658  1.3080 -3.0849 -0.1121
 7745TIP3   OH244649   3.232   3.425   0.207  0.0600  0.2085  0.3805
 7745TIP3    H144650   3.319   3.401   0.172 -0.8165  0.4382 -2.2246
 7745TIP3    H244651   3.190   3.471   0.134 -2.0148  0.6838  1.8167
 7746TIP3   OH244652   2.895   0.522  10.916 -0.1369  0.4682  0.0083
 7746TIP3    H144653   2.987   0.529  10.889 -0.4248 -0.3648 -1.2838
 7746TIP3    H244654   2.848   0.504  10.835 -1.1214 -1.6774  0.9819
 7747TIP3   OH244655   4.726   1.224  15.104  0.3450 -0.2732 -0.5334
 7747TIP3    H144656   4.699   1.283  15.175  1.3384 -0.0325 -0.3358
 7747TIP3    H244657   4.650   1.220  15.047 -0.2346  0.0865  0.1848
 7748TIP3   OH244658   5.291   5.544  13.682 -0.1868  0.4105 -0.2528
 7748TIP3    H144659   5.386   5.537  13.693  0.0250 -0.4204 -2.0726
 7748TIP3    H244660   5.255   5.491  13.753  0.7723 -0.2198 -0.2021
 7749TIP3   OH244661   6.170   3.823   0.137 -0.2443 -0.0130 -0.4541
 7749TIP3    H144662   6.251   3.787   0.171  0.4097  0.6191 -1.3029
 7749TIP3    H244663   6.180   3.822   0.042 -0.9233  0.7459 -0.5529
 7750TIP3   OH244664   3.539   5.420   4.209 -0.5423 -0.2150 -0.5524
 7750TIP3    H144665   3.537   5.326   4.224  0.7341 -0.3562 -1.1247
 7750TIP3    H244666   3.607   5.453   4.267 -0.4160  0.2348 -0.9479
 7751TIP3   OH244667   5.873   2.133   0.086  0.3037 -0.1985  0.2643
 7751TIP3    H144668   5.899   2.067   0.021  3.0814  1.4508 -0.4580
 7751TIP3    H244669   5.844   2.082   0.161  0.3627 -2.2125 -0.9851
 7752TIP3   OH244670   1.590   2.354  10.995  0.0166 -0.2550  0.2966
 7752TIP3    H144671   1.549   2.319  10.916  2.6645 -1.1522 -0.7975
 7752TIP3    H244672   1.596   2.278  11.054 -1.6957  0.3492  1.3127
 7753TIP3   OH244673   1.055   4.993  16.685 -0.6408 -0.2070  0.1282
 7753TIP3    H144674   1.026   4.902  16.694  1.4771 -1.0140 -0.6922
 7753TIP3    H244675   1.150   4.988  16.682 -0.4878  2.0104 -0.5052
 7754TIP3   OH244676   0.909   2.555   3.717 -0.1313 -0.5782 -0.3334
 7754TIP3    H144677   0.966   2.567   3.642  0.1277  1.0683  0.0896
 7754TIP3    H244678   0.965   2.571   3.793 -0.8043 -0.3671  0.1361
 7755TIP3   OH244679   2.429   1.631   4.422  0.1939  0.2181 -0.5502
 7755TIP3    H144680   2.339   1.600   4.436  0.0227 -0.1907 -2.2844
 7755TIP3    H244681   2.482   1.576   4.480 -0.4431 -1.2527 -1.2856
 7756TIP3   OH244682   5.505   4.007  17.198 -0.3665  0.7046  0.5244
 7756TIP3    H144683   5.426   3.952  17.201 -0.2738  0.5616  0.3532
 7756TIP3    H244684   5.565   3.959  17.142 -1.1119  2.0669 -1.5640
 7757TIP3   OH244685   4.632   1.188   0.007 -0.0011  0.3081  0.8898
 7757TIP3    H144686   4.565   1.233   0.059 -0.7537  1.2178 -0.7632
 7757TIP3    H244687   4.677   1.259  -0.038 -1.3483 -0.4976 -1.9674
 7758TIP3   OH244688   0.826   0.508  12.346 -0.2502 -0.0747  0.2605
 7758TIP3    H144689   0.794   0.567  12.414  0.2361 -1.3581  1.6572
 7758TIP3    H244690   0.906   0.550  12.314 -2.0857  2.1021 -1.7919
 7759TIP3   OH244691   4.341   2.754  12.607 -0.4205 -0.3051  0.3664
 7759TIP3    H144692   4.299   2.765  12.521 -0.6237 -0.9415  0.3832
 7759TIP3    H244693   4.383   2.668  12.602  2.3458  0.9365 -0.2747
 7760TIP3   OH244694   0.956   6.236   5.251 -0.1933 -0.4443 -0.3518
 7760TIP3    H144695   0.989   6.147   5.263  0.9045  0.1709  1.7856
 7760TIP3    H244696   0.872   6.237   5.297 -1.0146 -0.7712 -1.7881
 7761TIP3   OH244697   3.810   2.348   6.225  0.3625 -0.2702 -0.2260
 7761TIP3    H144698   3.763   2.282   6.276  0.5189 -1.0633 -1.0828
 7761TIP3    H244699   3.899   2.312   6.215 -0.0597 -0.8660 -2.2981
 7762TIP3   OH244700   5.459   4.089  15.737 -0.3502  0.9628  0.3640
 7762TIP3    H144701   5.420   4.065  15.821 -2.2078 -0.2891 -0.8084
 7762TIP3    H244702   5.387   4.124  15.685  0.5037  0.5524 -1.1632
 7763TIP3   OH244703   3.959   6.473   3.539 -0.2211 -0.6500 -0.3159
 7763TIP3    H144704   3.953   6.394   3.593  3.1174  0.1561  1.5065
 7763TIP3    H244705   3.893   6.532   3.576 -1.0449 -1.6753 -0.0884
 7764TIP3   OH244706   1.111   4.965   4.269 -0.1645 -0.6778  0.4634
 7764TIP3    H144707   1.074   4.960   4.181  1.4043  0.0276 -0.2716
 7764TIP3    H244708   1.194   4.916   4.263  1.7368  2.2792  0.5233
 7765TIP3   OH244709   0.542   2.897  12.111  0.1573 -0.0049  0.4913
 7765TIP3    H144710   0.610   2.877  12.046 -1.1974 -1.6048 -0.4987
 7765TIP3    H244711   0.468   2.928  12.059 -0.9350 -1.2549  1.2604
 7766TIP3   OH244712   3.258   1.413  16.106  0.4352  0.3148  0.3552
 7766TIP3    H144713   3.163   1.420  16.094  0.7984  2.2467 -2.2865
 7766TIP3    H244714   3.295   1.447  16.025  3.4365 -2.1353  0.5438
 7767TIP3   OH244715   1.270   0.091  13.871 -0.1344 -0.0060  0.0279
 7767TIP3    H144716   1.268   0.146  13.949 -0.7603  2.1723 -1.4506
 7767TIP3    H244717   1.330   0.135  13.811 -1.0228 -0.6519 -1.3898
 7768TIP3   OH244718   1.934   5.037  14.519 -0.0697  0.4661  0.0990
 7768TIP3    H144719   1.996   5.045  14.592  0.1521  0.5252 -0.0950
 7768TIP3    H244720   1.856   5.083  14.549 -0.6402 -1.0050  1.0217
 7769TIP3   OH244721   3.677   6.232  10.994 -0.5136 -0.1337 -0.6898
 7769TIP3    H144722   3.657   6.239  10.901  0.0467 -0.1810 -0.8162
 7769TIP3    H244723   3.715   6.317  11.018 -0.6896 -0.1077 -0.4959
 7770TIP3   OH244724   0.710   4.749   6.645 -0.5469 -0.1195  0.1577
 7770TIP3    H144725   0.720   4.666   6.692  1.6370  0.0214  0.0685
 7770TIP3    H244726   0.724   4.726   6.553 -1.2417  0.1459 -0.0131
 7771TIP3   OH244727   5.569   0.885   3.238  0.7913 -0.2085 -0.4126
 7771TIP3    H144728   5.570   0.808   3.181  1.3748 -0.6499  0.1735
 7771TIP3    H244729   5.603   0.955   3.183 -1.4449  0.0759 -1.5169
 7772TIP3   OH244730   3.071   2.241  11.707  0.2084  0.5248 -0.3437
 7772TIP3    H144731   3.048   2.226  11.616  0.7749 -0.4899 -0.3367
 7772TIP3    H244732   3.121   2.164  11.732  0.8540  1.2142  0.5614
 7773TIP3   OH244733   5.135   4.052   1.849  0.4877  0.1813  0.1743
 7773TIP3    H144734   5.221   4.009   1.844  0.8183  0.9507 -2.1049
 7773TIP3    H244735   5.073   3.981   1.864  1.2596 -0.8149 -1.1536
 7774TIP3   OH244736   2.115   1.817   3.962 -0.3615 -0.0501  0.1163
 7774TIP3    H144737   2.193   1.843   4.011 -0.4630 -2.4836  1.7664
 7774TIP3    H244738   2.140   1.735   3.920 -0.7670  1.2253 -2.8731
 7775TIP3   OH244739   1.598   5.069  12.601  0.1992 -0.2057  0.3275
 7775TIP3    H144740   1.523   5.030  12.556 -1.8704  1.8467  1.7624
 7775TIP3    H244741   1.607   5.156  12.562  1.0256  0.0465  1.0503
 7776TIP3   OH244742   3.287   3.790   3.942 -0.3563 -0.2414  0.3109
 7776TIP3    H144743   3.261   3.861   4.000  0.4290  1.5979 -1.4815
 7776TIP3    H244744   3.211   3.731   3.940 -0.3596 -0.4931  3.2350
 7777TIP3   OH244745   3.615   3.310  16.732 -0.2622  0.4208  0.1915
 7777TIP3    H144746   3.557   3.370  16.779  1.1496  0.6408  1.7472
 7777TIP3    H244747   3.597   3.224  16.770 -0.2840  0.3113 -0.0587
 7778TIP3   OH244748   0.447   3.666  10.953 -0.3149 -0.1234  0.2350
 7778TIP3    H144749   0.399   3.744  10.981 -1.2729 -0.4695 -0.3766
 7778TIP3    H244750   0.497   3.695  10.877  0.7789  0.3380  1.1113
 7779TIP3   OH244751   0.823   6.017   3.156 -0.2274  0.5221  0.4103
 7779TIP3    H144752   0.771   5.997   3.078 -0.4983 -1.5651  1.0424
 7779TIP3    H244753   0.836   5.931   3.198  1.6605  1.3135  1.5683
 7780TIP3   OH244754   2.773   4.902  16.876  0.0374 -0.2817 -0.0156
 7780TIP3    H144755   2.820   4.983  16.854  1.9297 -1.5202 -0.7114
 7780TIP3    H244756   2.733   4.920  16.961  4.6945 -0.2334  2.4444
 7781TIP3   OH244757   6.669   0.494   4.213 -0.3062 -0.4477 -0.3813
 7781TIP3    H144758   6.680   0.560   4.282 -1.1483  0.8372 -1.4406
 7781TIP3    H244759   6.582   0.510   4.177  1.1370  0.9347 -3.7335
 7782TIP3   OH244760   1.763   4.385   5.796  0.0313  0.2880  0.0207
 7782TIP3    H144761   1.835   4.323   5.783 -0.6408 -0.2450 -1.3195
 7782TIP3    H244762   1.804   4.471   5.783  1.1936  0.2747  2.9079
 7783TIP3   OH244763   5.520   4.860  17.100 -0.1167  0.2341  0.2558
 7783TIP3    H144764   5.514   4.953  17.120  1.0806  0.2935  0.4197
 7783TIP3    H244765   5.448   4.844  17.039 -0.6213  1.1602  0.5932
 7784TIP3   OH244766   5.647   2.894   3.337  0.2652 -0.2829  0.6040
 7784TIP3    H144767   5.608   2.949   3.270 -0.0246  0.4241  1.3324
 7784TIP3    H244768   5.652   2.807   3.298 -0.7062 -0.0704 -0.0116
 7785TIP3   OH244769   6.470   0.785  17.224 -0.3381 -0.0656  0.1516
 7785TIP3    H144770   6.546   0.833  17.255 -0.4746 -0.3601  0.9632
 7785TIP3    H244771   6.452   0.822  17.138  0.1071  0.7011  0.3764
 7786TIP3   OH244772   1.163   3.902  15.700  0.5815 -0.6114 -0.6271
 7786TIP3    H144773   1.155   3.947  15.616  1.7758 -0.0734 -0.4752
 7786TIP3    H244774   1.254   3.871  15.702  0.4081 -1.1107  0.2292
 7787TIP3   OH244775   2.527   6.266   0.704  0.2640  0.0626 -0.7086
 7787TIP3    H144776   2.491   6.341   0.752  1.9841  0.8045 -0.5087
 7787TIP3    H244777   2.468   6.254   0.630 -1.7962 -0.3767  0.9148
 7788TIP3   OH244778   2.485   5.955   0.326 -0.2294 -0.3329 -0.2574
 7788TIP3    H144779   2.453   5.903   0.252 -1.6414  0.6279 -0.3646
 7788TIP3    H244780   2.478   6.046   0.297  0.8726 -0.0037  0.4391
 7789TIP3   OH244781   2.010   0.126   5.965 -0.2432 -0.3848 -0.4060
 7789TIP3    H144782   2.080   0.062   5.963  1.3524  1.2766 -0.7074
 7789TIP3    H244783   2.000   0.147   6.058 -0.2338 -0.5113 -0.3762
 7790TIP3   OH244784   4.970   1.674  11.755 -0.2421 -0.5001  0.5555
 7790TIP3    H144785   5.014   1.616  11.692  0.8166 -0.1558  0.9580
 7790TIP3    H244786   5.041   1.714  11.804 -1.0073  0.3163  1.0232
 7791TIP3   OH244787   3.533   1.622   0.645 -0.1460 -0.0360  0.5555
 7791TIP3    H144788   3.512   1.530   0.658  0.6829 -0.6668 -1.8792
 7791TIP3    H244789   3.614   1.635   0.695 -0.3679 -0.5678  1.0658
 7792TIP3   OH244790   4.486   5.562  12.048  0.4675 -0.0409 -0.2174
 7792TIP3    H144791   4.465   5.533  11.959 -2.4241  0.0498  0.3328
 7792TIP3    H244792   4.426   5.635  12.064  1.2936  0.2815  1.6490
 7793TIP3   OH244793   0.212   0.046   4.185 -0.4632  0.0893  0.5945
 7793TIP3    H144794   0.150   0.118   4.176  0.3519  0.8907  1.2585
 7793TIP3    H244795   0.223   0.035   4.280  1.5178  0.9618  0.5124
 7794TIP3   OH244796   0.444   3.701  11.432 -0.6747 -0.2499 -0.5801
 7794TIP3    H144797   0.369   3.717  11.375 -0.3357  1.6008 -0.5613
 7794TIP3    H244798   0.517   3.688  11.372 -0.5448  0.5186 -0.6034
 7795TIP3   OH244799   5.018   0.115  15.551 -0.0813  0.3816  0.3927
 7795TIP3    H144800   4.958   0.063  15.498  1.3396 -0.6898 -0.2100
 7795TIP3    H244801   5.067   0.051  15.602  0.5391  1.2468  0.9055
 7796TIP3   OH244802   3.103   0.639  10.496  0.4386  0.2575 -0.2203
 7796TIP3    H144803   3.191   0.617  10.527  0.2762 -1.4217 -0.8765
 7796TIP3    H244804   3.096   0.596  10.411 -0.4146  1.8231 -0.9758
 7797TIP3   OH244805   4.692   0.481  17.279 -0.3784  0.5732  0.0471
 7797TIP3    H144806   4.598   0.470  17.261  0.0224 -0.6738 -1.5845
 7797TIP3    H244807   4.726   0.523  17.200  0.6134 -0.0450  0.1366
 7798TIP3   OH244808   2.398   5.145   0.964  0.1008 -0.7064 -0.1098
 7798TIP3    H144809   2.370   5.073   1.021  0.9774  0.4325  1.8388
 7798TIP3    H244810   2.395   5.223   1.019 -1.4203  0.9458 -2.3292
 7799TIP3   OH244811   1.480   6.203   4.530  0.8437  0.0171 -0.3757
 7799TIP3    H144812   1.572   6.182   4.512  0.4271 -1.6313 -0.7146
 7799TIP3    H244813   1.467   6.289   4.490  2.0415 -0.0612 -0.9930
 7800TIP3   OH244814   2.239   4.349   2.346 -0.1984  0.1764  0.5420
 7800TIP3    H144815   2.329   4.367   2.373  0.7201  0.4014 -2.3498
 7800TIP3    H244816   2.210   4.431   2.306 -1.3655 -0.2044  0.5840
 7801TIP3   OH244817   3.749   0.782   2.027 -0.3140  0.0416  0.0459
 7801TIP3    H144818   3.671   0.798   2.080 -0.7359 -0.6656 -0.3409
 7801TIP3    H244819   3.739   0.839   1.951  0.1713  0.8781  0.6088
 7802TIP3   OH244820   5.144   1.184  11.798 -0.2893 -0.7305 -0.0581
 7802TIP3    H144821   5.137   1.230  11.882 -0.4304 -0.4182 -0.2420
 7802TIP3    H244822   5.080   1.113  11.804 -1.0113 -0.1055 -0.2929
 7803TIP3   OH244823   0.211   4.477  11.836  0.1180 -0.1198 -0.2153
 7803TIP3    H144824   0.213   4.402  11.777 -1.1471 -1.1819  1.0058
 7803TIP3    H244825   0.126   4.518  11.820  0.5001  0.6510 -0.3573
 7804TIP3   OH244826   4.832   2.568   0.903 -0.4659  0.8276 -0.2458
 7804TIP3    H144827   4.737   2.571   0.911 -0.4258  1.7319 -0.0056
 7804TIP3    H244828   4.859   2.498   0.962 -1.1434 -1.1170 -2.0996
 7805TIP3   OH244829   6.458   6.495   5.426  0.7738 -0.1040 -0.1138
 7805TIP3    H144830   6.531   6.495   5.364  1.4596  1.2943  0.6628
 7805TIP3    H244831   6.437   6.587   5.439  0.6935 -0.3339  1.7569
 7806TIP3   OH244832   4.525   0.903   2.385 -0.3313  0.1908 -0.8354
 7806TIP3    H144833   4.611   0.935   2.411  0.1683 -0.8660 -1.1146
 7806TIP3    H244834   4.529   0.809   2.401 -1.9339  0.3069  0.4604
 7807TIP3   OH244835   1.862   3.160   0.358  0.1571 -0.7200 -0.2489
 7807TIP3    H144836   1.951   3.154   0.392  0.8351 -0.1368 -1.7965
 7807TIP3    H244837   1.873   3.153   0.263 -1.3477  0.2899 -0.5337
 7808TIP3   OH244838   0.242   3.687  16.179 -0.5474  0.2164  0.6178
 7808TIP3    H144839   0.243   3.702  16.273 -0.6277  1.1103  0.4884
 7808TIP3    H244840   0.293   3.606  16.166 -1.2993 -0.4108  1.5002
 7809TIP3   OH244841   3.806   4.931   3.565  0.0723  0.4630 -0.0192
 7809TIP3    H144842   3.778   4.923   3.656 -0.0781  0.7392 -0.0399
 7809TIP3    H244843   3.744   4.878   3.516 -0.9594  1.7507 -0.1646
 7810TIP3   OH244844   2.590   1.332  13.174 -0.6853 -0.4124 -0.1036
 7810TIP3    H144845   2.681   1.303  13.178 -0.1320  1.2282 -0.4151
 7810TIP3    H244846   2.542   1.264  13.222  0.7519 -1.0427  0.4994
 7811TIP3   OH244847   4.922   1.336  14.550  0.1118 -0.2344 -0.3306
 7811TIP3    H144848   5.018   1.331  14.547  0.0287 -1.6965 -2.6514
 7811TIP3    H244849   4.896   1.353  14.460 -1.8341  0.7398  0.3596
 7812TIP3   OH244850   0.826   3.166  16.106  0.1085 -0.8060  0.0517
 7812TIP3    H144851   0.814   3.072  16.119 -1.4556 -0.6332 -0.0677
 7812TIP3    H244852   0.747   3.195  16.062  0.7001  0.5338 -0.1760
 7813TIP3   OH244853   4.703   5.156  16.617  0.1032  0.2244 -0.0042
 7813TIP3    H144854   4.785   5.183  16.659  0.9129 -2.0345  0.0207
 7813TIP3    H244855   4.726   5.077  16.568 -1.5688  0.8917 -1.9772
 7814TIP3   OH244856   5.748   5.290  11.297 -0.0159  0.2074  0.4342
 7814TIP3    H144857   5.683   5.240  11.247 -0.1356 -2.3877  2.9868
 7814TIP3    H244858   5.728   5.382  11.277 -1.7097 -0.6200 -2.1287
 7815TIP3   OH244859   6.213   0.339  13.074  1.0649  0.4765  0.1950
 7815TIP3    H144860   6.302   0.369  13.056  0.7250  0.5819 -1.4022
 7815TIP3    H244861   6.159   0.418  13.066  0.7895  0.3885  1.0362
 7816TIP3   OH244862   5.760   4.213  14.791  0.3193 -0.0914 -0.0553
 7816TIP3    H144863   5.842   4.233  14.836  0.8526  1.7128 -1.7180
 7816TIP3    H244864   5.784   4.149  14.725  0.3874  0.4325 -0.5385
 7817TIP3   OH244865   3.002   4.268  11.907 -1.0917  0.1350 -0.9314
 7817TIP3    H144866   2.923   4.249  11.856 -0.4413  1.3495 -2.4735
 7817TIP3    H244867   3.074   4.246  11.848 -0.1971 -1.8443  0.7728
 7818TIP3   OH244868   3.489   6.299   4.450 -0.4187  0.2409 -0.1637
 7818TIP3    H144869   3.528   6.299   4.537 -0.5530  1.6348 -0.0815
 7818TIP3    H244870   3.562   6.318   4.390 -0.6620  1.2222 -0.1616
 7819TIP3   OH244871   2.106   5.004  15.213  0.0804  0.0406  0.3206
 7819TIP3    H144872   2.153   4.930  15.252  0.1561  1.2734  2.7454
 7819TIP3    H244873   2.171   5.074  15.210 -0.1209  0.2003 -1.5194
 7820TIP3   OH244874   4.810   1.770   1.577  0.3613  0.3566  0.0824
 7820TIP3    H144875   4.867   1.844   1.557 -0.3335  0.8601 -0.0541
 7820TIP3    H244876   4.870   1.700   1.604  1.0633  0.7515 -0.4451
 7821TIP3   OH244877   4.402   5.361   1.076  0.6202 -0.3073  0.0027
 7821TIP3    H144878   4.443   5.325   1.156  0.2537  1.0206  0.8169
 7821TIP3    H244879   4.470   5.353   1.009  0.9928 -1.3048  0.4706
 7822TIP3   OH244880   3.691   4.577  16.856 -0.3553 -0.7674 -0.3232
 7822TIP3    H144881   3.680   4.498  16.909  0.6153 -0.6245  0.1008
 7822TIP3    H244882   3.785   4.595  16.857 -0.6465  0.9276  0.3781
 7823TIP3   OH244883   0.233   2.062   5.764 -0.4350 -0.6043  0.2538
 7823TIP3    H144884   0.198   2.023   5.684 -0.4538  0.0662 -0.0714
 7823TIP3    H244885   0.280   1.990   5.806  0.3192 -0.7464 -0.7917
 7824TIP3   OH244886   3.005   6.071  12.965  0.2255  0.4830 -0.4223
 7824TIP3    H144887   2.946   6.057  13.039  1.1956 -1.0960  0.0886
 7824TIP3    H244888   3.084   6.023  12.987  0.8033  0.5423 -2.1879
 7825TIP3   OH244889   6.754   4.960  13.723  0.0054  0.2712  0.0695
 7825TIP3    H144890   6.784   4.954  13.814 -0.2546  2.3627  0.3433
 7825TIP3    H244891   6.822   4.914  13.673  1.6139  1.4430  1.0615
 7826TIP3   OH244892   6.156   4.594  16.126  0.6542 -0.1213 -0.2330
 7826TIP3    H144893   6.204   4.632  16.200 -0.5951  1.9307 -0.4264
 7826TIP3    H244894   6.217   4.599  16.053  0.2466  2.4262 -0.4701
 7827TIP3   OH244895   0.200   6.455  14.460  0.2374 -0.0061 -0.0540
 7827TIP3    H144896   0.258   6.496  14.395  0.1410  0.7658  0.3428
 7827TIP3    H244897   0.185   6.523  14.525 -1.6616  0.0329 -0.4865
 7828TIP3   OH244898   6.673   4.482   2.419  0.0996 -0.1234  0.0496
 7828TIP3    H144899   6.643   4.510   2.506  1.2267 -0.8030  0.6796
 7828TIP3    H244900   6.629   4.398   2.405  1.3300 -0.9332  0.8088
 7829TIP3   OH244901   3.645   1.056  11.091 -0.3596 -0.4438 -0.1795
 7829TIP3    H144902   3.665   1.123  11.157 -1.4515  0.7124 -0.9771
 7829TIP3    H244903   3.642   1.104  11.008 -0.6710 -1.5865 -0.8549
 7830TIP3   OH244904   4.509   0.767  13.705 -0.5608 -0.2458  0.0027
 7830TIP3    H144905   4.579   0.705  13.723 -0.0425 -0.0263 -1.1617
 7830TIP3    H244906   4.475   0.791  13.791  0.6015 -0.5769  0.5730
 7831TIP3   OH244907   3.365   4.838   3.795 -0.1588  1.0420 -0.6424
 7831TIP3    H144908   3.424   4.770   3.762 -0.2912  0.9102 -0.6072
 7831TIP3    H244909   3.418   4.918   3.794  0.9099  0.4614  1.9577
 7832TIP3   OH244910   3.199   6.315  13.834  0.7243 -0.0539  0.2126
 7832TIP3    H144911   3.107   6.343  13.842  0.7963  0.5739 -0.9715
 7832TIP3    H244912   3.201   6.259  13.757  1.2746 -0.3459  0.4337
 7833TIP3   OH244913   4.261   1.298   1.240 -0.4812  0.0999 -0.6152
 7833TIP3    H144914   4.216   1.251   1.310 -0.3416 -0.1147 -0.6686
 7833TIP3    H244915   4.203   1.290   1.164 -1.2737  1.4684 -0.1832
 7834TIP3   OH244916   6.463   6.575   1.297  0.1153 -0.1548 -0.3585
 7834TIP3    H144917   6.536   6.623   1.336 -0.8277  2.4361 -1.5562
 7834TIP3    H244918   6.386   6.626   1.319 -0.8858 -0.7349 -2.2608
 7835TIP3   OH244919   1.287   6.691  13.066 -0.1897  0.0326 -0.1787
 7835TIP3    H144920   1.221   6.693  12.997 -1.0447 -0.9000  0.5918
 7835TIP3    H244921   1.358   6.638  13.030 -1.4743 -2.1802  0.3315
 7836TIP3   OH244922   5.862   0.603  16.320  0.1010 -0.1876 -0.3603
 7836TIP3    H144923   5.939   0.638  16.365 -0.1889  0.6943 -0.5208
 7836TIP3    H244924   5.878   0.623  16.227 -0.1383 -0.3654 -0.4391
 7837TIP3   OH244925   3.233   3.204  12.371 -0.1048  0.0203  0.0724
 7837TIP3    H144926   3.275   3.179  12.453  2.1114 -0.2526 -1.0636
 7837TIP3    H244927   3.225   3.123  12.322 -0.6398  0.2949 -0.2980
 7838TIP3   OH244928   0.543   1.264   2.714  0.3674 -0.6078  0.1145
 7838TIP3    H144929   0.545   1.215   2.796  0.6057 -0.5869  0.1225
 7838TIP3    H244930   0.608   1.220   2.659  2.8581  1.4819  1.1394
 7839TIP3   OH244931   6.288   4.619   3.569 -0.1887 -0.0589 -0.0361
 7839TIP3    H144932   6.307   4.649   3.658  1.6159 -0.5824 -0.2074
 7839TIP3    H244933   6.310   4.526   3.570  2.8666  0.5090 -1.7474
 7840TIP3   OH244934   4.732   1.233   6.348  0.1953 -0.1895  0.2540
 7840TIP3    H144935   4.664   1.165   6.342  0.2862 -0.2412 -0.2877
 7840TIP3    H244936   4.683   1.313   6.366  0.0291 -0.3006  0.3041
 7841TIP3   OH244937   2.519   6.055   1.742 -0.1080  0.6940  0.3074
 7841TIP3    H144938   2.451   6.080   1.804  0.5565  0.9956  0.9299
 7841TIP3    H244939   2.544   6.137   1.700 -0.3945  0.5251 -0.2013
 7842TIP3   OH244940   1.074   1.165  12.724 -0.5932 -0.2303 -0.8908
 7842TIP3    H144941   0.987   1.200  12.743 -0.1681 -0.0523  0.9685
 7842TIP3    H244942   1.066   1.071  12.740 -0.1282 -0.0242  0.8393
 7843TIP3   OH244943   5.889   1.218   3.596 -0.6628  0.3673  0.0582
 7843TIP3    H144944   5.891   1.267   3.678  0.2745  1.3645 -0.5412
 7843TIP3    H244945   5.864   1.130   3.622 -1.4695  0.9208  1.2797
 7844TIP3   OH244946   2.200   2.585  14.981  0.0638  0.3864 -0.3394
 7844TIP3    H144947   2.183   2.555  14.892  1.2599 -2.7203  0.3455
 7844TIP3    H244948   2.283   2.633  14.974  0.1598  0.1490 -0.8784
 7845TIP3   OH244949   1.350   5.757  15.992  0.2237 -0.0740  0.4352
 7845TIP3    H144950   1.367   5.679  15.940  0.9993 -0.1273  0.7499
 7845TIP3    H244951   1.376   5.734  16.081  0.1541  0.4357  0.5954
 7846TIP3   OH244952   3.563   3.037   3.515  0.0669  0.1350 -0.5295
 7846TIP3    H144953   3.644   2.997   3.545  0.1967  0.1608 -0.8445
 7846TIP3    H244954   3.561   3.021   3.421 -0.3732 -0.0058 -0.4974
 7847TIP3   OH244955   5.617   4.834   3.841 -0.1747 -0.5778 -0.3526
 7847TIP3    H144956   5.556   4.793   3.780  0.4353 -1.4179 -0.4118
 7847TIP3    H244957   5.568   4.840   3.923 -0.3871 -1.1208 -0.4355
 7848TIP3   OH244958   1.146   1.762   4.848 -0.1967 -0.3684 -0.2125
 7848TIP3    H144959   1.229   1.758   4.802 -0.5486 -0.6933 -0.8346
 7848TIP3    H244960   1.170   1.761   4.941  0.4927 -0.3950 -0.3870
 7849TIP3   OH244961   4.636   6.320   5.477 -0.3789 -0.2549  0.2288
 7849TIP3    H144962   4.649   6.227   5.495 -1.0174 -0.0750  1.7771
 7849TIP3    H244963   4.541   6.330   5.468 -0.2216 -0.0485 -1.9341
 7850TIP3   OH244964   5.688   5.312  12.487 -0.4332  0.0777 -0.3791
 7850TIP3    H144965   5.781   5.333  12.476 -0.5551  0.3574 -0.9003
 7850TIP3    H244966   5.649   5.392  12.521 -0.5837  0.1356 -0.6882
 7851TIP3   OH244967   1.569   0.210  15.970 -0.5449 -0.1313  0.3461
 7851TIP3    H144968   1.523   0.292  15.952  0.1263  0.1809  0.0346
 7851TIP3    H244969   1.656   0.222  15.932 -0.0933 -0.5913  1.1997
 7852TIP3   OH244970   1.457   1.933  14.958  0.0256  0.2304  0.5375
 7852TIP3    H144971   1.505   1.975  15.029 -2.0796  3.6218  0.1994
 7852TIP3    H244972   1.383   1.890  15.001  1.5349 -2.2671  0.7708
 7853TIP3   OH244973   4.715   1.801   5.518  0.4940  0.0570 -0.4457
 7853TIP3    H144974   4.663   1.777   5.595  1.3162 -1.4997 -0.3358
 7853TIP3    H244975   4.751   1.887   5.540  1.8018 -0.8987  1.5530
 7854TIP3   OH244976   1.453   1.889  15.342  0.0662  0.2013 -0.0814
 7854TIP3    H144977   1.515   1.951  15.304 -0.2599  1.4683  1.3509
 7854TIP3    H244978   1.374   1.899  15.290 -0.0216  1.1017  0.2108
 7855TIP3   OH244979   0.776   3.441  15.517  0.5385  0.4596 -0.1096
 7855TIP3    H144980   0.681   3.450  15.519  0.5965  1.1399 -0.3361
 7855TIP3    H244981   0.791   3.350  15.490 -0.0431  0.1882  0.4611
 7856TIP3   OH244982   2.122   6.055  15.471  0.2162 -0.3092 -0.1020
 7856TIP3    H144983   2.192   6.055  15.537  0.6769 -1.1906 -0.5737
 7856TIP3    H244984   2.043   6.034  15.520  0.2087  1.0450  0.4995
 7857TIP3   OH244985   2.326   1.177  12.495 -0.6760  0.0598 -0.5143
 7857TIP3    H144986   2.237   1.208  12.510 -0.6805  0.9644 -2.2002
 7857TIP3    H244987   2.339   1.186  12.400  0.9352 -0.8048 -0.4078
 7858TIP3   OH244988   6.061   1.114  14.223  0.8257 -0.5242  0.2642
 7858TIP3    H144989   6.088   1.023  14.231  0.4408 -0.6802 -0.1758
 7858TIP3    H244990   5.969   1.114  14.251  1.3783  0.0926  2.2880
 7859TIP3   OH244991   4.721   3.984  12.649 -0.2959  0.0089  0.5395
 7859TIP3    H144992   4.668   3.934  12.588 -1.0058  0.3425  0.8717
 7859TIP3    H244993   4.686   4.073  12.644  1.4431  0.6916 -0.6193
 7860TIP3   OH244994   0.659   1.585  14.338 -0.1697 -0.4857 -0.4833
 7860TIP3    H144995   0.602   1.629  14.401 -1.5699 -2.6800 -0.0983
 7860TIP3    H244996   0.601   1.556  14.268  1.1244  0.5340 -2.0504
 7861TIP3   OH244997   5.951   4.896  13.368 -0.6486 -0.4472  0.3977
 7861TIP3    H144998   6.041   4.906  13.336 -1.4561  0.6100 -1.7819
 7861TIP3    H244999   5.928   4.806  13.349 -0.2659 -0.5431  0.3784
 7862TIP3   OH245000   1.027   3.856   4.471 -0.1321  0.0164  0.0294
 7862TIP3    H145001   1.092   3.823   4.409  0.0125  0.4250 -0.0391
 7862TIP3    H245002   0.971   3.781   4.489 -0.3641 -0.0320 -0.8374
 7863TIP3   OH245003   4.196   3.637  14.921 -0.0742  0.1023 -0.2816
 7863TIP3    H145004   4.269   3.602  14.973 -0.1412  0.9772  0.4186
 7863TIP3    H245005   4.118   3.604  14.965 -0.1236  0.3461 -0.1899
 7864TIP3   OH245006   2.073   2.561   5.910  0.0332  0.0460  0.0750
 7864TIP3    H145007   2.037   2.485   5.864 -0.6941  0.1883  0.3978
 7864TIP3    H245008   2.164   2.565   5.882  0.6717 -2.1669  1.5823
 7865TIP3   OH245009   5.478   5.609   0.563 -0.2367 -0.0072 -0.4686
 7865TIP3    H145010   5.393   5.637   0.598  0.9529  1.5558  1.3511
 7865TIP3    H245011   5.506   5.681   0.507 -0.3198 -0.7638 -1.5116
 7866TIP3   OH245012   6.133   0.295   5.723  0.4862 -0.1904 -0.0621
 7866TIP3    H145013   6.117   0.227   5.657 -1.6441  0.9681 -0.8274
 7866TIP3    H245014   6.123   0.250   5.807  2.1115 -1.4339 -0.4654
 7867TIP3   OH245015   0.767   3.671  14.582  0.0397 -0.4145  0.2693
 7867TIP3    H145016   0.690   3.656  14.638  1.3556  1.4936  2.8087
 7867TIP3    H245017   0.732   3.717  14.506 -1.4169  0.2395  1.2657
 7868TIP3   OH245018   2.996   5.000   3.680  0.2715 -0.3715 -0.3140
 7868TIP3    H145019   2.956   5.081   3.712  2.1132  0.9115 -1.0934
 7868TIP3    H245020   3.039   5.025   3.598 -0.7433 -2.6114 -1.6350
 7869TIP3   OH245021   1.787   2.072  10.195 -0.1024 -0.5137 -0.2264
 7869TIP3    H145022   1.751   1.984  10.181  0.8531 -0.6761 -2.1226
 7869TIP3    H245023   1.760   2.121  10.117  1.6433  0.0448 -0.5287
 7870TIP3   OH245024   3.637   3.566  11.438  0.2358  0.4378 -0.1726
 7870TIP3    H145025   3.655   3.518  11.357  1.2429  0.4634  0.0310
 7870TIP3    H245026   3.655   3.503  11.508 -0.0677  0.5968  0.0500
 7871TIP3   OH245027   1.739   4.830  14.495 -0.3154 -0.1355 -0.3389
 7871TIP3    H145028   1.764   4.745  14.459 -1.3436 -0.3366 -0.6118
 7871TIP3    H245029   1.810   4.889  14.469  0.2901 -0.8593 -0.3454
 7872TIP3   OH245030   5.785   0.296   3.975  0.0773 -0.3933  0.6053
 7872TIP3    H145031   5.838   0.375   3.987 -2.1672  1.3928 -0.4952
 7872TIP3    H245032   5.811   0.262   3.890 -1.4761  1.3689 -0.6608
 7873TIP3   OH245033   5.746   1.717   5.443 -0.5696 -0.0696 -0.0722
 7873TIP3    H145034   5.825   1.751   5.402 -1.1602  0.3437 -0.8862
 7873TIP3    H245035   5.758   1.734   5.536  0.9039 -1.2498 -0.0102
 7874TIP3   OH245036   5.035   0.247   4.158 -0.3541  0.0676  0.0086
 7874TIP3    H145037   4.985   0.305   4.101  1.0048  0.3034 -0.9852
 7874TIP3    H245038   5.120   0.289   4.167 -0.0944 -0.6548  1.1194
 7875TIP3   OH245039   6.475   6.534  11.595 -0.1343 -0.7266  0.1367
 7875TIP3    H145040   6.555   6.495  11.558 -0.2518 -0.5626 -0.3025
 7875TIP3    H245041   6.404   6.489  11.550 -0.2762 -0.2303 -0.1438
 7876TIP3   OH245042   6.603   3.238  16.371  0.0425 -0.5558  0.2422
 7876TIP3    H145043   6.552   3.309  16.409  1.2508  0.1749  0.5533
 7876TIP3    H245044   6.679   3.230  16.428  1.3825 -0.1505 -1.4041
 7877TIP3   OH245045   0.212   4.516   4.905 -0.1506 -0.2427 -0.1951
 7877TIP3    H145046   0.145   4.515   4.974  1.1463 -0.4297  1.1069
 7877TIP3    H245047   0.285   4.467   4.942  0.5295 -0.4699 -1.7862
 7878TIP3   OH245048   2.300   0.075   1.932 -0.3124  0.4934  0.1364
 7878TIP3    H145049   2.372   0.083   1.994  0.7126 -1.5348 -0.7165
 7878TIP3    H245050   2.336   0.105   1.848  0.1257 -2.0284 -0.6483
 7879TIP3   OH245051   0.555   3.512   0.939  0.0125 -0.0266  0.0739
 7879TIP3    H145052   0.562   3.594   0.989 -1.3751  0.4897 -0.5362
 7879TIP3    H245053   0.576   3.538   0.849 -0.8411 -0.2510 -0.1930
 7880TIP3   OH245054   2.646   4.234   2.183  0.7734  0.1934  0.1004
 7880TIP3    H145055   2.596   4.201   2.108  0.2098  0.6628  0.2593
 7880TIP3    H245056   2.685   4.316   2.152 -0.3907  0.9830  0.6471
 7881TIP3   OH245057   1.887   0.489   3.345  0.2928  0.1600  0.3300
 7881TIP3    H145058   1.797   0.461   3.331  0.4636 -0.3616  0.2188
 7881TIP3    H245059   1.940   0.412   3.321  0.8655  0.9883 -1.2675
 7882TIP3   OH245060   4.882   1.687  15.445 -0.7898 -0.3354  0.0870
 7882TIP3    H145061   4.893   1.658  15.536 -1.2563 -3.0794 -0.6357
 7882TIP3    H245062   4.876   1.606  15.395 -0.4047  1.0952 -2.4424
 7883TIP3   OH245063   0.716   2.199   3.496 -0.3755 -0.3839 -0.1384
 7883TIP3    H145064   0.812   2.203   3.501 -0.4297  1.2049  0.3101
 7883TIP3    H245065   0.691   2.130   3.557  0.4666 -0.4758  0.1150
 7884TIP3   OH245066   0.726   3.286  15.269 -0.0964 -0.2795 -0.2564
 7884TIP3    H145067   0.787   3.225  15.227  0.7626 -0.8667  1.7223
 7884TIP3    H245068   0.714   3.356  15.205  0.7783 -1.3384 -1.6372
 7885TIP3   OH245069   4.780   3.325  10.701 -0.4840 -0.1570  0.2010
 7885TIP3    H145070   4.821   3.276  10.630  1.8903  1.1545  0.5519
 7885TIP3    H245071   4.686   3.309  10.690  0.0181 -5.4488  0.8572
 7886TIP3   OH245072   4.444   1.482  12.961  0.3873  0.7881  0.0364
 7886TIP3    H145073   4.475   1.524  12.880 -1.3435 -0.5227 -1.3908
 7886TIP3    H245074   4.431   1.390  12.937  2.6830 -0.3722  2.6587
 7887TIP3   OH245075   5.248   3.118  16.039  0.1750  0.3600  0.6467
 7887TIP3    H145076   5.343   3.105  16.033 -0.0165 -0.4883 -1.2924
 7887TIP3    H245077   5.210   3.033  16.017 -1.0309  1.0107  0.0969
 7888TIP3   OH245078   0.034   4.730   0.754  0.4626 -0.2264  0.0740
 7888TIP3    H145079  -0.034   4.796   0.747 -0.1670 -0.7630  0.9809
 7888TIP3    H245080   0.115   4.780   0.766 -0.0831  0.3824  1.3979
 7889TIP3   OH245081   5.836   5.334  16.786 -0.7652 -0.2989 -0.0628
 7889TIP3    H145082   5.774   5.348  16.857 -0.4420 -0.3206  0.2284
 7889TIP3    H245083   5.854   5.423  16.753 -0.8081 -0.2749 -0.0207
 7890TIP3   OH245084   5.740   0.350   5.481 -0.2709  0.8422 -0.0839
 7890TIP3    H145085   5.780   0.337   5.567 -0.5610  0.9490  0.0695
 7890TIP3    H245086   5.749   0.444   5.464 -2.0826  1.2166  0.7801
 7891TIP3   OH245087   2.503   4.280  12.028  0.1818  0.0073  0.2118
 7891TIP3    H145088   2.574   4.338  12.001  0.3102 -0.1354  0.2412
 7891TIP3    H245089   2.454   4.261  11.948  0.5993 -0.4670  0.0627
 7892TIP3   OH245090   5.225   5.737   3.344 -0.3104 -0.0061 -0.4311
 7892TIP3    H145091   5.276   5.771   3.417 -0.8370 -2.2648  1.1044
 7892TIP3    H245092   5.141   5.782   3.350 -0.6147 -0.7003  0.8687
 7893TIP3   OH245093   5.375   3.629   5.109 -0.6662 -0.7477  0.4633
 7893TIP3    H145094   5.447   3.670   5.156 -1.0479  0.8660 -0.2743
 7893TIP3    H245095   5.389   3.535   5.120  2.6066 -0.5937 -1.1336
 7894TIP3   OH245096   2.111   2.300  12.253 -0.3898  0.4410  0.0259
 7894TIP3    H145097   2.172   2.349  12.308 -0.1216  2.2259 -1.7348
 7894TIP3    H245098   2.165   2.257  12.188 -0.7236 -1.4413  0.9332
 7895TIP3   OH245099   5.267   3.715  13.777  0.7207  0.6976 -0.2939
 7895TIP3    H145100   5.296   3.693  13.689 -1.2234  0.3316 -0.9055
 7895TIP3    H245101   5.200   3.649  13.797  2.0195 -0.0151  1.9944
 7896TIP3   OH245102   5.772   0.281  10.936 -0.3405 -0.1326 -0.2196
 7896TIP3    H145103   5.829   0.255  10.864  0.9705  0.5833  0.5125
 7896TIP3    H245104   5.774   0.206  10.997  1.3375  0.5757  0.6615
 7897TIP3   OH245105   1.796   2.978   1.356 -0.7289  0.0212 -0.0903
 7897TIP3    H145106   1.860   2.950   1.291 -0.6179  1.5033 -0.6687
 7897TIP3    H245107   1.843   3.042   1.410 -1.7283  1.2941 -0.6521
 7898TIP3   OH245108   1.178   1.151   5.061 -0.5220  0.2308  0.4868
 7898TIP3    H145109   1.188   1.232   5.011  1.2880 -0.8314 -1.0280
 7898TIP3    H245110   1.200   1.082   4.998 -1.7198 -1.4445  1.8061
 7899TIP3   OH245111   5.902   5.170   0.003 -0.7801 -0.3162 -0.4564
 7899TIP3    H145112   5.992   5.204  -0.001 -1.3298  1.5086  1.2076
 7899TIP3    H245113   5.912   5.075   0.003  1.3028 -0.1791  1.8286
 7900TIP3   OH245114   4.264   5.391   6.253  0.4972  0.1059  0.1089
 7900TIP3    H145115   4.343   5.429   6.291  0.6115  0.1307 -0.1515
 7900TIP3    H245116   4.196   5.407   6.318  0.4704  1.0528 -0.1439
 7901TIP3   OH245117   3.678   2.567   5.366  0.1077  0.8553  0.1566
 7901TIP3    H145118   3.603   2.606   5.411  0.1704  0.4495  0.6213
 7901TIP3    H245119   3.736   2.640   5.347 -1.4150  1.5480 -2.2541
 7902TIP3   OH245120   5.698   4.118   1.609 -0.2427  0.0392  0.0515
 7902TIP3    H145121   5.716   4.180   1.680 -0.5504 -0.6001  0.7068
 7902TIP3    H245122   5.606   4.095   1.621 -0.5008  0.4611 -1.0021
 7903TIP3   OH245123   0.943   4.274   0.725  0.0403 -0.3515 -0.1616
 7903TIP3    H145124   0.965   4.203   0.665  1.8248 -3.0450  3.3047
 7903TIP3    H245125   1.027   4.297   0.766 -1.2812  0.0562  2.5252
 7904TIP3   OH245126   3.072   5.583  16.973 -0.0662 -0.0667 -0.5191
 7904TIP3    H145127   3.104   5.670  16.996 -0.9287  0.3136 -0.7373
 7904TIP3    H245128   3.151   5.529  16.965  0.4447  0.6156 -0.0547
 7905TIP3   OH245129   5.833   0.522  15.377  0.0777  0.1500 -0.0908
 7905TIP3    H145130   5.766   0.460  15.349  1.3391 -2.0729  1.4624
 7905TIP3    H245131   5.808   0.544  15.467  0.0065  1.4404 -0.4086
 7906TIP3   OH245132   0.073   1.436  11.779 -0.1789  0.1185  0.0094
 7906TIP3    H145133   0.125   1.510  11.746 -0.0716  0.4811  0.9530
 7906TIP3    H245134   0.126   1.359  11.759  0.3156  0.4118  0.1632
 7907TIP3   OH245135   1.679   2.601  16.356  0.5541 -0.1171 -0.3506
 7907TIP3    H145136   1.609   2.655  16.321  1.4485  1.9281  0.8639
 7907TIP3    H245137   1.751   2.610  16.294  1.0386  0.9421  0.3303
 7908TIP3   OH245138   4.545   3.864   1.816 -0.7072  0.0641 -0.1585
 7908TIP3    H145139   4.459   3.901   1.795  0.0435  1.3382 -1.1395
 7908TIP3    H245140   4.533   3.822   1.901 -2.5052 -0.5268 -0.6599
 7909TIP3   OH245141   4.221   0.730  16.229 -0.5748  0.0213 -0.4888
 7909TIP3    H145142   4.129   0.718  16.253 -0.3743  0.1044  0.3629
 7909TIP3    H245143   4.269   0.715  16.310 -0.0045  2.1951 -0.3490
 7910TIP3   OH245144   5.243   4.252   4.887 -0.2940 -0.6330 -0.2089
 7910TIP3    H145145   5.309   4.283   4.825 -0.6443  1.5334  0.4012
 7910TIP3    H245146   5.243   4.157   4.877  0.9511 -0.4854 -2.1859
 7911TIP3   OH245147   2.066   1.012   0.279 -0.7607  0.4271  0.1627
 7911TIP3    H145148   2.075   0.933   0.331 -2.9884  1.1072  1.7261
 7911TIP3    H245149   2.021   0.984   0.199  0.7144 -0.2585 -0.4534
 7912TIP3   OH245150   5.513   2.106  12.281  0.1900 -0.2555  0.1659
 7912TIP3    H145151   5.499   2.020  12.242  1.1902  0.0628 -0.9719
 7912TIP3    H245152   5.586   2.094  12.342 -0.7015 -0.5318  1.2042
 7913TIP3   OH245153   2.667   5.488  14.153 -0.3151  0.1650  0.8560
 7913TIP3    H145154   2.704   5.538  14.226  0.2586  0.8216  0.1351
 7913TIP3    H245155   2.574   5.511  14.154 -0.4024 -0.1788  1.6424
 7914TIP3   OH245156   1.490   3.985  14.866  0.3243  0.2286 -0.4689
 7914TIP3    H145157   1.510   3.977  14.773 -0.2957 -0.2236 -0.5706
 7914TIP3    H245158   1.402   4.021  14.868 -0.6217 -1.9311 -0.1081
 7915TIP3   OH245159   3.454   1.743  10.680 -0.1724 -0.4061  0.7235
 7915TIP3    H145160   3.535   1.740  10.731  0.0609 -0.5536  0.3530
 7915TIP3    H245161   3.465   1.673  10.615 -0.0371  0.4073 -0.1544
 7916TIP3   OH245162   0.592   1.939  14.316  0.8745 -0.2613 -0.2565
 7916TIP3    H145163   0.533   1.891  14.259 -0.0787  0.7107 -0.1240
 7916TIP3    H245164   0.592   1.891  14.398  0.7701 -0.6104 -0.4592
 7917TIP3   OH245165   1.498   4.430  11.475  0.0761 -0.0798 -0.1432
 7917TIP3    H145166   1.404   4.438  11.487  0.1517  0.6621 -0.0069
 7917TIP3    H245167   1.524   4.512  11.432  0.4177 -0.9443 -1.6899
 7918TIP3   OH245168   0.177   2.179  12.359 -0.0770  0.0801  0.2703
 7918TIP3    H145169   0.262   2.221  12.344  0.8547 -1.5755  0.6974
 7918TIP3    H245170   0.165   2.185  12.454 -0.0211 -0.4264  0.3127
 7919TIP3   OH245171   6.242   1.281  13.886  0.2483 -0.1279 -0.0673
 7919TIP3    H145172   6.258   1.344  13.956 -2.1020  2.4432 -1.6630
 7919TIP3    H245173   6.155   1.246  13.903  0.6251 -1.2999 -0.4336
 7920TIP3   OH245174   6.195   5.762   1.598  0.8574 -0.0632  0.7508
 7920TIP3    H145175   6.240   5.841   1.627  2.5533 -1.2722  1.5899
 7920TIP3    H245176   6.194   5.768   1.503  0.6515  1.1177  0.8121
 7921TIP3   OH245177   1.088   1.675   6.511  1.0899 -0.1070 -0.5229
 7921TIP3    H145178   1.121   1.755   6.470  0.4243 -0.7709 -2.4837
 7921TIP3    H245179   1.156   1.649   6.573  1.1439  2.1445  0.4220
 7922TIP3   OH245180   1.225   2.210  15.121  0.5769 -0.0574  0.6928
 7922TIP3    H145181   1.146   2.207  15.067 -0.1753 -0.0365  1.7675
 7922TIP3    H245182   1.278   2.280  15.083 -0.9095  1.4385  1.2614
 7923TIP3   OH245183   1.686   3.364   5.665  0.5293  0.0345 -0.4180
 7923TIP3    H145184   1.684   3.405   5.752  0.0783  1.2453 -0.9745
 7923TIP3    H245185   1.663   3.435   5.605 -0.5390 -1.1120 -1.4113
 7924TIP3   OH245186   3.272   0.762  15.089  0.1536  0.2416  0.0530
 7924TIP3    H145187   3.358   0.792  15.118  0.3022 -0.8858  0.8607
 7924TIP3    H245188   3.249   0.692  15.150 -0.3783 -0.9391 -1.4326
 7925TIP3   OH245189   2.356   1.596   5.641 -0.6508  0.0849 -0.0876
 7925TIP3    H145190   2.408   1.669   5.606 -1.5835  0.3270 -1.0462
 7925TIP3    H245191   2.266   1.630   5.643 -0.8545 -0.4822  1.0668
 7926TIP3   OH245192   4.403   2.161   0.402  0.3788  0.2098  0.2204
 7926TIP3    H145193   4.336   2.226   0.381  0.3685  0.3948  0.8130
 7926TIP3    H245194   4.356   2.094   0.453  0.6955  0.4661  0.8546
 7927TIP3   OH245195   4.498   2.504  14.301 -0.1442 -0.0106  0.3582
 7927TIP3    H145196   4.583   2.501  14.346  0.3770 -3.0276 -0.6406
 7927TIP3    H245197   4.506   2.579  14.242  1.9905 -0.3833  0.0670
 7928TIP3   OH245198   4.033   4.642  11.916  0.0845  0.0277 -0.2331
 7928TIP3    H145199   4.098   4.585  11.874 -0.3617 -0.0968 -0.7656
 7928TIP3    H245200   3.994   4.587  11.984 -0.5696 -0.4252 -0.9529
 7929TIP3   OH245201   2.919   2.800  14.268  0.6084 -0.2738 -0.2733
 7929TIP3    H145202   2.890   2.816  14.357  1.9101  1.7558 -0.1207
 7929TIP3    H245203   2.849   2.751  14.227 -0.8508  0.3705  1.3465
 7930TIP3   OH245204   1.143   4.631   2.382 -0.0993 -0.3819 -0.2466
 7930TIP3    H145205   1.152   4.538   2.405 -2.8838 -0.4567  0.8635
 7930TIP3    H245206   1.058   4.637   2.340  0.6468  1.5011 -1.6079
 7931TIP3   OH245207   0.696   2.813  11.503 -0.4552 -0.2702 -0.0828
 7931TIP3    H145208   0.614   2.834  11.458  0.3694 -0.7203 -1.8701
 7931TIP3    H245209   0.736   2.898  11.521 -0.9813 -0.0737  0.2103
 7932TIP3   OH245210   2.968   6.392  15.765 -0.0486  0.0210 -0.3377
 7932TIP3    H145211   3.039   6.368  15.705 -0.3373 -1.0700 -0.2685
 7932TIP3    H245212   2.913   6.452  15.714  0.8666  0.8267 -0.4101
 7933TIP3   OH245213   3.447   1.203   0.943  0.4449  0.4652 -0.1694
 7933TIP3    H145214   3.513   1.142   0.977  2.3987  2.1169 -0.7648
 7933TIP3    H245215   3.367   1.151   0.937  1.4534 -1.4235  1.4066
 7934TIP3   OH245216   6.482   0.939   3.668  0.2377 -0.7204  0.0333
 7934TIP3    H145217   6.575   0.943   3.644  0.1265 -0.9082 -0.4399
 7934TIP3    H245218   6.436   0.963   3.588 -0.2218 -3.6700 -0.7035
 7935TIP3   OH245219   3.448   2.669  11.710  0.0875  0.1998 -0.5812
 7935TIP3    H145220   3.366   2.620  11.712  0.0150  0.3455  1.3892
 7935TIP3    H245221   3.429   2.749  11.759  1.1567  0.6707 -0.9144
 7936TIP3   OH245222   1.458   1.053   4.157  0.1230 -0.3122  0.8883
 7936TIP3    H145223   1.468   1.145   4.180 -1.4328  0.4861 -1.3437
 7936TIP3    H245224   1.523   1.008   4.211 -0.0308  1.8831  3.1166
 7937TIP3   OH245225   0.509   3.654  14.706 -0.5111 -0.4759  0.2388
 7937TIP3    H145226   0.445   3.670  14.636 -0.7112  0.9540  0.7194
 7937TIP3    H245227   0.495   3.563  14.731 -0.3494 -1.0757 -1.6608
 7938TIP3   OH245228   5.026   0.010  16.362 -0.5754 -0.2733 -0.2899
 7938TIP3    H145229   5.068   0.087  16.402 -1.0307  0.4275 -1.1200
 7938TIP3    H245230   4.933   0.032  16.362 -0.8585 -1.3658  0.5847
 7939TIP3   OH245231   3.626   3.183   3.248  0.3696 -0.1509 -0.7364
 7939TIP3    H145232   3.720   3.169   3.233  0.4359 -0.2034 -0.3032
 7939TIP3    H245233   3.586   3.097   3.235  0.3731 -0.1148 -0.9838
 7940TIP3   OH245234   5.564   2.371   3.055  0.4168  0.0460  0.2521
 7940TIP3    H145235   5.589   2.289   3.097 -0.0610 -0.3116 -0.1519
 7940TIP3    H245236   5.642   2.399   3.007  0.1570 -0.9157 -0.7728
 7941TIP3   OH245237   5.040   5.686  16.780 -0.4459 -0.0007 -0.5726
 7941TIP3    H145238   4.965   5.631  16.802 -0.4322  0.4060  0.5186
 7941TIP3    H245239   5.003   5.756  16.727 -0.9632  0.5510  0.4901
 7942TIP3   OH245240   2.588   0.196  12.155 -0.4369  0.2906 -0.7329
 7942TIP3    H145241   2.609   0.250  12.230  1.7459 -0.1207 -0.9667
 7942TIP3    H245242   2.669   0.193  12.104 -0.8919 -1.9905 -1.4660
 7943TIP3   OH245243   0.966   2.184  10.594  0.0703  0.2229 -0.5358
 7943TIP3    H145244   0.897   2.220  10.538 -0.1961 -1.6112 -1.4584
 7943TIP3    H245245   0.954   2.089  10.590  3.3447 -0.2710 -1.6890
 7944TIP3   OH245246   4.329   6.246  11.423 -0.4169 -0.3055  0.1380
 7944TIP3    H145247   4.338   6.154  11.399  1.9912 -0.4789  1.4212
 7944TIP3    H245248   4.348   6.249  11.516 -0.3566  1.4932  0.1069
 7945TIP3   OH245249   2.719   0.583   5.338  0.0226 -0.4351 -0.3076
 7945TIP3    H145250   2.771   0.521   5.287  0.5987 -0.3398  0.1536
 7945TIP3    H245251   2.688   0.532   5.413  0.7087 -0.1182  0.2082
 7946TIP3   OH245252   1.022   3.818   2.525  0.2312 -0.0907  0.7010
 7946TIP3    H145253   0.933   3.851   2.512  0.8593  2.1932  1.7576
 7946TIP3    H245254   1.042   3.837   2.616  1.2914 -1.9806  0.9128
 7947TIP3   OH245255   5.577   2.568  15.472  0.4787  0.8374  0.2242
 7947TIP3    H145256   5.581   2.602  15.382 -1.2371 -0.0825 -0.2524
 7947TIP3    H245257   5.500   2.610  15.510 -0.9696 -1.4525  0.0270
 7948TIP3   OH245258   3.205   2.346  14.739 -0.5604 -0.3619 -0.0946
 7948TIP3    H145259   3.265   2.417  14.762  0.2475 -1.6619  2.1765
 7948TIP3    H245260   3.229   2.321  14.650  1.8757 -0.4385  0.5247
 7949TIP3   OH245261   4.169   0.717   5.616 -0.4194 -0.2546  0.0727
 7949TIP3    H145262   4.106   0.789   5.614  0.2830  0.3773 -2.5650
 7949TIP3    H245263   4.247   0.754   5.657 -0.6962 -0.1082  0.4736
 7950TIP3   OH245264   5.339   0.297   4.203 -0.4953  0.4949  0.5793
 7950TIP3    H145265   5.385   0.258   4.129 -0.2671  0.9436  0.4809
 7950TIP3    H245266   5.342   0.391   4.186 -1.0471  0.5585  0.8057
 7951TIP3   OH245267   3.686   0.119   1.331 -0.0378 -0.5097  0.0290
 7951TIP3    H145268   3.655   0.169   1.406 -0.2440  0.4340 -0.6622
 7951TIP3    H245269   3.629   0.145   1.259 -0.1486 -1.7527 -0.3673
 7952TIP3   OH245270   6.134   1.620  16.406  0.0116 -0.3860 -0.1611
 7952TIP3    H145271   6.111   1.691  16.345  0.6682  0.9812  1.1332
 7952TIP3    H245272   6.065   1.555  16.393 -0.2793  0.2008 -1.8224
 7953TIP3   OH245273   5.371   0.911  16.761  0.2327  0.4466 -0.6680
 7953TIP3    H145274   5.321   0.974  16.812  0.9571  0.4883  0.0180
 7953TIP3    H245275   5.333   0.826  16.783  3.1327 -0.1257  3.4490
 7954TIP3   OH245276   1.780   2.022   1.376  0.7564  0.0787  0.5425
 7954TIP3    H145277   1.715   1.958   1.404  1.6726 -0.1621  2.2226
 7954TIP3    H245278   1.855   1.969   1.348  0.6827  0.3853 -0.2673
 7955TIP3   OH245279   1.420   5.100   0.323 -0.3697 -0.0655  0.1261
 7955TIP3    H145280   1.409   5.012   0.288 -0.2776 -0.7260  1.7218
 7955TIP3    H245281   1.394   5.094   0.414 -3.0426  2.2015 -0.3628
 7956TIP3   OH245282   6.113   1.911   2.946 -0.3982  0.2341 -0.2001
 7956TIP3    H145283   6.032   1.941   2.904 -1.0705 -2.3451 -0.9580
 7956TIP3    H245284   6.141   1.984   3.001 -2.1134  1.9575 -1.4998
 7957TIP3   OH245285   3.841   1.148   6.406  0.6387 -0.1582 -0.5799
 7957TIP3    H145286   3.816   1.120   6.318 -1.6361 -0.2338  0.0260
 7957TIP3    H245287   3.781   1.101   6.464  1.8334  0.1743  1.0015
 7958TIP3   OH245288   0.966   3.723   2.868 -0.6975  0.5686 -0.3608
 7958TIP3    H145289   0.881   3.762   2.849 -0.2488  0.6793 -2.3341
 7958TIP3    H245290   0.945   3.634   2.897 -1.5173  0.9004  0.0913
 7959TIP3   OH245291   4.337   0.686  16.474 -0.4173  0.0975 -0.0638
 7959TIP3    H145292   4.408   0.727  16.424 -1.8242  0.7804 -1.6107
 7959TIP3    H245293   4.361   0.699  16.565  1.3453  0.4649 -0.5445
 7960TIP3   OH245294   4.130   4.615  12.361  0.2312  0.0602  0.7993
 7960TIP3    H145295   4.132   4.585  12.271  1.3614  2.1835  0.0574
 7960TIP3    H245296   4.214   4.589  12.398 -0.3468 -1.0771  1.3860
 7961TIP3   OH245297   6.412   3.903  11.379 -0.7358  0.2483  0.2935
 7961TIP3    H145298   6.425   3.993  11.350  2.0544 -0.6736 -1.7368
 7961TIP3    H245299   6.317   3.892  11.381 -1.1268  2.7517 -1.0061
 7962TIP3   OH245300   5.057   2.390  11.059  0.2583  0.4816 -0.3510
 7962TIP3    H145301   5.105   2.336  10.995 -0.4898 -0.4774 -0.1120
 7962TIP3    H245302   4.965   2.382  11.034 -0.4724 -2.4316  2.5859
 7963TIP3   OH245303   4.753   5.963  14.839 -0.3915  0.0194 -0.5981
 7963TIP3    H145304   4.731   6.031  14.903  1.5617  1.6411 -1.5540
 7963TIP3    H245305   4.791   5.892  14.892  1.5993  1.5105  0.1016
 7964TIP3   OH245306   6.422   6.475  12.601  0.1343 -0.1600 -0.4065
 7964TIP3    H145307   6.395   6.546  12.542 -1.1541 -2.3158 -2.5881
 7964TIP3    H245308   6.498   6.435  12.558 -0.6355 -1.5841 -0.4893
 7965TIP3   OH245309   0.749   3.443  12.572 -0.5280  0.5492 -0.1274
 7965TIP3    H145310   0.658   3.472  12.574 -0.3399  1.4889 -2.3666
 7965TIP3    H245311   0.770   3.420  12.663 -1.9558  3.5254  1.0558
 7966TIP3   OH245312   5.206   3.723  16.279 -0.7578 -0.2976 -0.5599
 7966TIP3    H145313   5.129   3.730  16.337 -1.5087 -0.1616 -1.5545
 7966TIP3    H245314   5.189   3.645  16.226  0.7800 -1.4927  0.5955
 7967TIP3   OH245315   3.299   6.273  12.835  0.0921 -0.0319  0.3254
 7967TIP3    H145316   3.360   6.339  12.800 -0.5688  0.9871  1.0215
 7967TIP3    H245317   3.318   6.194  12.785  0.8288  0.7219 -0.6327
 7968TIP3   OH245318   5.161   0.670   6.263 -0.1500  0.4921  0.1006
 7968TIP3    H145319   5.194   0.665   6.353 -1.3013  0.2896  0.5219
 7968TIP3    H245320   5.144   0.763   6.249 -0.8820  0.4181  0.4415
 7969TIP3   OH245321   0.226   1.476  13.249  0.0148  0.0721 -0.1238
 7969TIP3    H145322   0.194   1.551  13.200 -0.4197 -0.7562 -1.1588
 7969TIP3    H245323   0.309   1.505  13.287 -1.1210  1.7189  1.2171
 7970TIP3   OH245324   5.137   5.997   0.907  0.6417  0.7043  0.3181
 7970TIP3    H145325   5.069   6.042   0.857  0.0763 -0.9604 -0.5095
 7970TIP3    H245326   5.122   6.024   0.997 -0.3666  1.2976 -0.0073
 7971TIP3   OH245327   0.998   3.180   2.469  0.2023 -0.1485 -0.2403
 7971TIP3    H145328   1.057   3.145   2.402 -0.2072 -0.2672 -0.5407
 7971TIP3    H245329   0.911   3.155   2.439 -0.2090  2.0209 -1.0390
 7972TIP3   OH245330   3.862   0.726   2.382 -0.3963  0.1844 -0.0907
 7972TIP3    H145331   3.770   0.729   2.357 -0.6082  1.0825  0.7287
 7972TIP3    H245332   3.861   0.717   2.477  0.3659 -0.0220 -0.0909
 7973TIP3   OH245333   6.001   2.994  13.583  0.5502  0.5663  0.2104
 7973TIP3    H145334   5.910   3.024  13.577  0.0842 -0.7307  0.5260
 7973TIP3    H245335   6.007   2.951  13.668  1.2002 -0.1798 -0.1963
 7974TIP3   OH245336   0.014   6.155   6.274 -0.5016 -0.1389  0.5128
 7974TIP3    H145337  -0.065   6.112   6.241 -2.0764  1.9818  1.3357
 7974TIP3    H245338  -0.010   6.247   6.281  0.6770  0.0532  4.5990
 7975TIP3   OH245339   1.943   0.099  12.293  0.3410 -0.0570  0.2171
 7975TIP3    H145340   1.858   0.115  12.252  0.3061  1.7250  0.9011
 7975TIP3    H245341   2.000   0.074  12.220 -0.2664  0.8246 -0.5988
 7976TIP3   OH245342   5.162   1.573  14.628 -0.0944  0.1999 -0.0430
 7976TIP3    H145343   5.220   1.613  14.563  2.1191  1.0493  2.2863
 7976TIP3    H245344   5.186   1.615  14.710 -1.6330 -1.9643  1.6238
 7977TIP3   OH245345   1.121   4.827  14.089  0.4450  0.0812  0.0379
 7977TIP3    H145346   1.165   4.838  14.174 -1.0329  0.1320  0.8298
 7977TIP3    H245347   1.182   4.864  14.026  1.8354 -0.4725  1.0003
 7978TIP3   OH245348   2.197   2.312  15.651 -0.0850  0.0405 -0.3940
 7978TIP3    H145349   2.262   2.329  15.582 -0.0598 -0.5275 -0.5107
 7978TIP3    H245350   2.156   2.230  15.626 -1.1558  0.6032 -0.5465
 7979TIP3   OH245351   3.397   4.328   5.796  0.2232 -0.3549 -0.1731
 7979TIP3    H145352   3.471   4.389   5.796  0.1926 -0.2740  1.9524
 7979TIP3    H245353   3.435   4.245   5.825 -0.7013 -0.0291  2.0834
 7980TIP3   OH245354   6.148   4.758   4.153  0.0940  0.6126 -0.2172
 7980TIP3    H145355   6.090   4.764   4.229  1.8232 -1.4468  1.3997
 7980TIP3    H245356   6.108   4.694   4.096 -0.1487  0.5762 -0.0049
 7981TIP3   OH245357   3.092   5.762   3.265  0.0384 -0.0824  0.3595
 7981TIP3    H145358   3.023   5.819   3.232  0.0744 -0.6043 -0.6559
 7981TIP3    H245359   3.161   5.822   3.292  0.6858  0.3644 -2.0411
 7982TIP3   OH245360   6.108   4.043  14.476  0.3488 -0.0030 -0.0833
 7982TIP3    H145361   6.086   3.999  14.394 -0.3464  2.1845 -1.1398
 7982TIP3    H245362   6.178   4.104  14.452  0.9814 -0.1950  1.2257
 7983TIP3   OH245363   5.806   6.627  15.661 -0.0700 -0.4510  0.2471
 7983TIP3    H145364   5.877   6.596  15.605 -0.7505  0.0933 -0.9418
 7983TIP3    H245365   5.834   6.713  15.691 -0.6627  0.2151 -1.0632
 7984TIP3   OH245366   5.338   3.762  15.688 -0.6196  0.1336 -0.2096
 7984TIP3    H145367   5.394   3.839  15.687 -0.8409  0.3041  0.2041
 7984TIP3    H245368   5.339   3.732  15.779 -2.4694  1.0897  0.1705
 7985TIP3   OH245369   0.064   4.009  10.995  0.4054 -0.5842  0.4753
 7985TIP3    H145370   0.157   3.991  11.011  0.3862 -0.7597  0.3907
 7985TIP3    H245371   0.049   3.982  10.905  0.2207 -0.7667  0.5584
 7986TIP3   OH245372   3.963   2.447  15.050  0.5842 -0.4769 -0.1308
 7986TIP3    H145373   3.968   2.376  14.985  3.5742 -2.1026  1.6440
 7986TIP3    H245374   4.049   2.488  15.047  0.7602 -0.4645  2.5538
 7987TIP3   OH245375   3.930   2.355   3.547 -0.3315 -0.3175  0.5297
 7987TIP3    H145376   3.938   2.343   3.642 -0.3594 -1.7453  0.3586
 7987TIP3    H245377   3.993   2.424   3.527  0.4410 -0.7439  1.4316
 7988TIP3   OH245378   6.568   4.283  16.209  0.6538  0.5384 -0.2893
 7988TIP3    H145379   6.587   4.282  16.303 -1.2700 -1.3161  0.1620
 7988TIP3    H245380   6.598   4.198  16.178 -0.7094  0.2454 -0.8752
 7989TIP3   OH245381   1.639   4.843   4.319 -0.2000 -0.2230  0.2357
 7989TIP3    H145382   1.656   4.916   4.378 -0.1834  0.8862 -1.0905
 7989TIP3    H245383   1.726   4.814   4.291 -0.2416  0.0830 -0.2155
 7990TIP3   OH245384   2.472   1.267  11.753 -0.0892 -0.9107 -0.9175
 7990TIP3    H145385   2.525   1.341  11.782 -1.4837  0.7808 -2.4666
 7990TIP3    H245386   2.530   1.217  11.695  0.5978 -0.5805 -0.5293
 7991TIP3   OH245387   6.341   4.143  14.696  0.2872 -0.2093 -0.0359
 7991TIP3    H145388   6.413   4.197  14.664  1.4104  0.0698  2.6660
 7991TIP3    H245389   6.364   4.054  14.670 -0.2850  0.2563 -2.3166
 7992TIP3   OH245390   4.742   5.464  12.960  0.3127  0.3497 -0.3425
 7992TIP3    H145391   4.655   5.501  12.974  0.2756 -0.0633  0.5631
 7992TIP3    H245392   4.802   5.537  12.973  0.2484  0.1099  1.5918
 7993TIP3   OH245393   6.673   6.276  15.588 -0.0117  0.2100  0.0010
 7993TIP3    H145394   6.759   6.302  15.621 -0.5415  2.4111 -0.2326
 7993TIP3    H245395   6.664   6.323  15.505 -1.7513  0.6389  0.4017
 7994TIP3   OH245396   2.573   2.318  16.448  0.1964  0.2229 -0.0082
 7994TIP3    H145397   2.578   2.405  16.488  0.1050 -0.7773  2.3690
 7994TIP3    H245398   2.482   2.309  16.420  0.6669  1.6195 -2.1912
 7995TIP3   OH245399   5.104   6.105  11.732  0.3938  0.0229  0.6038
 7995TIP3    H145400   5.182   6.054  11.752  1.2926  0.5531 -1.3831
 7995TIP3    H245401   5.101   6.172  11.801  0.2429 -1.5038  2.1327
 7996TIP3   OH245402   1.391   3.457   2.886  0.2918 -0.2338  0.5822
 7996TIP3    H145403   1.361   3.540   2.923  1.6541  0.5760 -0.0632
 7996TIP3    H245404   1.483   3.451   2.911  0.3744 -1.2519  0.1000
 7997TIP3   OH245405   1.270   3.750   1.042 -0.0670  0.1199  0.1930
 7997TIP3    H145406   1.237   3.798   0.966  0.6385 -0.7855 -0.7195
 7997TIP3    H245407   1.203   3.761   1.109 -1.6426 -0.6572 -1.2033
 7998TIP3   OH245408   2.089   1.039  13.850 -0.1196  0.1891 -0.1432
 7998TIP3    H145409   2.167   0.993  13.880  0.3131  1.0999  0.1745
 7998TIP3    H245410   2.016   0.982  13.874  0.3868 -0.2585  0.3589
 7999TIP3   OH245411   4.349   4.175  15.724 -0.2121 -0.1018 -0.0789
 7999TIP3    H145412   4.306   4.202  15.643  1.7196  0.0746 -1.1258
 7999TIP3    H245413   4.443   4.188  15.706  0.3478 -1.2608  1.7449
 8000TIP3   OH245414   3.298   2.152   4.123  0.4758 -0.2397  0.2285
 8000TIP3    H145415   3.215   2.106   4.132 -0.0096  0.2832 -1.3201
 8000TIP3    H245416   3.363   2.083   4.110 -0.2704 -0.5525 -2.2797
 8001TIP3   OH245417   4.262   0.945  12.229  0.4044  0.2398 -0.4999
 8001TIP3    H145418   4.319   0.868  12.224  0.1388 -0.0181  0.3250
 8001TIP3    H245419   4.308   1.004  12.290  0.8699  0.9694 -1.5292
 8002TIP3   OH245420   5.553   6.544  15.189 -0.2089  0.3908 -0.8812
 8002TIP3    H145421   5.497   6.556  15.266  1.8487  0.1947  0.7164
 8002TIP3    H245422   5.580   6.632  15.165 -0.1264  0.3861 -0.8064
 8003TIP3   OH245423   5.688   4.687   0.432 -0.5109  0.0541 -0.0851
 8003TIP3    H145424   5.774   4.712   0.465 -0.4273 -0.5399  0.1701
 8003TIP3    H245425   5.626   4.722   0.497 -0.2919 -2.0788  1.3786
 8004TIP3   OH245426   0.400   2.084  12.037  0.2572  0.2950 -0.1607
 8004TIP3    H145427   0.455   2.042  11.971  0.6026 -0.4870  0.6023
 8004TIP3    H245428   0.362   2.011  12.087  0.4740  0.8610  0.8663
 8005TIP3   OH245429   4.480   2.625  15.490 -0.1818 -0.7379  0.2918
 8005TIP3    H145430   4.451   2.690  15.426  1.0508 -1.4911 -1.1063
 8005TIP3    H245431   4.406   2.617  15.551 -0.2858  2.0792  0.6575
 8006TIP3   OH245432   4.102   0.338  13.282 -0.4442  0.1137  0.1162
 8006TIP3    H145433   4.144   0.362  13.200  2.1857 -1.5154  0.8805
 8006TIP3    H245434   4.009   0.327  13.260  0.4653 -2.4615 -3.1667
 8007TIP3   OH245435   0.355   2.060   1.484 -0.7048 -0.1409 -0.0733
 8007TIP3    H145436   0.264   2.084   1.470 -0.3433  2.0062  0.8251
 8007TIP3    H245437   0.352   1.976   1.530 -2.2610  0.3454  0.7562
 8008TIP3   OH245438   6.568   1.510   2.206 -0.2128 -0.4131 -0.0601
 8008TIP3    H145439   6.633   1.558   2.257  0.4871 -1.5306  0.1266
 8008TIP3    H245440   6.559   1.561   2.125  1.5628 -0.6885 -0.4821
 8009TIP3   OH245441   4.662   6.689   1.224  0.7977  0.2394 -0.2176
 8009TIP3    H145442   4.725   6.623   1.253 -0.0845 -0.7258 -0.4362
 8009TIP3    H245443   4.711   6.771   1.227  1.7998 -0.3535  0.4622
 8010TIP3   OH245444   1.915   3.445  15.623 -0.5678 -0.3311  0.2943
 8010TIP3    H145445   1.923   3.361  15.576 -0.2598  0.7209 -1.6442
 8010TIP3    H245446   2.006   3.475  15.633 -0.7378  1.9902 -3.4155
 8011TIP3   OH245447   4.195   6.082   4.934  0.4868 -0.0259 -0.9457
 8011TIP3    H145448   4.113   6.133   4.928  0.4292 -0.0717 -0.5851
 8011TIP3    H245449   4.264   6.147   4.920  0.3997  0.0737 -0.9190
 8012TIP3   OH245450   3.137   3.023   1.335 -1.2048 -0.0238  0.5521
 8012TIP3    H145451   3.080   3.064   1.399 -1.0606 -1.2688  1.5229
 8012TIP3    H245452   3.187   2.959   1.386  0.7984  0.7638 -0.3248
 8013TIP3   OH245453   4.486   0.856  11.620 -0.6474 -0.1437  0.5553
 8013TIP3    H145454   4.459   0.923  11.557  1.3350  0.0195 -0.2186
 8013TIP3    H245455   4.547   0.801  11.571 -0.1084 -0.8432  1.9637
 8014TIP3   OH245456   2.156   5.120  16.871 -0.0905  0.0783 -0.0759
 8014TIP3    H145457   2.089   5.160  16.816 -0.3063  1.6222  1.2309
 8014TIP3    H245458   2.145   5.162  16.956  0.8662 -1.5307  0.8797
 8015TIP3   OH245459   2.960   4.761   1.319  0.0163  0.1259 -0.3172
 8015TIP3    H145460   3.040   4.771   1.371  0.0347 -0.0482 -0.3128
 8015TIP3    H245461   2.983   4.700   1.249 -0.1557 -0.0448 -0.2273
 8016TIP3   OH245462   1.290   6.331  15.404  0.1342  0.3170 -0.4848
 8016TIP3    H145463   1.340   6.265  15.452 -0.4370  1.1044  1.2935
 8016TIP3    H245464   1.333   6.414  15.427 -0.8322  0.8140 -0.4374
 8017TIP3   OH245465   0.343   6.195   0.391 -0.4294 -0.0385  0.1838
 8017TIP3    H145466   0.431   6.159   0.394  0.0122  0.9903  0.0095
 8017TIP3    H245467   0.344   6.267   0.455 -1.2588 -0.2682  0.4716
 8018TIP3   OH245468   4.896   3.089   3.665 -0.3296 -0.2287  0.7514
 8018TIP3    H145469   4.863   3.109   3.752  2.8054 -2.3227  2.6324
 8018TIP3    H245470   4.923   2.997   3.670 -0.1972 -0.5067 -2.5366
 8019TIP3   OH245471   4.233   1.176  15.025  0.4824  0.5470 -0.1243
 8019TIP3    H145472   4.274   1.156  15.109  1.3088  1.0715 -0.3858
 8019TIP3    H245473   4.307   1.198  14.967 -0.2174  3.1756 -0.1699
 8020TIP3   OH245474   5.854   6.151  11.549 -0.4344  0.1819  0.0775
 8020TIP3    H145475   5.919   6.117  11.487 -0.6176 -0.8913  0.4552
 8020TIP3    H245476   5.823   6.232  11.509 -0.7530 -0.6231 -1.3845
 8021TIP3   OH245477   0.961   2.028  17.374 -0.2719  0.0308  0.1359
 8021TIP3    H145478   0.992   1.938  17.385 -0.8884 -0.1006  0.8316
 8021TIP3    H245479   1.032   2.071  17.327  1.0975 -0.2172  1.8670
 8022TIP3   OH245480   6.264   1.827   4.761 -0.1185 -0.2529 -0.3357
 8022TIP3    H145481   6.224   1.742   4.782 -0.5994  0.5041  2.1113
 8022TIP3    H245482   6.196   1.874   4.714  0.3521 -1.3689 -2.2527
 8023TIP3   OH245483   6.092   6.528  14.057 -0.6903 -0.5100 -0.0648
 8023TIP3    H145484   6.168   6.537  14.114 -1.5338 -0.4388  1.0894
 8023TIP3    H245485   6.044   6.454  14.093 -1.2132 -0.4983 -0.7267
 8024TIP3   OH245486   0.325   2.306  15.641 -0.4263 -0.2233  0.3730
 8024TIP3    H145487   0.411   2.271  15.661  0.6524  2.3260  0.6533
 8024TIP3    H245488   0.330   2.398  15.668 -3.0821  0.1321 -0.0595
 8025TIP3   OH245489   5.170   4.513  11.489  0.0690 -0.2326 -0.5577
 8025TIP3    H145490   5.093   4.535  11.541  0.7872  0.1753  0.3429
 8025TIP3    H245491   5.141   4.525  11.398 -0.6326  0.8767 -0.2058
 8026TIP3   OH245492   3.589   5.782   0.120  0.4218 -0.3608 -0.0506
 8026TIP3    H145493   3.608   5.842   0.191 -0.3214 -2.9894  2.5771
 8026TIP3    H245494   3.510   5.736   0.148 -0.6829 -0.6676 -3.2281
 8027TIP3   OH245495   6.108   0.722   5.046  0.1371 -0.8206 -0.2222
 8027TIP3    H145496   6.170   0.650   5.056 -0.6838 -1.4534  0.5102
 8027TIP3    H245497   6.023   0.680   5.031 -0.5767 -0.0821  1.3899
 8028TIP3   OH245498   3.492   3.441   0.879  0.5014  0.2594  0.0583
 8028TIP3    H145499   3.411   3.477   0.915 -0.6296 -2.2142  0.1676
 8028TIP3    H245500   3.506   3.491   0.798 -1.0059  0.8998  0.1591
 8029TIP3   OH245501   3.522   2.654   5.566  0.2001 -0.5732 -0.3527
 8029TIP3    H145502   3.539   2.678   5.658  1.6887 -0.2642 -0.6804
 8029TIP3    H245503   3.488   2.734   5.527  0.0532 -0.5536 -0.1876
 8030TIP3   OH245504   6.426   6.196  12.376 -0.2645  0.1628  0.5524
 8030TIP3    H145505   6.338   6.231  12.385  0.2607  2.0403 -1.0380
 8030TIP3    H245506   6.413   6.106  12.344 -1.5857 -0.4172  2.5533
 8031TIP3   OH245507   5.673   4.078   1.145  0.0661  0.1067 -0.3518
 8031TIP3    H145508   5.662   4.161   1.098 -0.0005 -0.3684 -1.1861
 8031TIP3    H245509   5.758   4.086   1.187 -0.7917  1.4171  1.2612
 8032TIP3   OH245510   3.387   2.202   6.670 -0.1055 -0.4672 -0.3154
 8032TIP3    H145511   3.425   2.287   6.649  0.9321 -0.8377  0.0046
 8032TIP3    H245512   3.438   2.139   6.620 -0.8746 -0.9130 -0.5643
 8033TIP3   OH245513   1.785   0.025   4.544  0.6945  0.3129  0.3362
 8033TIP3    H145514   1.706  -0.015   4.581  0.6902  1.7201  1.9877
 8033TIP3    H245515   1.845  -0.049   4.530 -0.5739 -0.6627 -0.1040
 8034TIP3   OH245516   1.934   0.758   4.699  0.3124  0.0896 -0.2740
 8034TIP3    H145517   1.938   0.668   4.668 -0.3901  0.3754 -1.2692
 8034TIP3    H245518   2.001   0.804   4.647  0.7228  0.1315  0.2840
 8035TIP3   OH245519   1.401   5.243  11.641  0.0296  0.2909  0.3532
 8035TIP3    H145520   1.383   5.149  11.644 -1.1104  0.4679 -0.4962
 8035TIP3    H245521   1.469   5.256  11.708 -1.3170 -0.7872  2.0292
 8036TIP3   OH245522   0.289   6.122   6.398  0.0659  0.3703  0.0754
 8036TIP3    H145523   0.195   6.117   6.383  0.0698  1.4909 -0.4539
 8036TIP3    H245524   0.311   6.041   6.444 -0.6908 -1.2637 -2.2490
 8037TIP3   OH245525   6.439   4.045   5.634 -0.1724 -0.2554 -0.1816
 8037TIP3    H145526   6.393   4.055   5.717  0.1675 -2.6109  0.3386
 8037TIP3    H245527   6.385   3.984   5.584  1.4632 -1.7380 -0.2299
 8038TIP3   OH245528   1.677   2.162  12.243 -0.7786 -0.0505 -0.1605
 8038TIP3    H145529   1.623   2.238  12.223  0.2373  0.8974  0.6057
 8038TIP3    H245530   1.736   2.191  12.313 -0.4286 -1.5661  0.2170
 8039TIP3   OH245531   1.706   3.582   1.276  0.3929  0.1853  0.1081
 8039TIP3    H145532   1.613   3.580   1.251  0.7166 -0.0861 -1.1737
 8039TIP3    H245533   1.743   3.654   1.225  1.0870 -0.3712 -0.1934
 8040TIP3   OH245534   5.285   1.906  12.807  0.1343  0.0196 -0.2704
 8040TIP3    H145535   5.290   1.912  12.712 -0.3852 -0.7372 -0.3577
 8040TIP3    H245536   5.214   1.843  12.824 -0.5064  0.9443  0.6328
 8041TIP3   OH245537   1.805   0.842  16.125 -0.4306 -0.0164 -0.4245
 8041TIP3    H145538   1.847   0.829  16.210  0.8641  0.1399 -1.0097
 8041TIP3    H245539   1.720   0.879  16.145 -0.8915 -1.6490  0.8963
 8042TIP3   OH245540   1.604   4.493  16.576  0.1953 -0.0509  0.6390
 8042TIP3    H145541   1.672   4.448  16.626  1.8791  0.1394 -1.3476
 8042TIP3    H245542   1.566   4.426  16.521  2.9997  0.7608 -2.6391
 8043TIP3   OH245543   6.436   2.391   3.603 -0.3246  0.2510 -0.1298
 8043TIP3    H145544   6.429   2.344   3.519 -1.5643  0.8622 -0.3898
 8043TIP3    H245545   6.364   2.454   3.601  1.2356  2.1154  0.2598
 8044TIP3   OH245546   5.788   1.315  14.067  0.1384  0.3480 -1.0161
 8044TIP3    H145547   5.710   1.363  14.039  0.4364  0.2200 -2.1172
 8044TIP3    H245548   5.766   1.223  14.054  0.9277  0.3565 -2.6522
 8045TIP3   OH245549   4.042   6.037   6.434  0.4513  0.1844  0.2961
 8045TIP3    H145550   3.976   5.969   6.418  0.4020 -0.1526  1.7634
 8045TIP3    H245551   4.020   6.071   6.521  0.5164  2.0608 -0.3793
 8046TIP3   OH245552   6.239   5.344  14.455  0.0319  0.5542 -0.1505
 8046TIP3    H145553   6.298   5.274  14.425 -0.8917 -0.1443 -0.3941
 8046TIP3    H245554   6.296   5.404  14.503  0.6282 -1.0841  1.3061
 8047TIP3   OH245555   2.811   2.957  16.682 -0.5806 -0.1796  0.0829
 8047TIP3    H145556   2.785   3.025  16.745 -0.1709 -0.9342  1.0932
 8047TIP3    H245557   2.901   2.981  16.658 -0.7832  0.1830 -0.3166
 8048TIP3   OH245558   1.521   0.762   3.931 -0.7306 -0.4174  0.2992
 8048TIP3    H145559   1.458   0.745   4.002 -0.0026 -1.6588  0.6760
 8048TIP3    H245560   1.471   0.743   3.851 -1.0815 -0.6165  0.5578
 8049TIP3   OH245561   6.418   6.594  12.091 -0.0212  0.4973  0.0878
 8049TIP3    H145562   6.491   6.534  12.105 -0.2994 -0.1339 -1.0652
 8049TIP3    H245563   6.345   6.554  12.139 -0.7627 -1.2508 -2.2708
 8050TIP3   OH245564   3.301   6.291   0.775 -0.8060  0.1302 -0.2749
 8050TIP3    H145565   3.380   6.256   0.816 -1.7617 -0.8729  0.8115
 8050TIP3    H245566   3.330   6.368   0.726  1.0797 -1.0630 -1.1387
 8051TIP3   OH245567   5.980   3.265  17.173 -0.0598 -0.1108 -0.6399
 8051TIP3    H145568   5.965   3.342  17.228  0.6058 -0.6073  0.2649
 8051TIP3    H245569   5.912   3.203  17.200 -1.2013  0.4573 -2.0276
 8052TIP3   OH245570   5.506   3.510  15.455  0.6889  0.1341  0.2212
 8052TIP3    H145571   5.482   3.473  15.540  2.4036 -0.2233  0.5921
 8052TIP3    H245572   5.599   3.490  15.446  0.5411  0.1187 -1.7763
 8053TIP3   OH245573   2.338   2.686  16.636  0.0489  0.3643 -0.7590
 8053TIP3    H145574   2.314   2.770  16.675  0.9597 -0.3516  1.5259
 8053TIP3    H245575   2.434   2.688  16.633  0.1117 -0.8496  0.0024
 8054TIP3   OH245576   0.029   4.806   3.587 -0.0419 -0.1409 -0.2529
 8054TIP3    H145577   0.069   4.764   3.663  1.6247 -0.3878 -1.2271
 8054TIP3    H245578   0.066   4.761   3.511 -1.7192  0.0551 -1.2413
 8055TIP3   OH245579   6.209   3.426   5.663 -0.0528  0.0923  0.3258
 8055TIP3    H145580   6.204   3.362   5.591 -2.1923 -0.4235  0.8488
 8055TIP3    H245581   6.258   3.382   5.732 -2.0903 -1.3579  0.9456
 8056TIP3   OH245582   3.126   5.928  11.689  0.0764 -0.5421 -0.5309
 8056TIP3    H145583   3.112   6.000  11.628 -0.3672  0.8891  1.2013
 8056TIP3    H245584   3.044   5.921  11.738  2.1214  2.3512  3.9556
 8057TIP3   OH245585   0.754   6.473   3.371 -0.2008  0.4179 -0.3044
 8057TIP3    H145586   0.780   6.397   3.320 -0.6781  0.2688 -0.3292
 8057TIP3    H245587   0.824   6.485   3.435 -0.3285 -0.3005 -0.0210
 8058TIP3   OH245588   1.144   0.751   0.161  0.7190 -0.0834  0.6875
 8058TIP3    H145589   1.118   0.829   0.111  1.8289  0.6282  1.1648
 8058TIP3    H245590   1.192   0.698   0.098  0.0291 -0.3568  0.3807
 8059TIP3   OH245591   1.318   0.089  15.965  0.4673 -0.2197  0.5261
 8059TIP3    H145592   1.400   0.134  15.944  0.2366 -0.0142  0.0481
 8059TIP3    H245593   1.309   0.022  15.898 -1.2062  1.6402 -1.2562
 8060TIP3   OH245594   5.579   5.209  13.614 -0.1184  0.6743  0.2849
 8060TIP3    H145595   5.527   5.191  13.692 -1.4476 -0.7956 -0.8894
 8060TIP3    H245596   5.663   5.166  13.631 -0.6216 -0.1896  0.6333
 8061TIP3   OH245597   3.172   3.224   6.489 -0.2130  0.3027  0.1424
 8061TIP3    H145598   3.155   3.243   6.581 -0.1137  0.0962  0.2032
 8061TIP3    H245599   3.226   3.297   6.459 -1.1696  0.9464 -0.0434
 8062TIP3   OH245600   0.525   3.546   2.348 -0.5363 -0.1951 -0.0853
 8062TIP3    H145601   0.537   3.620   2.289  0.5134  2.3332  3.0418
 8062TIP3    H245602   0.614   3.511   2.360 -0.1406  1.4800  2.4634
 8063TIP3   OH245603   0.662   4.453  11.002 -0.4487 -0.8455 -0.0015
 8063TIP3    H145604   0.714   4.439  11.082 -1.2217  2.9254  1.4015
 8063TIP3    H245605   0.714   4.413  10.933  3.4508  0.8505  1.5881
 8064TIP3   OH245606   4.530   0.458   4.273  0.5530  0.1152 -0.2443
 8064TIP3    H145607   4.625   0.462   4.260  0.6832 -0.3392  0.5521
 8064TIP3    H245608   4.509   0.538   4.321  0.3538  0.7986 -1.4310
 8065TIP3   OH245609   4.725   4.834   6.435  0.2297 -0.7251  0.0818
 8065TIP3    H145610   4.654   4.841   6.370  0.5140 -0.3149 -0.1937
 8065TIP3    H245611   4.805   4.839   6.383  0.4618 -0.1826  0.4807
 8066TIP3   OH245612   3.931   2.631  11.590 -0.1099  0.1531  0.0117
 8066TIP3    H145613   3.924   2.608  11.498  2.0350  0.3522 -0.2531
 8066TIP3    H245614   3.977   2.557  11.630  0.3871  0.7621  0.5983
 8067TIP3   OH245615   1.770   1.001  12.482  0.4338 -0.7509 -0.0058
 8067TIP3    H145616   1.774   0.925  12.424  2.1511 -0.8335  0.1627
 8067TIP3    H245617   1.706   0.977  12.549  1.3874 -2.3455  0.3886
 8068TIP3   OH245618   3.367   0.027  16.920  0.3447 -0.3415  0.4173
 8068TIP3    H145619   3.375   0.122  16.910  2.8930 -0.5076  0.0332
 8068TIP3    H245620   3.366  -0.007  16.830  1.0544 -0.7377  0.5519
 8069TIP3   OH245621   2.562   6.079   4.843  0.4167 -0.6412  0.1973
 8069TIP3    H145622   2.552   6.044   4.932  1.8454 -1.1338  0.1893
 8069TIP3    H245623   2.656   6.092   4.833  0.1252  1.1100 -0.6260
 8070TIP3   OH245624   5.456   4.625  15.393 -1.1775  0.2390 -0.2428
 8070TIP3    H145625   5.488   4.563  15.327 -3.9117 -2.2166  0.4951
 8070TIP3    H245626   5.511   4.610  15.469  0.7020  1.6415 -1.2623
 8071TIP3   OH245627   1.783   2.367  16.882 -0.2285  0.6701 -0.1136
 8071TIP3    H145628   1.878   2.375  16.872 -0.1931 -0.0451 -0.4293
 8071TIP3    H245629   1.760   2.430  16.950  0.3797  1.3340 -0.5063
 8072TIP3   OH245630   0.086   0.535   5.063 -0.4508 -0.7532 -0.2225
 8072TIP3    H145631   0.166   0.561   5.015 -0.9541 -1.5380 -1.5473
 8072TIP3    H245632   0.054   0.458   5.016 -0.5599 -2.0753  1.8866
 8073TIP3   OH245633   5.502   1.398  13.016 -0.2242 -0.3968  0.1593
 8073TIP3    H145634   5.565   1.348  12.964  0.1167 -0.7142  0.8628
 8073TIP3    H245635   5.463   1.333  13.075 -1.5269 -0.2953 -0.5382
 8074TIP3   OH245636   6.131   6.446  15.978  0.4013 -0.1598  0.5974
 8074TIP3    H145637   6.045   6.490  15.974 -0.3785 -1.7023 -0.8815
 8074TIP3    H245638   6.183   6.489  15.910 -0.5567 -1.7956 -1.2654
 8075TIP3   OH245639   1.626   1.882  10.989 -0.3066  0.3365 -0.3990
 8075TIP3    H145640   1.553   1.841  11.034 -1.1932 -0.0431 -2.1146
 8075TIP3    H245641   1.587   1.925  10.913  1.0618  1.4160 -0.5388
 8076TIP3   OH245642   6.329   5.841   0.827 -0.2088  0.6617 -0.1463
 8076TIP3    H145643   6.303   5.930   0.804 -0.0268  0.5890 -0.6537
 8076TIP3    H245644   6.381   5.812   0.752  0.3297  0.3850  0.3333
 8077TIP3   OH245645   5.050   0.629  16.150 -0.2759  0.9179 -0.4849
 8077TIP3    H145646   5.103   0.666  16.221 -0.3667 -1.6447  1.0259
 8077TIP3    H245647   5.086   0.668  16.070 -0.2189  3.9775  0.8725
 8078TIP3   OH245648   6.586   5.581  13.283  0.5735  0.5895  0.4240
 8078TIP3    H145649   6.575   5.676  13.292  0.0459  0.5446  0.2696
 8078TIP3    H245650   6.499   5.545  13.296  1.1200 -0.0708  2.8382
 8079TIP3   OH245651   3.913   5.836   0.119 -0.2283  0.5157 -0.2836
 8079TIP3    H145652   3.948   5.826   0.031 -1.6483 -0.2609 -0.7958
 8079TIP3    H245653   3.976   5.792   0.175 -0.2745 -0.6970 -1.1498
 8080TIP3   OH245654   6.064   1.237   6.771 -0.2965 -0.1168  0.0726
 8080TIP3    H145655   6.142   1.210   6.724 -0.4868 -0.4477 -0.0527
 8080TIP3    H245656   6.083   1.327   6.800  0.9016 -0.8562  1.7271
 8081TIP3   OH245657   5.578   2.581  11.599 -0.2915 -0.2263 -0.1984
 8081TIP3    H145658   5.515   2.550  11.533 -0.3697  1.6105 -1.0487
 8081TIP3    H245659   5.658   2.531  11.580 -1.0575 -1.5959  0.0208
 8082TIP3   OH245660   6.520   3.528  13.085  0.1107  0.2112  0.5849
 8082TIP3    H145661   6.516   3.482  13.001 -1.3663  0.1961  0.6324
 8082TIP3    H245662   6.609   3.513  13.117  0.4631 -0.4081 -0.6192
 8083TIP3   OH245663   0.400   5.181  10.806 -0.4042  0.3297 -0.2155
 8083TIP3    H145664   0.438   5.267  10.825 -0.3181  0.5088 -1.1690
 8083TIP3    H245665   0.441   5.154  10.724 -2.6536  0.7184 -1.5421
 8084TIP3   OH245666   4.076   6.271  14.813 -0.2005 -0.2121  1.1317
 8084TIP3    H145667   4.027   6.329  14.755  1.0404 -0.9712 -0.7692
 8084TIP3    H245668   4.024   6.269  14.893 -2.2152  0.5739 -0.0624
 8085TIP3   OH245669   0.204   4.534  14.856  0.4596 -0.0294  0.6121
 8085TIP3    H145670   0.231   4.448  14.823  0.2513  0.1041  0.1001
 8085TIP3    H245671   0.109   4.529  14.861  0.4236  0.3021  0.2321
 8086TIP3   OH245672   2.271   5.508   5.237  0.2458 -0.5062  0.2759
 8086TIP3    H145673   2.220   5.572   5.286 -0.9589 -0.8093 -0.5312
 8086TIP3    H245674   2.355   5.505   5.282  0.2400  1.4174  0.5060
 8087TIP3   OH245675   6.727   5.363   5.391  0.1272 -0.4948 -0.2927
 8087TIP3    H145676   6.807   5.313   5.377 -0.0393 -0.1915 -2.6623
 8087TIP3    H245677   6.741   5.445   5.343 -0.8697  0.4126  0.8728
 8088TIP3   OH245678   5.731   0.811   4.575  0.5489 -0.2851  0.0226
 8088TIP3    H145679   5.720   0.716   4.585 -0.0583 -0.5437 -2.5240
 8088TIP3    H245680   5.643   0.847   4.586  0.4747 -0.2213 -0.7340
 8089TIP3   OH245681   3.076   6.599   2.244  0.4143  0.0809  0.0437
 8089TIP3    H145682   3.139   6.577   2.313  1.1502 -0.0513 -0.6549
 8089TIP3    H245683   3.046   6.687   2.267  1.1751  0.3154  0.1620
 8090TIP3   OH245684   0.555   2.291   1.770  0.0283 -0.0581 -0.1398
 8090TIP3    H145685   0.463   2.277   1.794  0.0269  0.7603  0.3508
 8090TIP3    H245686   0.562   2.385   1.754  0.7222 -0.1543 -0.4432
 8091TIP3   OH245687   4.310   0.451  11.476  1.0979 -0.3589 -0.3871
 8091TIP3    H145688   4.387   0.444  11.419  0.9514  2.4107 -1.0868
 8091TIP3    H245689   4.341   0.501  11.551  0.3150 -0.4752  0.0227
 8092TIP3   OH245690   2.498   5.449   4.908 -0.0592 -0.5620  0.7656
 8092TIP3    H145691   2.486   5.543   4.925 -0.4269 -1.1226  4.1486
 8092TIP3    H245692   2.428   5.406   4.958  0.0295 -2.6810 -0.7934
 8093TIP3   OH245693   5.010   0.857   4.625  0.0138 -0.0819  0.3464
 8093TIP3    H145694   5.070   0.798   4.670  1.7242  0.2771 -1.3417
 8093TIP3    H245695   4.966   0.905   4.696  2.6175  0.5071  1.6792
 8094TIP3   OH245696   2.616   1.184   1.287  0.3614  0.1047 -0.5936
 8094TIP3    H145697   2.600   1.093   1.311 -1.5801  0.2521 -1.1421
 8094TIP3    H245698   2.705   1.185   1.252  0.2975 -1.6463 -0.8613
 8095TIP3   OH245699   3.992   5.660  13.845  0.4809 -0.4060 -0.2410
 8095TIP3    H145700   4.078   5.685  13.877  0.3760  0.2305 -0.4416
 8095TIP3    H245701   3.998   5.566  13.828  1.1557 -0.3442 -0.3396
 8096TIP3   OH245702   4.682   2.540  14.050  0.5519  0.5793 -0.6502
 8096TIP3    H145703   4.619   2.607  14.024 -0.3169 -0.2241 -0.6713
 8096TIP3    H245704   4.629   2.461  14.063  1.1629  0.4947  1.8750
 8097TIP3   OH245705   2.532   1.565   1.587 -0.5325 -0.1479 -0.0913
 8097TIP3    H145706   2.549   1.547   1.494 -2.3490  2.6060 -1.0991
 8097TIP3    H245707   2.456   1.511   1.608  0.8368 -1.9907  0.3389
 8098TIP3   OH245708   0.468   5.867  15.819 -0.0329 -0.1561  0.0765
 8098TIP3    H145709   0.523   5.863  15.896 -1.0347  1.9792  0.9915
 8098TIP3    H245710   0.528   5.888  15.747  0.6490 -0.2371  0.6155
 8099TIP3   OH245711   5.085   4.888   2.557 -0.0962 -0.0209  0.2700
 8099TIP3    H145712   5.138   4.963   2.529  1.0844 -0.5972  0.8864
 8099TIP3    H245713   5.149   4.820   2.577 -0.9090 -0.0058  3.3230
 8100TIP3   OH245714   4.307   4.241   0.475  0.5105  0.0212 -0.7841
 8100TIP3    H145715   4.321   4.335   0.465 -0.9627  0.2089 -1.3244
 8100TIP3    H245716   4.342   4.220   0.562  3.3303  0.5194 -1.7035
 8101TIP3   OH245717   3.502   2.518   2.615  0.5214  0.1096  0.1753
 8101TIP3    H145718   3.564   2.450   2.587 -0.4022 -1.1754  1.1582
 8101TIP3    H245719   3.505   2.583   2.544  0.8442 -1.3325 -1.1939
 8102TIP3   OH245720   2.805   0.423  14.779 -0.0666 -0.0103  0.1576
 8102TIP3    H145721   2.864   0.417  14.704  2.1079  0.5843  1.7298
 8102TIP3    H245722   2.859   0.457  14.850 -2.3439  0.6708  1.6972
 8103TIP3   OH245723   1.230   0.034   5.690  0.1879 -0.5985 -0.5479
 8103TIP3    H145724   1.233   0.103   5.756 -2.3110 -1.1880  0.2990
 8103TIP3    H245725   1.226   0.081   5.607  0.6765  0.2198 -0.1261
 8104TIP3   OH245726   1.371   6.111   0.706  0.1878  0.7986  0.7576
 8104TIP3    H145727   1.357   6.037   0.646  2.2420  0.5299  0.5535
 8104TIP3    H245728   1.327   6.185   0.663  1.6745  0.6411 -1.2017
 8105TIP3   OH245729   5.889   3.909   3.056  0.4908 -0.6223  0.1219
 8105TIP3    H145730   5.823   3.848   3.090  1.3596 -1.7666 -0.1837
 8105TIP3    H245731   5.848   3.995   3.064 -0.5767 -1.1853  1.0408
 8106TIP3   OH245732   5.918   0.577   2.761 -0.0034 -0.1439  0.4369
 8106TIP3    H145733   6.010   0.559   2.741 -0.0525  1.8384 -2.1429
 8106TIP3    H245734   5.912   0.672   2.767 -2.0661 -0.0924 -0.9563
 8107TIP3   OH245735   6.492   4.806   3.718 -0.3428  0.0863 -0.2789
 8107TIP3    H145736   6.573   4.758   3.698 -1.8938 -3.2066  0.6795
 8107TIP3    H245737   6.501   4.889   3.671  3.1306 -0.5561 -0.9974
 8108TIP3   OH245738   4.434   0.570  10.821 -0.1079 -0.2341 -0.0300
 8108TIP3    H145739   4.416   0.530  10.906  1.3015  1.1658  0.9714
 8108TIP3    H245740   4.489   0.506  10.776 -0.2679 -0.6722  0.3878
 8109TIP3   OH245741   3.728   6.160  12.476  0.4864 -0.1579  0.2615
 8109TIP3    H145742   3.736   6.066  12.467  2.2966 -0.0619  0.4611
 8109TIP3    H245743   3.780   6.196  12.404  0.5053  0.6739  0.6757
 8110TIP3   OH245744   3.482   6.234   5.940 -0.1767  0.2428  0.1279
 8110TIP3    H145745   3.396   6.194   5.940  0.6010 -1.5290 -0.7879
 8110TIP3    H245746   3.466   6.327   5.924 -2.0326  0.3834  2.2491
 8111TIP3   OH245747   5.921   4.484  12.753  0.0805 -0.9211 -0.4697
 8111TIP3    H145748   5.995   4.424  12.753 -0.7363 -1.9960 -2.0253
 8111TIP3    H245749   5.914   4.514  12.662 -1.4414 -0.9129 -0.3830
 8112TIP3   OH245750   3.668   4.109  15.524  0.5296 -0.3154 -0.5120
 8112TIP3    H145751   3.696   4.185  15.472 -1.0172  1.6394  1.3831
 8112TIP3    H245752   3.582   4.086  15.489 -0.7713  1.3570  1.3903
 8113TIP3   OH245753   4.647   2.346  11.181  0.1302  0.6198 -0.5746
 8113TIP3    H145754   4.736   2.348  11.146  0.3763  0.0355  0.0029
 8113TIP3    H245755   4.604   2.275  11.133  0.1444  0.5377 -0.4678
 8114TIP3   OH245756   3.011   0.465  14.960  0.0399 -0.7471  0.0592
 8114TIP3    H145757   2.978   0.550  14.992  0.2707 -0.5696 -0.1749
 8114TIP3    H245758   3.105   0.468  14.978 -0.0667 -1.2571  0.7271
 8115TIP3   OH245759   1.661   0.462  14.068  0.4313  0.2544 -0.3953
 8115TIP3    H145760   1.580   0.477  14.019  0.2123  0.3867  0.0060
 8115TIP3    H245761   1.713   0.406  14.010 -0.3391 -0.6324 -0.2639
 8116TIP3   OH245762   2.754   2.124   2.394  0.0539 -0.2978  0.2233
 8116TIP3    H145763   2.797   2.164   2.319  1.4277 -1.3537  0.4239
 8116TIP3    H245764   2.660   2.128   2.373  0.4765 -3.1878 -2.9507
 8117TIP3   OH245765   0.081   6.552  16.154  0.1396  0.1107  0.1274
 8117TIP3    H145766  -0.008   6.581  16.136  1.2984  2.2906 -2.9042
 8117TIP3    H245767   0.126   6.630  16.185  1.7707 -0.0269 -1.7191
 8118TIP3   OH245768   5.150   4.249   1.664 -0.6600 -0.1043  0.6054
 8118TIP3    H145769   5.115   4.213   1.582 -0.8408 -0.2738  0.7555
 8118TIP3    H245770   5.145   4.176   1.726 -5.2027  1.2686  2.2104
 8119TIP3   OH245771   1.747   2.924   3.133 -0.3872 -0.2728  0.4107
 8119TIP3    H145772   1.667   2.899   3.087  0.0467  0.4954 -0.8202
 8119TIP3    H245773   1.745   3.020   3.134  1.2052 -0.1710 -0.9981
 8120TIP3   OH245774   3.058   4.839   4.743  0.4069 -0.3456  0.2840
 8120TIP3    H145775   3.115   4.872   4.812  1.4582  0.1350 -0.7869
 8120TIP3    H245776   3.102   4.760   4.710 -0.2925 -0.8082  0.4244
 8121TIP3   OH245777   3.720   5.547  14.599  0.2732  0.3176 -0.2197
 8121TIP3    H145778   3.659   5.612  14.634  1.2463  1.2751 -0.2493
 8121TIP3    H245779   3.756   5.587  14.520  2.3262  0.6193  0.7884
 8122TIP3   OH245780   3.253   6.194   2.301 -0.9404  0.2102 -0.3003
 8122TIP3    H145781   3.194   6.179   2.375  1.8339  0.0375  2.0844
 8122TIP3    H245782   3.284   6.284   2.313 -0.5451  0.2228 -1.3324
 8123TIP3   OH245783   3.148   5.393   5.840 -0.2224  0.0258  0.0438
 8123TIP3    H145784   3.230   5.350   5.864  0.9874  2.5944  0.7789
 8123TIP3    H245785   3.147   5.393   5.744  0.5083 -0.2400  0.0323
 8124TIP3   OH245786   4.319   1.009  16.266 -0.1542 -0.0442 -0.0301
 8124TIP3    H145787   4.291   1.036  16.178  1.6838  0.4503 -0.5208
 8124TIP3    H245788   4.298   0.916  16.271 -2.7946  0.4972  0.0890
 8125TIP3   OH245789   5.448   3.022   3.730 -0.5776  0.1611 -0.3453
 8125TIP3    H145790   5.518   3.039   3.667 -0.5888 -0.9567 -0.6970
 8125TIP3    H245791   5.493   2.985   3.806 -0.7677 -0.5026 -0.5482
 8126TIP3   OH245792   6.544   5.637  15.168  0.0001 -0.0357  0.1495
 8126TIP3    H145793   6.459   5.649  15.211 -0.0897  2.7932 -0.5847
 8126TIP3    H245794   6.531   5.562  15.109 -1.2572 -1.0529  1.6495
 8127TIP3   OH245795   4.796   1.919   0.863 -0.3145  0.5964 -0.2226
 8127TIP3    H145796   4.816   1.828   0.885  1.2411  1.1465  0.7834
 8127TIP3    H245797   4.718   1.939   0.914  0.1538  0.2393  0.6626
 8128TIP3   OH245798   2.878   0.220   5.580 -0.7140  0.6358 -0.0792
 8128TIP3    H145799   2.854   0.147   5.639 -2.0057  0.7950 -0.3859
 8128TIP3    H245800   2.796   0.266   5.565  0.4185  3.6555  2.0370
 8129TIP3   OH245801   3.530   4.188   0.228 -0.0475  0.0638 -0.0630
 8129TIP3    H145802   3.495   4.099   0.229  2.4232 -0.9833  0.9080
 8129TIP3    H245803   3.498   4.228   0.309 -0.4356 -0.2263 -0.0698
 8130TIP3   OH245804   1.530   1.242  12.852  0.2652 -0.5269  0.0400
 8130TIP3    H145805   1.520   1.325  12.806 -1.3718 -1.2135 -0.9463
 8130TIP3    H245806   1.598   1.258  12.917  0.8387  1.2164 -0.9392
 8131TIP3   OH245807   3.030   3.836  12.764 -0.6153  0.3229  0.1565
 8131TIP3    H145808   3.068   3.753  12.736  0.2591  0.3641  1.1287
 8131TIP3    H245809   3.078   3.858  12.844  1.5870  3.4024 -1.7683
 8132TIP3   OH245810   5.054   5.627  17.303 -0.6714 -0.5582 -0.6227
 8132TIP3    H145811   5.010   5.674  17.373  1.0920  0.7904 -0.3332
 8132TIP3    H245812   5.123   5.577  17.348 -0.5204 -0.9246 -1.2476
 8133TIP3   OH245813   6.651   1.499   0.416 -0.0795  0.2288  0.4014
 8133TIP3    H145814   6.727   1.497   0.358 -0.0668 -0.0651  0.4273
 8133TIP3    H245815   6.684   1.467   0.500 -0.8444 -2.6929 -0.3039
 8134TIP3   OH245816   0.835   4.049  12.441 -0.3402 -0.0601 -0.3318
 8134TIP3    H145817   0.743   4.044  12.466 -0.2885 -1.5907 -0.3708
 8134TIP3    H245818   0.883   4.013  12.515  0.0242 -1.7257 -1.3155
 8135TIP3   OH245819   4.703   5.496  14.048  0.0942  0.2653 -0.0075
 8135TIP3    H145820   4.621   5.477  14.094 -1.2027 -0.0614 -2.3135
 8135TIP3    H245821   4.730   5.582  14.081 -1.5904  0.7274  0.2412
 8136TIP3   OH245822   3.851   5.908   4.895  0.8437 -0.1292 -0.1896
 8136TIP3    H145823   3.886   5.972   4.957  1.4843 -1.4676  0.8847
 8136TIP3    H245824   3.794   5.959   4.838 -0.4927  1.0604  2.0465
 8137TIP3   OH245825   6.698   6.391  16.843  0.6635  0.5752 -0.0689
 8137TIP3    H145826   6.659   6.318  16.796  1.1149 -0.5161  1.1911
 8137TIP3    H245827   6.641   6.465  16.823 -1.1889 -0.6233  0.4882
 8138TIP3   OH245828   5.461   3.437  15.712  0.2360 -0.3547 -0.5299
 8138TIP3    H145829   5.464   3.353  15.758 -0.7606  0.3859  0.9664
 8138TIP3    H245830   5.543   3.480  15.736 -0.0600 -0.1746  0.1966
 8139TIP3   OH245831   4.188   4.002  16.651  0.0438 -0.4059 -0.4050
 8139TIP3    H145832   4.187   4.081  16.596  1.0917  0.2268  0.4500
 8139TIP3    H245833   4.202   3.930  16.590  1.2439  0.2872 -0.9815
 8140TIP3   OH245834   2.648   2.721  15.159  0.0022 -0.6994 -0.2516
 8140TIP3    H145835   2.630   2.663  15.233 -0.8010 -0.1863 -0.0195
 8140TIP3    H245836   2.693   2.796  15.198  0.3297 -0.8098 -0.4190
 8141TIP3   OH245837   0.267   3.523   5.477 -0.5341 -0.5507 -0.2569
 8141TIP3    H145838   0.353   3.482   5.467 -0.3344 -0.0319 -0.7359
 8141TIP3    H245839   0.209   3.470   5.422 -0.4318 -0.6453 -0.2734
 8142TIP3   OH245840   6.682   1.776  13.194  0.5733 -0.0005 -0.1157
 8142TIP3    H145841   6.677   1.694  13.145  2.5204  0.9843 -2.1254
 8142TIP3    H245842   6.755   1.764  13.255  1.1699  0.3937 -0.7468
 8143TIP3   OH245843   3.982   0.846   3.004 -0.1826  0.7623 -0.3792
 8143TIP3    H145844   4.020   0.931   2.984 -0.1930 -0.0467 -4.6029
 8143TIP3    H245845   3.895   0.847   2.964  0.9952 -2.1353 -3.4952
 8144TIP3   OH245846   3.442   4.774   3.196  0.0727 -0.0932  0.5495
 8144TIP3    H145847   3.432   4.681   3.217  1.0174 -0.0045  1.5001
 8144TIP3    H245848   3.445   4.777   3.101  4.3897 -1.6259  0.4110
 8145TIP3   OH245849   3.635   0.020   6.621  0.5293  0.0334  0.3413
 8145TIP3    H145850   3.690   0.077   6.674  0.5129  1.2813 -0.9248
 8145TIP3    H245851   3.686   0.003   6.542 -1.0963  1.7953 -1.1911
 8146TIP3   OH245852   5.301   2.778   5.144  0.0502 -0.3959  0.0906
 8146TIP3    H145853   5.327   2.688   5.128  1.5826  0.2402 -1.1476
 8146TIP3    H245854   5.344   2.801   5.227 -1.8614 -1.3343  1.4233
 8147TIP3   OH245855   1.852   3.681   4.400  0.1467 -0.1274 -0.0568
 8147TIP3    H145856   1.845   3.586   4.399 -1.0252 -0.0522 -0.4624
 8147TIP3    H245857   1.945   3.698   4.387  0.1393 -1.2127 -1.9242
 8148TIP3   OH245858   3.809   1.435  13.750 -0.1616 -0.0921 -0.4519
 8148TIP3    H145859   3.807   1.469  13.839  2.0970  0.1203 -0.4101
 8148TIP3    H245860   3.867   1.359  13.755  1.9424  1.2844 -2.0906
 8149TIP3   OH245861   4.104   4.208   1.974  0.2694 -0.0588  0.3467
 8149TIP3    H145862   4.172   4.142   1.990  1.4122  0.9875 -0.0848
 8149TIP3    H245863   4.147   4.292   1.990 -0.8606  0.6474 -0.1861
 8150TIP3   OH245864   2.817   1.618  12.318  0.5802 -0.1633  0.2997
 8150TIP3    H145865   2.871   1.654  12.247 -0.4887 -0.5782 -0.7520
 8150TIP3    H245866   2.747   1.571  12.273  0.3034 -1.0788  1.6465
 8151TIP3   OH245867   0.643   5.729  11.896  0.1400 -0.6545  0.7877
 8151TIP3    H145868   0.673   5.708  11.807  1.6761  1.7407  0.6417
 8151TIP3    H245869   0.676   5.657  11.950  0.1333 -1.5956 -0.4291
 8152TIP3   OH245870   4.613   2.739   1.616 -0.2480 -0.4219 -0.3923
 8152TIP3    H145871   4.522   2.729   1.589 -0.4596  0.2700  0.0337
 8152TIP3    H245872   4.654   2.655   1.595 -1.2895 -1.1989  0.5815
 8153TIP3   OH245873   1.074   6.582  14.870 -0.0449  0.3481 -0.3439
 8153TIP3    H145874   1.047   6.551  14.956 -0.8334  0.8830 -0.3820
 8153TIP3    H245875   1.109   6.505  14.826 -2.1264 -0.5747 -0.5088
 8154TIP3   OH245876   1.828   4.310  11.986 -0.0147 -0.1186  0.1467
 8154TIP3    H145877   1.763   4.378  11.998  0.1864 -0.1246  1.3028
 8154TIP3    H245878   1.780   4.228  11.997 -0.2333 -0.1834 -1.1305
 8155TIP3   OH245879   5.988   0.609  16.035 -0.7473  0.1134 -0.2925
 8155TIP3    H145880   6.046   0.683  16.018  1.0155 -1.5279 -1.8256
 8155TIP3    H245881   6.034   0.556  16.099 -1.9924  0.2621  0.7841
 8156TIP3   OH245882   0.077   5.151  17.370  0.4071  0.5322  0.0354
 8156TIP3    H145883   0.001   5.163  17.314  1.0040  1.5442 -0.5897
 8156TIP3    H245884   0.074   5.224  17.431 -0.5052 -0.8238  1.6812
 8157TIP3   OH245885   6.594   1.025  12.571  0.0760  1.0041  0.1209
 8157TIP3    H145886   6.522   1.080  12.541  0.3057  0.5461 -1.3814
 8157TIP3    H245887   6.669   1.054  12.519  0.5963  0.4033  0.5219
 8158TIP3   OH245888   3.598   1.459   3.098  0.2265  0.1792  0.2219
 8158TIP3    H145889   3.544   1.422   3.028  1.1961 -0.2183 -0.3415
 8158TIP3    H245890   3.542   1.458   3.175  0.0241 -1.9727  0.0989
 8159TIP3   OH245891   5.198   5.977   6.391  0.7718 -0.0769  0.0465
 8159TIP3    H145892   5.158   5.912   6.449 -2.0348 -0.8361 -2.5012
 8159TIP3    H245893   5.232   5.927   6.317 -0.0194  1.1803 -1.2263
 8160TIP3   OH245894   1.943   3.348  12.159 -0.2433 -0.2277  0.3301
 8160TIP3    H145895   1.858   3.362  12.117  0.5159  0.4774 -1.0629
 8160TIP3    H245896   1.954   3.253  12.163 -0.2771 -0.3329 -1.2948
 8161TIP3   OH245897   5.800   0.337   2.812 -0.2875 -0.2961  0.0879
 8161TIP3    H145898   5.732   0.317   2.748 -0.2470  1.1768 -0.4417
 8161TIP3    H245899   5.835   0.421   2.785  0.8936 -0.4390  1.0876
 8162TIP3   OH245900   1.939   3.601  16.321 -0.1099 -0.0241 -0.4956
 8162TIP3    H145901   2.033   3.583  16.310 -0.2011 -0.7720 -0.1314
 8162TIP3    H245902   1.897   3.545  16.256 -0.2951  0.4591 -0.7911
 8163TIP3   OH245903   0.580   4.682   4.847 -0.0348 -0.5626  0.1962
 8163TIP3    H145904   0.559   4.771   4.875  0.0349  0.0620 -1.6026
 8163TIP3    H245905   0.676   4.679   4.845 -0.0181 -0.1484 -1.1606
 8164TIP3   OH245906   6.241   3.569  17.290  0.0445 -0.0421 -0.6383
 8164TIP3    H145907   6.220   3.660  17.268 -1.2003 -0.3253 -0.6903
 8164TIP3    H245908   6.336   3.562  17.276 -0.0501  0.9004 -1.9002
 8165TIP3   OH245909   3.878   1.493  12.805 -0.3397  0.0140  0.7301
 8165TIP3    H145910   3.929   1.453  12.876 -0.0129  0.9621  1.0402
 8165TIP3    H245911   3.845   1.418  12.754 -1.3172 -0.7343  2.3730
 8166TIP3   OH245912   2.919   5.238  16.413  0.5863 -0.6337  0.2015
 8166TIP3    H145913   2.914   5.258  16.507  0.0188  1.2092 -0.1976
 8166TIP3    H245914   3.007   5.202  16.402  0.6599 -0.9033  1.4320
 8167TIP3   OH245915   0.508   1.774  15.974  0.5753 -0.5221 -0.4740
 8167TIP3    H145916   0.572   1.845  15.973  1.0822 -0.9704 -0.6148
 8167TIP3    H245917   0.559   1.697  15.997 -0.0568 -0.7579  0.1516
 8168TIP3   OH245918   4.097   4.159  14.349 -0.4516 -0.0500 -0.6822
 8168TIP3    H145919   4.109   4.241  14.396 -1.0594 -1.1355  1.4876
 8168TIP3    H245920   4.179   4.147  14.301 -0.5698  2.0606 -1.5245
 8169TIP3   OH245921   0.382   3.660  15.514  0.0009  0.2246 -0.4624
 8169TIP3    H145922   0.422   3.587  15.468  0.1690 -0.0334  0.0956
 8169TIP3    H245923   0.379   3.633  15.605 -1.9651 -0.0222 -0.5471
 8170TIP3   OH245924   1.328   2.749  15.130  0.1557  0.3707 -0.0108
 8170TIP3    H145925   1.336   2.773  15.223  0.9058  0.0848  0.0131
 8170TIP3    H245926   1.410   2.702  15.112  0.8226  1.9425 -1.2859
 8171TIP3   OH245927   0.344   5.911   2.212 -0.5311  0.1088  0.1735
 8171TIP3    H145928   0.376   5.925   2.123 -1.6626 -1.1350 -0.4836
 8171TIP3    H245929   0.328   5.816   2.216 -0.4785  0.1498  1.7106
 8172TIP3   OH245930   2.250   3.884  16.396  0.0435  0.3233 -0.3930
 8172TIP3    H145931   2.268   3.803  16.444 -2.5975  0.4065  0.9005
 8172TIP3    H245932   2.184   3.859  16.331 -0.4272  1.3401 -0.3163
 8173TIP3   OH245933   1.521   5.897   5.559  0.1674 -1.1365 -0.3446
 8173TIP3    H145934   1.528   5.816   5.610  1.4533 -0.6033  0.3567
 8173TIP3    H245935   1.592   5.952   5.591  2.1616 -1.3880 -3.8131
 8174TIP3   OH245936   3.136   4.005   3.809  0.2761 -0.0642 -0.4545
 8174TIP3    H145937   3.177   3.946   3.746  1.4513  0.6377 -0.3689
 8174TIP3    H245938   3.059   4.040   3.763  0.2228 -0.7712 -0.9114
 8175TIP3   OH245939   1.871   3.544   2.077 -0.5378 -0.3959 -0.1038
 8175TIP3    H145940   1.943   3.588   2.031 -0.8454  2.1003  1.6122
 8175TIP3    H245941   1.844   3.474   2.017  2.2783 -0.4579 -1.4700
 8176TIP3   OH245942   3.791   2.839  12.135 -0.1687 -0.4021  0.4763
 8176TIP3    H145943   3.754   2.912  12.086 -0.8639 -1.0737 -0.0268
 8176TIP3    H245944   3.824   2.878  12.216  0.0141  0.5521 -0.0461
 8177TIP3   OH245945   3.817   2.115  11.732 -0.5341  0.2001 -0.0271
 8177TIP3    H145946   3.822   2.101  11.827 -0.4931 -1.4010 -0.2468
 8177TIP3    H245947   3.748   2.181  11.722 -1.7021 -0.8028  1.0342
 8178TIP3   OH245948   1.305   3.190  16.923 -0.1869 -0.6690  0.3115
 8178TIP3    H145949   1.302   3.260  16.859 -1.8574  1.2345  2.2912
 8178TIP3    H245950   1.268   3.229  17.003 -0.4751 -3.5826  1.7420
 8179TIP3   OH245951   5.319   0.884   3.959  0.0891 -0.0498 -0.2120
 8179TIP3    H145952   5.369   0.939   4.019 -1.2040  0.5777  0.3294
 8179TIP3    H245953   5.248   0.941   3.928 -1.0859 -1.2934  0.0996
 8180TIP3   OH245954   5.845   2.337  13.924  0.2505 -0.8545  0.3195
 8180TIP3    H145955   5.779   2.357  13.990  0.7557 -2.0432  1.2198
 8180TIP3    H245956   5.821   2.392  13.849 -0.8778 -0.1679  1.1477
 8181TIP3   OH245957   1.469   3.408  15.956  0.0865  0.2328 -0.2001
 8181TIP3    H145958   1.451   3.357  15.877 -0.0599 -0.7809  0.4650
 8181TIP3    H245959   1.554   3.448  15.939  0.9134 -1.4119 -0.2028
 8182TIP3   OH245960   3.883   0.003  14.510 -0.2791 -0.0498 -0.1974
 8182TIP3    H145961   3.956   0.065  14.501 -0.1169 -0.3977 -1.5341
 8182TIP3    H245962   3.905  -0.049  14.587  0.7212  0.0705 -0.3844
 8183TIP3   OH245963   6.498   0.738   2.716  0.1375  0.7101 -0.1070
 8183TIP3    H145964   6.417   0.723   2.666  1.5755 -2.9135 -1.7111
 8183TIP3    H245965   6.564   0.754   2.649  0.9006  3.3191  1.1717
 8184TIP3   OH245966   2.728   5.584   1.556 -0.7443  0.1785  0.3604
 8184TIP3    H145967   2.735   5.678   1.538 -3.6563  0.1742 -1.3063
 8184TIP3    H245968   2.727   5.579   1.652  0.9389  1.6461  0.5093
 8185TIP3   OH245969   3.369   2.578  14.757  0.3208  0.5754  0.3618
 8185TIP3    H145970   3.357   2.625  14.674 -0.5628  1.0990  0.7737
 8185TIP3    H245971   3.330   2.635  14.823 -0.3451 -0.5067  0.9453
 8186TIP3   OH245972   5.392   5.445   2.574  0.3144  0.1908 -0.1161
 8186TIP3    H145973   5.324   5.446   2.507  0.8164 -1.9136 -0.7475
 8186TIP3    H245974   5.475   5.444   2.526  0.7427  0.6015  0.5833
 8187TIP3   OH245975   6.509   4.047  12.182  0.4162  0.8203  0.3548
 8187TIP3    H145976   6.583   4.104  12.158  1.2490  0.2514  1.4679
 8187TIP3    H245977   6.434   4.085  12.137  1.6272  0.6214 -1.9761
 8188TIP3   OH245978   4.205   5.733  17.144  0.1499 -0.7042 -0.5023
 8188TIP3    H145979   4.226   5.723  17.237  1.1998 -1.3020 -0.7902
 8188TIP3    H245980   4.290   5.739  17.100 -0.3321 -0.1097 -1.3993
 8189TIP3   OH245981   4.496   0.655   2.555  0.0801  0.0744 -0.2377
 8189TIP3    H145982   4.489   0.692   2.643 -1.7955 -0.5160 -0.0825
 8189TIP3    H245983   4.588   0.632   2.545  0.4369  0.7080  1.3362
 8190TIP3   OH245984   5.255   2.183  12.157  0.3023 -0.0547 -0.0044
 8190TIP3    H145985   5.329   2.137  12.196 -0.8136 -0.7094  1.3925
 8190TIP3    H245986   5.248   2.264  12.207  1.3493  1.0386 -1.5157
 8191TIP3   OH245987   6.077   0.046  13.113  0.1902 -0.2991  0.5963
 8191TIP3    H145988   6.109  -0.030  13.065 -0.8016  0.2796 -1.0623
 8191TIP3    H245989   5.982   0.041  13.106  0.1079  0.9836  0.6274
 8192TIP3   OH245990   6.613   5.340   0.448  0.1736  0.3310  0.0648
 8192TIP3    H145991   6.539   5.316   0.504  1.0518 -2.6038  0.1771
 8192TIP3    H245992   6.573   5.375   0.368 -1.3649 -1.1569  0.1244
 8193TIP3   OH245993   5.349   1.442   0.236 -0.2033 -0.6046 -0.1557
 8193TIP3    H145994   5.328   1.436   0.143  1.1471 -0.3241 -0.5038
 8193TIP3    H245995   5.414   1.512   0.241  0.6363 -1.4196  0.8257
 8194TIP3   OH245996   2.590   3.751   4.013 -0.0470  0.4643 -0.2203
 8194TIP3    H145997   2.652   3.821   3.992 -1.4384  2.0979  0.8342
 8194TIP3    H245998   2.611   3.727   4.103  0.1277 -0.1777 -0.4262
 8195TIP3   OH245999   3.863   3.896  11.495  0.4314 -0.1303  0.1616
 8195TIP3    H146000   3.780   3.889  11.448 -0.7097  0.4245  1.9750
 8195TIP3    H246001   3.912   3.963  11.448 -0.0247 -0.6324 -1.0768
 8196TIP3   OH246002   5.731   4.677  13.518 -0.0536  0.0972 -0.8113
 8196TIP3    H146003   5.668   4.613  13.552 -0.3247  0.2664 -0.9972
 8196TIP3    H246004   5.699   4.762  13.548  0.7030  0.0894  0.0489
 8197TIP3   OH246005   0.107   6.533   1.149 -0.7128 -0.1105  0.1808
 8197TIP3    H146006   0.201   6.540   1.166 -0.7354  0.2505  0.1756
 8197TIP3    H246007   0.095   6.445   1.113 -0.5674 -0.6367  1.4007
 8198TIP3   OH246008   2.815   3.343  12.096 -0.5369  0.0199  0.0068
 8198TIP3    H146009   2.721   3.333  12.111 -0.5272 -0.1771 -0.0563
 8198TIP3    H246010   2.846   3.395  12.169 -0.7080  0.1405 -0.0073
 8199TIP3   OH246011   1.222   2.375  11.024 -0.1035  0.0439  0.3493
 8199TIP3    H146012   1.203   2.388  11.117 -1.4361 -1.1881  0.2766
 8199TIP3    H246013   1.284   2.302  11.022  1.0288  0.9656  0.3101
 8200TIP3   OH246014   0.434   4.444  14.196  0.2517  0.0108  0.1655
 8200TIP3    H146015   0.338   4.444  14.195  0.1721  2.4297 -1.4367
 8200TIP3    H246016   0.457   4.511  14.260  0.9634 -1.1957  1.2285
 8201TIP3   OH246017   2.867   4.717  15.343  0.1207 -0.2688  0.5970
 8201TIP3    H146018   2.961   4.706  15.333  0.2361  1.1479 -0.1393
 8201TIP3    H246019   2.856   4.748  15.433  0.5234  1.0550  0.2062
 8202TIP3   OH246020   4.606   5.357   0.881  0.0063  0.2761  0.6987
 8202TIP3    H146021   4.672   5.323   0.942 -1.1165 -0.4575  1.5487
 8202TIP3    H246022   4.635   5.328   0.795  1.2648  0.7517  0.9333
 8203TIP3   OH246023   4.932   5.997  16.211 -0.1505 -0.0538  0.3224
 8203TIP3    H146024   5.021   5.993  16.245 -0.3547 -1.6730  0.7244
 8203TIP3    H246025   4.880   6.032  16.283  0.0080  0.0362  0.3929
 8204TIP3   OH246026   0.823   4.685  14.593 -0.1974  0.0884  0.4720
 8204TIP3    H146027   0.879   4.708  14.519 -0.4256  1.9433  0.8338
 8204TIP3    H246028   0.884   4.665  14.664  0.0152 -1.2978 -0.0736
 8205TIP3   OH246029   2.363   2.545  10.675 -1.3908 -0.0181 -0.1519
 8205TIP3    H146030   2.457   2.556  10.688 -1.3733  2.0921 -1.4598
 8205TIP3    H246031   2.351   2.554  10.580 -2.8566 -0.8303 -0.0745
 8206TIP3   OH246032   2.870   5.148  11.254 -0.3959 -0.3302  0.4857
 8206TIP3    H146033   2.851   5.067  11.302  0.9467 -0.7553  0.3480
 8206TIP3    H246034   2.929   5.120  11.183  0.6483  0.8698  0.8492
 8207TIP3   OH246035   2.822   4.860   1.581  0.6196  0.3716  0.1405
 8207TIP3    H146036   2.835   4.791   1.516  3.1304 -0.0218  0.9628
 8207TIP3    H246037   2.874   4.833   1.656 -1.3864  1.3233  1.9712
 8208TIP3   OH246038   0.665   2.060   4.791 -0.4664 -0.2469 -0.2588
 8208TIP3    H146039   0.603   2.055   4.718  1.4540  0.4047 -2.0337
 8208TIP3    H246040   0.711   1.975   4.788  0.0220  0.0119 -0.2113
 8209TIP3   OH246041   2.939   0.747   2.418  0.2679  0.0457  0.6065
 8209TIP3    H146042   2.962   0.660   2.387  0.9447  0.1091  0.9244
 8209TIP3    H246043   2.914   0.795   2.339 -2.7770 -1.2013  0.6939
 8210TIP3   OH246044   2.820   6.487   5.006 -0.7504  0.2319  0.3362
 8210TIP3    H146045   2.807   6.425   4.934 -1.7405  0.6386  0.1439
 8210TIP3    H246046   2.848   6.434   5.080  0.6550 -0.1519 -0.4433
 8211TIP3   OH246047   1.788   5.446  12.456 -0.1413  0.2593  0.1936
 8211TIP3    H146048   1.710   5.487  12.421  0.0169  0.5553  0.1868
 8211TIP3    H246049   1.836   5.517  12.499 -0.2651 -0.0630  0.8902
 8212TIP3   OH246050   0.870   6.652  13.125 -0.7257 -0.0766 -0.4700
 8212TIP3    H146051   0.845   6.639  13.216  3.1877 -2.1495  0.5547
 8212TIP3    H246052   0.877   6.563  13.089  1.6223  0.4110 -1.4765
 8213TIP3   OH246053   3.639   3.552   3.600 -1.1845 -0.2999 -0.4003
 8213TIP3    H146054   3.544   3.545   3.588 -1.1277 -1.6663 -0.1738
 8213TIP3    H246055   3.674   3.470   3.566 -0.1296 -0.0449  0.0284
 8214TIP3   OH246056   2.420   4.673   5.246  0.2010 -0.3893  0.0239
 8214TIP3    H146057   2.450   4.599   5.299 -2.4208 -1.1423  0.6185
 8214TIP3    H246058   2.329   4.652   5.224 -0.3700  2.2417 -0.5626
 8215TIP3   OH246059   1.566   0.879   2.173  0.1153 -0.2587 -0.4107
 8215TIP3    H146060   1.620   0.958   2.166 -0.2646  0.0840  0.4071
 8215TIP3    H246061   1.549   0.869   2.266 -0.1180 -1.1313 -0.5350
 8216TIP3   OH246062   0.460   6.267  14.196 -0.4637 -0.4487  1.1827
 8216TIP3    H146063   0.385   6.207  14.194  0.6303 -1.8480  0.1723
 8216TIP3    H246064   0.421   6.354  14.202 -2.3333 -0.9382 -1.8638
 8217TIP3   OH246065   5.919   6.056   2.203 -0.4225 -0.2938  0.0338
 8217TIP3    H146066   5.906   6.107   2.123 -2.2956 -1.2153 -0.3173
 8217TIP3    H246067   5.912   6.119   2.274 -1.4919  0.1536 -0.4399
 8218TIP3   OH246068   4.723   6.133  12.771 -0.1286  0.8547 -0.4197
 8218TIP3    H146069   4.746   6.135  12.678 -1.5175 -0.9858 -0.8630
 8218TIP3    H246070   4.699   6.042  12.787  2.6296  0.4645  2.4155
 8219TIP3   OH246071   3.734   0.473  16.448  0.5225 -0.6217  0.4077
 8219TIP3    H146072   3.736   0.450  16.355 -0.3145 -0.4866  0.3463
 8219TIP3    H246073   3.826   0.470  16.476  0.6270 -2.2849 -0.0164
 8220TIP3   OH246074   4.235   2.693   3.200  0.2906 -0.4571 -0.2097
 8220TIP3    H146075   4.271   2.606   3.184  3.2676  0.5577  0.3322
 8220TIP3    H246076   4.296   2.734   3.261 -2.4126  1.1737  1.6176
 8221TIP3   OH246077   6.601   0.144   1.280 -0.1531  0.3475 -0.1102
 8221TIP3    H146078   6.604   0.077   1.348  0.3419 -0.6229 -1.0651
 8221TIP3    H246079   6.650   0.107   1.207  1.8651  2.5164 -0.0075
 8222TIP3   OH246080   2.211   5.798   3.136  1.1121  0.7223 -0.2716
 8222TIP3    H146081   2.197   5.808   3.230 -0.5933  0.4304 -0.4786
 8222TIP3    H246082   2.301   5.764   3.129  1.0158  0.0752  1.2766
 8223TIP3   OH246083   4.222   4.461  11.834  0.1882 -0.3046  0.4176
 8223TIP3    H146084   4.270   4.379  11.834  0.7459  0.0092 -0.1647
 8223TIP3    H246085   4.206   4.480  11.741  1.3931  0.9808  0.4313
 8224TIP3   OH246086   2.472   3.236   5.024 -0.1770 -0.3001  0.0087
 8224TIP3    H146087   2.491   3.157   5.075  1.9047 -0.0630 -0.3343
 8224TIP3    H246088   2.459   3.304   5.090 -0.4435 -0.6089  0.2793
 8225TIP3   OH246089   5.169   6.478   6.921 -0.1028 -0.0876 -0.8841
 8225TIP3    H146090   5.242   6.538   6.907 -0.1813  0.7166  1.7598
 8225TIP3    H246091   5.208   6.390   6.915  0.7596  0.3008 -1.0577
 8226TIP3   OH246092   2.045   1.816   1.303  0.2991  0.0426 -0.1437
 8226TIP3    H146093   1.991   1.765   1.243 -1.2549  0.1836  1.0667
 8226TIP3    H246094   2.096   1.874   1.246 -0.9462  0.0154 -1.3326
 8227TIP3   OH246095   6.227   6.577  12.980 -0.8311  0.3776 -0.2400
 8227TIP3    H146096   6.316   6.543  12.971 -0.4978  1.2561 -0.3279
 8227TIP3    H246097   6.174   6.522  12.921 -0.5956 -0.9866  0.7635
 8228TIP3   OH246098   6.551   4.026   1.468 -0.4769  0.2836  0.1623
 8228TIP3    H146099   6.518   3.937   1.468 -0.3715  0.2405  0.6248
 8228TIP3    H246100   6.640   4.019   1.501 -0.1295  0.4460 -0.7120
 8229TIP3   OH246101   4.300   2.302   3.552  0.6175 -0.1478  0.3235
 8229TIP3    H146102   4.354   2.380   3.564 -0.4127  0.4917  1.0226
 8229TIP3    H246103   4.290   2.267   3.640  0.3684 -0.5802  0.1247
 8230TIP3   OH246104   3.691   1.536  16.661  0.1298  0.1818  0.6266
 8230TIP3    H146105   3.633   1.609  16.639 -0.0688 -0.3788 -0.8511
 8230TIP3    H246106   3.681   1.475  16.587  2.5528  0.0415  0.3409
 8231TIP3   OH246107   1.301   1.705  16.119  0.1016  0.4166  0.1278
 8231TIP3    H146108   1.240   1.779  16.114  0.9288  1.0411 -1.9558
 8231TIP3    H246109   1.290   1.660  16.036  0.9597 -0.7221  0.6118
 8232TIP3   OH246110   1.644   0.926  13.471  0.2526 -0.0273  0.0380
 8232TIP3    H146111   1.584   0.938  13.398  0.1107  3.1452  0.5335
 8232TIP3    H246112   1.707   0.861  13.441 -1.3372 -0.7787 -1.8440
 8233TIP3   OH246113   1.108   1.911   5.754  0.3281 -0.0290  0.3372
 8233TIP3    H146114   1.079   1.911   5.663  1.9378  0.4174 -0.2130
 8233TIP3    H246115   1.168   1.837   5.760 -1.8194 -1.7806  1.8018
 8234TIP3   OH246116   0.571   5.826   5.543 -0.1547  0.2417 -0.3156
 8234TIP3    H146117   0.534   5.847   5.629  0.4684 -0.7631  0.2121
 8234TIP3    H246118   0.495   5.825   5.485 -0.7809 -0.3982  0.4811
 8235TIP3   OH246119   3.596   2.559   3.092  0.2170 -0.6986 -0.0888
 8235TIP3    H146120   3.559   2.473   3.071  1.1267 -1.4362  1.1490
 8235TIP3    H246121   3.584   2.611   3.013  1.0815 -2.4694 -1.4352
 8236TIP3   OH246122   1.637   1.181   2.966  0.0101 -0.9843 -0.0433
 8236TIP3    H146123   1.594   1.144   3.043  0.5030 -1.9346 -0.2016
 8236TIP3    H246124   1.633   1.275   2.978 -1.1425 -1.0922  0.4683
 8237TIP3   OH246125   5.186   1.485   5.199 -0.4006 -0.3406 -0.1004
 8237TIP3    H146126   5.247   1.415   5.175  1.4024  1.6885 -1.8564
 8237TIP3    H246127   5.215   1.513   5.286  0.1721 -0.4432 -0.2515
 8238TIP3   OH246128   3.755   4.277   5.676 -0.4613  0.6858  0.4779
 8238TIP3    H146129   3.680   4.217   5.682 -0.1852  0.4502  2.3400
 8238TIP3    H246130   3.814   4.236   5.612 -1.1998  0.0382  0.1937
 8239TIP3   OH246131   5.834   2.351  12.175 -0.3015 -0.0656 -0.5470
 8239TIP3    H146132   5.741   2.360  12.195 -0.5989  0.5655 -2.0578
 8239TIP3    H246133   5.841   2.268  12.129 -0.2492  0.2207 -1.0649
 8240TIP3   OH246134   6.061   2.552  13.079  0.1768  0.4261  0.6934
 8240TIP3    H146135   6.134   2.540  13.018  0.4398  0.1160  1.0706
 8240TIP3    H246136   6.051   2.647  13.085  0.3266  0.4638  0.3836
 8241TIP3   OH246137   2.823   5.691   2.358 -0.1508 -0.1382 -0.3878
 8241TIP3    H146138   2.854   5.600   2.355  0.7777  0.1330  0.4144
 8241TIP3    H246139   2.902   5.743   2.371 -0.8142  0.6674  0.6166
 8242TIP3   OH246140   1.875   5.398   2.021  0.6451  0.3319 -0.6191
 8242TIP3    H146141   1.869   5.457   1.945  1.6887 -1.1231 -1.8877
 8242TIP3    H246142   1.784   5.375   2.040  0.2712  1.7486 -0.5489
 8243TIP3   OH246143   1.791   4.708   3.419  0.5555 -0.2497  0.1383
 8243TIP3    H146144   1.708   4.736   3.379  2.1839  1.2617 -2.4799
 8243TIP3    H246145   1.796   4.758   3.501 -0.0931  1.4456 -0.8053
 8244TIP3   OH246146   4.845   4.198  16.023  0.0371 -0.1429  0.3329
 8244TIP3    H146147   4.872   4.107  16.013  2.2008  0.6360 -1.7060
 8244TIP3    H246148   4.769   4.194  16.081 -0.1286 -3.2591  0.0655
 8245TIP3   OH246149   1.540   5.464  13.929  0.0028 -0.1157  0.2327
 8245TIP3    H146150   1.484   5.483  14.004 -3.5644 -0.1962 -2.1100
 8245TIP3    H246151   1.557   5.370  13.935 -0.7087 -0.2263  0.6963
 8246TIP3   OH246152   6.650   5.104   2.968 -0.3347  0.7131  0.0202
 8246TIP3    H146153   6.606   5.132   3.048  0.0572  1.1015  0.1015
 8246TIP3    H246154   6.736   5.074   2.997 -0.2878  0.6066 -0.2238
 8247TIP3   OH246155   0.244   1.408  15.051  0.1180 -0.2427  0.4738
 8247TIP3    H146156   0.182   1.404  14.978  0.6833  0.4464 -0.0692
 8247TIP3    H246157   0.330   1.396  15.010  0.6051  1.8801  0.7299
 8248TIP3   OH246158   0.973   2.842  15.701 -0.2707  0.5978 -1.2397
 8248TIP3    H146159   0.916   2.918  15.712  1.9233  2.1066  0.9674
 8248TIP3    H246160   0.988   2.811  15.791 -0.6240 -2.1490 -2.0333
 8249TIP3   OH246161   1.250   5.729  16.491 -0.2211  0.3562 -0.1649
 8249TIP3    H146162   1.168   5.778  16.489 -0.0865  0.8642  2.5605
 8249TIP3    H246163   1.310   5.781  16.438 -1.2748  0.7093 -1.0547
 8250TIP3   OH246164   2.004   3.368   6.288  0.0399 -0.6068  0.3592
 8250TIP3    H146165   1.995   3.351   6.382 -1.9992  0.1277  0.3393
 8250TIP3    H246166   2.049   3.452   6.283  0.2782 -0.7130  0.6739
 8251TIP3   OH246167   5.690   4.248   0.763 -0.4810  0.1968  0.0375
 8251TIP3    H146168   5.723   4.219   0.678 -1.7330  0.9692 -0.7460
 8251TIP3    H246169   5.754   4.216   0.826  0.6328 -0.1365 -1.2226
 8252TIP3   OH246170   0.560   6.568  12.111 -0.2972 -0.4244  0.4723
 8252TIP3    H146171   0.586   6.598  12.024 -2.1245  0.0626  0.0605
 8252TIP3    H246172   0.614   6.618  12.172 -1.4312  1.8429 -0.2866
 8253TIP3   OH246173   0.438   0.570  15.556  0.4537 -0.2550 -0.1033
 8253TIP3    H146174   0.531   0.580  15.538  0.9136  1.0440  2.5836
 8253TIP3    H246175   0.395   0.612  15.482  2.0798  1.4009 -0.1899
 8254TIP3   OH246176   0.304   1.973   4.650 -0.2795  0.1463 -0.6095
 8254TIP3    H146177   0.222   1.938   4.684 -0.8042  1.7027 -0.1810
 8254TIP3    H246178   0.335   2.032   4.718  0.7149  0.2880 -1.1694
 8255TIP3   OH246179   3.803   3.627  11.073 -0.1828  0.2693 -0.6816
 8255TIP3    H146180   3.728   3.588  11.118 -0.6509  0.4214 -1.3274
 8255TIP3    H246181   3.856   3.664  11.144 -0.6501  0.0549 -0.2111
 8256TIP3   OH246182   4.594   4.694   4.925  0.2157  0.0132 -0.0660
 8256TIP3    H146183   4.654   4.732   4.989  1.2237 -0.7569 -0.5225
 8256TIP3    H246184   4.651   4.651   4.861 -0.7833  0.1440 -1.0961
 8257TIP3   OH246185   5.401   6.408   6.104  0.2290  0.1314  0.2854
 8257TIP3    H146186   5.331   6.352   6.140 -1.0461  1.3654 -0.1658
 8257TIP3    H246187   5.370   6.431   6.017  2.2474 -1.0155 -0.7833
 8258TIP3   OH246188   2.092   0.623  11.453  0.7219 -0.5162  0.1037
 8258TIP3    H146189   1.998   0.610  11.457  0.5504  0.4648 -0.6284
 8258TIP3    H246190   2.129   0.534  11.461 -0.1923 -0.7801  1.8274
 8259TIP3   OH246191   3.031   5.416   2.771 -0.2496 -0.5814 -0.2511
 8259TIP3    H146192   3.006   5.460   2.852  2.5922  0.5777  0.1061
 8259TIP3    H246193   3.012   5.323   2.787 -1.6241 -0.1411  0.9138
 8260TIP3   OH246194   4.841   6.291   0.336  0.5582 -0.2448 -0.0617
 8260TIP3    H146195   4.819   6.202   0.308  0.8458 -0.0106 -1.0416
 8260TIP3    H246196   4.816   6.293   0.429 -2.7882 -0.2566 -0.8359
 8261TIP3   OH246197   2.398   6.151  12.925  0.0058  0.6063  0.0233
 8261TIP3    H146198   2.459   6.159  12.852 -0.2344  0.7086 -0.1693
 8261TIP3    H246199   2.408   6.061  12.955 -0.7629  0.1839 -0.9149
 8262TIP3   OH246200   1.052   4.805   5.385 -0.2555 -0.0117 -0.1682
 8262TIP3    H146201   1.116   4.747   5.343 -1.0984 -1.1680  0.1078
 8262TIP3    H246202   0.989   4.746   5.426 -0.2092  1.0957  1.6037
 8263TIP3   OH246203   2.165   0.728   0.739  0.0896  0.2539  0.2774
 8263TIP3    H146204   2.254   0.762   0.741 -0.2200  1.0676  2.8238
 8263TIP3    H246205   2.173   0.645   0.692  1.8416  1.1333 -1.0932
 8264TIP3   OH246206   3.744   6.632   3.588 -0.0478 -0.3914 -0.5309
 8264TIP3    H146207   3.738   6.701   3.522  0.9324  1.1469  0.9081
 8264TIP3    H246208   3.654   6.600   3.598 -0.3777  0.0847 -1.8129
 8265TIP3   OH246209   2.801   2.931  15.379 -0.1397  0.3534 -0.6478
 8265TIP3    H146210   2.878   2.879  15.402 -1.2830 -0.8691  0.6867
 8265TIP3    H246211   2.831   3.021  15.377  1.2998 -0.0974 -0.0777
 8266TIP3   OH246212   5.493   2.378   4.817 -0.1658 -0.3780 -0.4790
 8266TIP3    H146213   5.455   2.460   4.850  1.5591  1.1373 -1.9887
 8266TIP3    H246214   5.452   2.309   4.869 -0.2334  1.5801  2.2597
 8267TIP3   OH246215   4.666   2.078   1.898 -0.9631 -0.1347  0.0185
 8267TIP3    H146216   4.601   2.069   1.828 -2.0913 -2.9260  1.2573
 8267TIP3    H246217   4.618   2.060   1.979  1.0473 -0.8648  1.1424
 8268TIP3   OH246218   0.813   3.662   4.508  0.3896  0.3321  1.1589
 8268TIP3    H146219   0.732   3.611   4.506  0.0339  0.8089  2.4698
 8268TIP3    H246220   0.880   3.602   4.475 -0.9115  0.8360 -2.9024
 8269TIP3   OH246221   0.426   4.729   1.198 -0.6593  0.1550  0.1519
 8269TIP3    H146222   0.400   4.813   1.159 -1.4022 -0.5765 -1.0198
 8269TIP3    H246223   0.397   4.734   1.289  0.3725  1.6082  0.4374
 8270TIP3   OH246224   2.529   4.641   4.459 -0.3389 -0.6396 -0.0743
 8270TIP3    H146225   2.552   4.709   4.396 -0.1561 -0.3341  0.3174
 8270TIP3    H246226   2.512   4.688   4.541  1.5021 -1.1985  0.6721
 8271TIP3   OH246227   1.912   1.808   4.384  0.7711 -0.0050 -0.2640
 8271TIP3    H146228   1.999   1.799   4.421  0.7923 -1.2190 -0.5841
 8271TIP3    H246229   1.857   1.749   4.435  0.2225  0.4245 -0.3446
 8272TIP3   OH246230   3.331   2.225  14.225  0.2384  0.1644 -0.1209
 8272TIP3    H146231   3.364   2.136  14.211  1.0901  0.5789 -0.8037
 8272TIP3    H246232   3.304   2.255  14.138 -1.0485  0.2071  0.2634
 8273TIP3   OH246233   0.621   1.966  11.875 -0.2067  0.6550 -0.0336
 8273TIP3    H146234   0.683   2.040  11.877  1.9721 -1.0866  0.2753
 8273TIP3    H246235   0.664   1.897  11.925 -2.2208 -0.8367 -0.2275
 8274TIP3   OH246236   2.624   3.879  14.093  0.2952 -0.5759  0.1668
 8274TIP3    H146237   2.632   3.828  14.174 -1.0484 -0.6733  0.2684
 8274TIP3    H246238   2.712   3.877  14.055  0.7420 -1.2870  1.1704
 8275TIP3   OH246239   2.043   0.828   1.632 -0.3411 -0.1648  0.4162
 8275TIP3    H146240   2.133   0.850   1.606 -0.0742 -1.6647 -0.0296
 8275TIP3    H246241   2.053   0.781   1.715 -0.5897 -1.2977 -0.1731
 8276TIP3   OH246242   1.139   3.022  17.242 -0.4399 -0.5673  0.1876
 8276TIP3    H146243   1.134   3.009  17.337  2.4057 -0.9813  0.3628
 8276TIP3    H246244   1.176   2.941  17.208  0.9919  0.4785 -0.9120
 8277TIP3   OH246245   2.286   1.911   1.114 -0.4934 -0.2590 -0.1341
 8277TIP3    H146246   2.344   1.979   1.080  0.9024 -1.5029 -0.3833
 8277TIP3    H246247   2.226   1.892   1.042  1.2800 -1.5969 -1.3762
 8278TIP3   OH246248   0.811   1.216  11.451  0.1529 -0.0698  0.4778
 8278TIP3    H146249   0.721   1.197  11.480 -0.4174 -0.2974 -1.3380
 8278TIP3    H246250   0.802   1.245  11.361  1.9340 -0.3296  0.1767
 8279TIP3   OH246251   6.004   0.368   4.962 -0.3871 -0.2702  0.2072
 8279TIP3    H146252   5.998   0.419   4.881  2.0650  0.5581  0.4605
 8279TIP3    H246253   5.950   0.417   5.024 -2.2264 -0.8679 -0.8407
 8280TIP3   OH246254   2.311   0.408  13.720  0.2059 -0.4143 -0.7091
 8280TIP3    H146255   2.264   0.453  13.791  0.5587 -2.1491  0.6974
 8280TIP3    H246256   2.271   0.321  13.716  2.2219 -1.4083 -0.5316
 8281TIP3   OH246257   2.031   6.365  16.831  0.1922 -0.2234 -0.0918
 8281TIP3    H146258   1.983   6.296  16.784  1.1859 -0.4349 -0.8271
 8281TIP3    H246259   2.092   6.400  16.766 -0.9742  2.0682 -0.0377
 8282TIP3   OH246260   6.106   1.174  15.607  0.2029 -0.0318 -0.0484
 8282TIP3    H146261   6.166   1.102  15.586 -0.4532 -0.9741  1.2171
 8282TIP3    H246262   6.021   1.144  15.576 -0.3994 -0.5735  2.0084
 8283TIP3   OH246263   5.011   4.582  16.663  0.3061 -0.6097  0.2794
 8283TIP3    H146264   5.092   4.630  16.652  0.2097 -0.9319 -2.7973
 8283TIP3    H246265   4.952   4.643  16.706  0.8448  1.3046 -1.5386
 8284TIP3   OH246266   6.499   0.941   5.076 -0.3036  0.1508  0.2813
 8284TIP3    H146267   6.417   0.904   5.109  0.0427 -1.7713 -0.8815
 8284TIP3    H246268   6.560   0.867   5.074  0.8906  1.1162 -0.7325
 8285TIP3   OH246269   4.418   6.618   5.531  0.1847 -0.1535 -0.4572
 8285TIP3    H146270   4.332   6.643   5.497  0.5811  1.5506 -0.2855
 8285TIP3    H246271   4.473   6.610   5.453 -0.1789 -1.5565 -0.5930
 8286TIP3   OH246272   2.415   3.676  14.223 -0.0964  0.2660 -0.9203
 8286TIP3    H146273   2.486   3.719  14.272 -1.4307  0.3366  1.0567
 8286TIP3    H246274   2.460   3.613  14.167  1.6779  1.9073 -1.4683
 8287TIP3   OH246275   4.296   6.115   0.696 -0.4198  0.2648  0.4685
 8287TIP3    H146276   4.203   6.107   0.676 -0.3102 -2.0168  0.5884
 8287TIP3    H246277   4.299   6.147   0.786 -1.0075  2.1469 -0.1250
 8288TIP3   OH246278   1.794   5.964  13.394  0.7086 -0.4134  0.1605
 8288TIP3    H146279   1.736   6.039  13.411  0.4450 -0.2717 -1.1972
 8288TIP3    H246280   1.872   5.982  13.446  0.8962  1.1252 -0.5942
 8289TIP3   OH246281   1.406   3.664   5.629  0.0078 -0.2662  0.4632
 8289TIP3    H146282   1.417   3.637   5.538  0.7884  2.2686 -0.2588
 8289TIP3    H246283   1.462   3.604   5.679  0.0230 -1.3137 -0.7561
 8290TIP3   OH246284   2.006   3.921  14.878 -0.4598  0.6133 -0.2155
 8290TIP3    H146285   2.008   3.959  14.965  0.7220 -0.9067  0.4714
 8290TIP3    H246286   2.098   3.899  14.859 -0.6131  1.3639 -2.0555
 8291TIP3   OH246287   0.330   0.714   1.161  0.1923  0.1267  0.4996
 8291TIP3    H146288   0.318   0.646   1.228 -0.9471  1.6731  1.9277
 8291TIP3    H246289   0.370   0.787   1.208 -0.4415  1.1746 -0.5594
 8292TIP3   OH246290   0.522   2.562   0.575 -0.1802  0.3118  0.3438
 8292TIP3    H146291   0.524   2.529   0.665  0.9119 -0.4182  0.0729
 8292TIP3    H246292   0.614   2.574   0.552 -0.3418 -1.3010 -1.3255
 8293TIP3   OH246293   4.210   0.738   6.080  0.2912 -0.0463 -0.2793
 8293TIP3    H146294   4.287   0.789   6.103  0.1881 -0.0290  0.0247
 8293TIP3    H246295   4.210   0.665   6.142 -0.3654  0.3710  0.2262
 8294TIP3   OH246296   4.709   6.538  12.919 -0.6022 -1.0276 -0.3081
 8294TIP3    H146297   4.679   6.449  12.901  0.4802 -1.2581 -1.0486
 8294TIP3    H246298   4.667   6.592  12.853 -0.4327 -1.1541 -0.5210
 8295TIP3   OH246299   4.332   1.423  12.520 -0.1024 -0.0590 -0.0737
 8295TIP3    H146300   4.249   1.394  12.557 -0.7382  1.8697  0.0978
 8295TIP3    H246301   4.315   1.431  12.426  0.4690 -1.4922 -0.3194
 8296TIP3   OH246302   5.670   6.650  13.929 -0.5750  0.1058 -0.0387
 8296TIP3    H146303   5.654   6.556  13.932 -1.7884  0.2408 -1.2431
 8296TIP3    H246304   5.588   6.687  13.897  0.0489  1.5307 -0.0617
 8297TIP3   OH246305   4.723   4.989   4.806  0.8730  0.4254  0.2535
 8297TIP3    H146306   4.641   4.941   4.791  0.8519  1.2512 -3.0519
 8297TIP3    H246307   4.790   4.938   4.760  1.6001  1.4288  0.1576
 8298TIP3   OH246308   1.220   2.693  11.270  0.7469 -0.2104 -0.1939
 8298TIP3    H146309   1.158   2.726  11.206  2.4717  0.7264 -1.4518
 8298TIP3    H246310   1.205   2.599  11.272 -0.4129 -0.0479 -0.7715
 8299TIP3   OH246311   5.058   5.254  13.121 -0.8318 -0.3611  0.5881
 8299TIP3    H146312   5.130   5.317  13.128 -2.3937  1.4482  1.2955
 8299TIP3    H246313   5.038   5.252  13.028  0.6081 -1.5072  0.2641
 8300TIP3   OH246314   5.675   3.350  11.618  0.0508  0.6565  0.3487
 8300TIP3    H146315   5.752   3.380  11.667  0.4980  1.6310 -0.8793
 8300TIP3    H246316   5.708   3.337  11.529 -1.1156  0.6999 -0.1034
 8301TIP3   OH246317   5.552   2.308   5.915  0.7157 -1.0015 -0.7510
 8301TIP3    H146318   5.480   2.245   5.917  0.3689 -0.5990  0.0571
 8301TIP3    H246319   5.526   2.376   5.977  2.8893 -2.0733  1.5774
 8302TIP3   OH246320   5.901   4.189   2.765  0.2450 -0.0256  0.3514
 8302TIP3    H146321   5.855   4.105   2.767  1.7389 -1.1365  5.6405
 8302TIP3    H246322   5.977   4.173   2.710 -1.4257 -0.7782 -1.8739
 8303TIP3   OH246323   0.237   1.858  16.399  0.0883  0.7892  0.4045
 8303TIP3    H146324   0.180   1.934  16.409  0.2996  1.2512 -1.5402
 8303TIP3    H246325   0.280   1.871  16.315 -2.0683 -2.9526 -1.5128
 8304TIP3   OH246326   2.622   0.388   5.662  0.3251  0.6109 -0.3919
 8304TIP3    H146327   2.567   0.361   5.735  0.0610  0.0648 -0.7796
 8304TIP3    H246328   2.684   0.450   5.699  0.2924  0.2241  0.3261
 8305TIP3   OH246329   4.539   2.273  13.433 -0.6305  0.0313  0.5754
 8305TIP3    H146330   4.518   2.184  13.460 -1.6366  0.3763  1.0147
 8305TIP3    H246331   4.455   2.309  13.404 -0.6800  1.4627  2.3131
 8306TIP3   OH246332   4.068   1.484   5.170  0.6268 -0.4962 -0.3133
 8306TIP3    H146333   4.017   1.404   5.170  0.6276 -0.5150  0.6805
 8306TIP3    H246334   4.139   1.468   5.107 -0.8564 -0.2604 -2.1073
 8307TIP3   OH246335   4.317   6.680  11.628 -0.0842  0.4710  0.4318
 8307TIP3    H146336   4.291   6.760  11.674  3.0610 -0.3284  4.1696
 8307TIP3    H246337   4.235   6.640  11.600 -2.2146  2.2417  3.5386
 8308TIP3   OH246338   2.812   4.969   3.039 -0.1498  0.4469  0.2799
 8308TIP3    H146339   2.751   4.907   2.999 -0.3296  0.8051 -0.0147
 8308TIP3    H246340   2.758   5.044   3.064  0.0430  0.4283  0.7572
 8309TIP3   OH246341   2.445   6.402  12.249  0.4086 -0.0968 -0.0008
 8309TIP3    H146342   2.528   6.425  12.207  0.3889 -0.6745 -0.3751
 8309TIP3    H246343   2.389   6.477  12.234  0.8686  0.3079  0.2705
 8310TIP3   OH246344   3.669   3.509   5.239 -0.2504 -0.2430 -0.1594
 8310TIP3    H146345   3.607   3.459   5.185 -2.4037  0.7088  1.3176
 8310TIP3    H246346   3.662   3.599   5.207 -1.1385  0.2278  1.2598
 8311TIP3   OH246347   4.672   2.412  11.504 -0.4739  0.1380  0.5535
 8311TIP3    H146348   4.600   2.372  11.455  1.0341  1.1531 -2.8454
 8311TIP3    H246349   4.735   2.341  11.517  0.4996  0.3818 -2.0501
 8312TIP3   OH246350   1.734   0.926   1.943 -0.5945 -0.0988 -0.3612
 8312TIP3    H146351   1.689   0.848   1.975 -1.2362  0.4424  0.0669
 8312TIP3    H246352   1.678   0.999   1.969  0.4617  0.5805  0.0827
 8313TIP3   OH246353   1.513   1.305  14.293  0.4297  0.2077  0.2148
 8313TIP3    H146354   1.460   1.226  14.304  0.7317 -0.2395 -1.3136
 8313TIP3    H246355   1.584   1.296  14.357  0.2882 -0.6140  0.2671
 8314TIP3   OH246356   2.922   0.234  16.525 -0.1932  0.2027  0.4559
 8314TIP3    H146357   2.931   0.301  16.457  0.3577  0.0243  0.3477
 8314TIP3    H246358   2.894   0.282  16.603 -1.8099  0.2870 -0.1276
 8315TIP3   OH246359   3.880   4.113   0.211  0.3203 -0.2116 -0.5130
 8315TIP3    H146360   3.794   4.076   0.196 -0.6139  0.3887  2.5492
 8315TIP3    H246361   3.887   4.186   0.150 -1.3558 -0.2647 -0.7969
 8316TIP3   OH246362   3.558   2.653   6.377 -0.1440 -0.4250  0.1799
 8316TIP3    H146363   3.540   2.562   6.403  0.6937 -0.9824 -1.0933
 8316TIP3    H246364   3.653   2.661   6.382 -0.1415  0.1126 -0.5375
 8317TIP3   OH246365   1.360   2.351   2.883 -0.0607 -0.2551  0.3838
 8317TIP3    H146366   1.372   2.443   2.906 -1.1941 -0.5372  2.4346
 8317TIP3    H246367   1.363   2.305   2.967 -0.7584 -1.9266 -0.4530
 8318TIP3   OH246368   3.193   3.714  15.743 -0.0804 -0.3657 -0.2348
 8318TIP3    H146369   3.280   3.735  15.708 -0.5330  1.1814 -0.4796
 8318TIP3    H246370   3.181   3.621  15.721  0.6769 -0.0898 -2.0156
 8319TIP3   OH246371   4.557   3.971   4.397 -0.1855 -0.5236 -0.0425
 8319TIP3    H146372   4.585   3.881   4.382 -0.6783 -0.6440 -0.2500
 8319TIP3    H246373   4.463   3.965   4.413 -0.5976  0.1272 -1.9509
 8320TIP3   OH246374   6.208   5.315  11.509  0.5534  0.5201 -0.2436
 8320TIP3    H146375   6.115   5.290  11.512  1.1171 -2.0345 -1.4823
 8320TIP3    H246376   6.209   5.406  11.540 -2.1069  0.0171  1.6971
 8321TIP3   OH246377   2.797   3.807  11.992  0.1988 -0.0030  0.2149
 8321TIP3    H146378   2.879   3.797  11.945  0.6460 -1.1539  1.1734
 8321TIP3    H246379   2.777   3.901  11.987  0.7301  0.0571 -1.3630
 8322TIP3   OH246380   4.821   0.248   4.369  0.6248 -0.0956 -0.3077
 8322TIP3    H146381   4.803   0.336   4.401  1.2363  0.6054 -1.8173
 8322TIP3    H246382   4.896   0.258   4.311 -0.7335 -1.2185 -2.3661
 8323TIP3   OH246383   2.165   2.994  15.276 -0.5683  0.4682 -0.6279
 8323TIP3    H146384   2.183   3.068  15.334 -0.0063  0.0268 -0.2314
 8323TIP3    H246385   2.074   2.970  15.295  0.2743 -1.1456  1.7850
 8324TIP3   OH246386   0.154   1.640   1.565  0.1023 -0.6747 -0.0237
 8324TIP3    H146387   0.210   1.638   1.643 -1.1957  1.5876  1.0522
 8324TIP3    H246388   0.216   1.647   1.492  1.2803  0.5392  1.0365
 8325TIP3   OH246389   5.228   1.514   1.960  0.9525  0.3881  0.5970
 8325TIP3    H146390   5.201   1.601   1.930  0.1535 -0.0495  0.0185
 8325TIP3    H246391   5.303   1.531   2.017  0.6881  1.4724  0.6475
 8326TIP3   OH246392   5.607   5.443   1.537  0.6102 -0.0469  0.3642
 8326TIP3    H146393   5.512   5.431   1.532  0.7844 -1.5648  0.3433
 8326TIP3    H246394   5.637   5.438   1.446  0.6038  1.6061  0.2468
 8327TIP3   OH246395   4.746   0.988  12.663 -0.0629  0.4874  0.4200
 8327TIP3    H146396   4.687   0.922  12.701  0.4858  0.8500  1.9360
 8327TIP3    H246397   4.692   1.066  12.654 -0.7561 -0.1335 -1.5088
 8328TIP3   OH246398   0.416   1.743  14.233 -0.0265 -0.1979  0.1324
 8328TIP3    H146399   0.378   1.686  14.166 -1.0738  0.2494  0.3210
 8328TIP3    H246400   0.393   1.702  14.316  1.5246 -0.9089  0.2486
 8329TIP3   OH246401   3.048   2.725  11.768 -0.6335  0.1430  0.1832
 8329TIP3    H146402   3.104   2.649  11.755 -0.1972  0.3031  1.0364
 8329TIP3    H246403   2.989   2.725  11.693  0.4596 -0.0647 -0.6948
 8330TIP3   OH246404   2.256   2.969   0.857 -0.0093  0.7668  0.9594
 8330TIP3    H146405   2.175   2.972   0.806  0.1588 -0.0906  0.6168
 8330TIP3    H246406   2.236   3.019   0.936 -0.6525  1.1353  0.5757
 8331TIP3   OH246407   5.448   0.635   6.298  0.4593  0.2396  0.0806
 8331TIP3    H146408   5.430   0.578   6.372  1.3181  0.4905  0.5041
 8331TIP3    H246409   5.371   0.628   6.242 -0.5187  0.5860  1.3308
 8332TIP3   OH246410   1.894   5.701   0.121 -0.4914 -0.8576 -0.8858
 8332TIP3    H146411   1.871   5.780   0.171  1.3609 -0.5450 -0.4430
 8332TIP3    H246412   1.810   5.663   0.096 -1.4484  1.1722 -0.9770
 8333TIP3   OH246413   4.409   3.433   2.866  0.0294 -0.1345 -0.0483
 8333TIP3    H146414   4.475   3.492   2.902 -0.1531 -0.8547  1.5780
 8333TIP3    H246415   4.396   3.367   2.935 -1.0887 -1.0161 -1.0630
 8334TIP3   OH246416   4.228   3.996  14.061 -0.4383  0.6225  0.2738
 8334TIP3    H146417   4.257   4.076  14.105  1.7517  0.9227 -1.4947
 8334TIP3    H246418   4.297   3.933  14.080 -0.7691 -0.0070 -0.5881
 8335TIP3   OH246419   5.635   2.704   5.006 -0.3346 -0.5528  0.0325
 8335TIP3    H146420   5.564   2.722   4.944 -0.9095 -2.1171  0.1878
 8335TIP3    H246421   5.613   2.619   5.044  2.1447 -1.6405 -0.6968
 8336TIP3   OH246422   0.781   5.585  16.678  0.2496 -0.2376 -0.4698
 8336TIP3    H146423   0.732   5.524  16.732  0.6905 -0.3269 -0.1644
 8336TIP3    H246424   0.716   5.649  16.648  0.3405  1.0442  1.8706
 8337TIP3   OH246425   0.373   2.442  12.566 -0.9395 -0.4444 -0.3756
 8337TIP3    H146426   0.354   2.426  12.659 -1.4501 -1.3657 -0.6286
 8337TIP3    H246427   0.375   2.355  12.527  1.7417 -0.2777 -0.7836
 8338TIP3   OH246428   6.336   4.611  12.495 -0.2072  0.3199  0.0053
 8338TIP3    H146429   6.284   4.565  12.429  0.7557 -1.2025  0.2624
 8338TIP3    H246430   6.319   4.564  12.576 -0.7146  1.6514  0.6892
 8339TIP3   OH246431   5.394   6.691   5.577  0.1607 -0.0791  0.0194
 8339TIP3    H146432   5.426   6.723   5.661  0.2454  1.9553 -0.7484
 8339TIP3    H246433   5.402   6.765   5.518 -0.0889 -1.4066 -1.7589
 8340TIP3   OH246434   3.480   1.208  16.280  0.7070  0.3193  0.1989
 8340TIP3    H146435   3.466   1.253  16.363 -0.9452  0.3606 -0.0632
 8340TIP3    H246436   3.461   1.116  16.298 -1.8727  0.6197 -0.5511
 8341TIP3   OH246437   3.820   2.413   6.650 -0.7489 -0.4438 -0.0062
 8341TIP3    H146438   3.832   2.318   6.650 -0.2125 -0.3770  0.4511
 8341TIP3    H246439   3.774   2.432   6.732  0.4756 -0.1525  0.6380
 8342TIP3   OH246440   0.960   3.474   5.242 -0.1559 -0.1309 -0.6066
 8342TIP3    H146441   1.008   3.537   5.189  0.4325 -2.2598 -2.8145
 8342TIP3    H246442   1.029   3.422   5.285 -0.5073 -1.2982 -1.4129
 8343TIP3   OH246443   5.436   5.148   2.036 -0.2672  0.1723  0.5749
 8343TIP3    H146444   5.482   5.069   2.065  0.4388  0.2965 -0.1570
 8343TIP3    H246445   5.434   5.141   1.941 -2.3305 -0.1115  0.6065
 8344TIP3   OH246446   1.183   0.857   1.851  0.3291 -0.6084 -0.0401
 8344TIP3    H146447   1.254   0.867   1.915 -0.4773 -2.0545  1.1567
 8344TIP3    H246448   1.114   0.915   1.883  0.0041 -1.1756  0.3086
 8345TIP3   OH246449   6.018   0.044  16.729 -0.0543  0.1277 -0.2500
 8345TIP3    H146450   5.993   0.130  16.696  0.4903  0.6097  0.5295
 8345TIP3    H246451   5.988  -0.018  16.663 -0.0432  0.9555 -1.0487
 8346TIP3   OH246452   5.458   4.109   2.486  0.0179 -0.1212  0.1395
 8346TIP3    H146453   5.378   4.140   2.444 -0.6102  0.0957  1.4385
 8346TIP3    H246454   5.498   4.189   2.522  1.5802 -0.0086 -1.6567
 8347TIP3   OH246455   3.794   4.328   5.979 -0.0819  0.4709  0.6841
 8347TIP3    H146456   3.782   4.346   5.886  1.2521 -0.5599  0.2810
 8347TIP3    H246457   3.883   4.295   5.986 -1.4356 -3.5884  1.6549
 8348TIP3   OH246458   1.903   6.720   2.557 -0.3638  0.2511  0.3848
 8348TIP3    H146459   1.844   6.795   2.548  0.5080  1.0310  0.9863
 8348TIP3    H246460   1.917   6.710   2.651 -0.3164 -0.5559  0.3054
 8349TIP3   OH246461   0.453   2.841  16.687 -0.6446  0.0848 -0.1903
 8349TIP3    H146462   0.450   2.897  16.609 -0.2863  0.9849  0.4195
 8349TIP3    H246463   0.543   2.808  16.690 -1.0944 -1.2907 -1.0503
 8350TIP3   OH246464   0.514   3.305  12.185  0.2121  0.0085 -0.1055
 8350TIP3    H146465   0.508   3.318  12.280  1.8914 -1.6072  0.2787
 8350TIP3    H246466   0.547   3.388  12.151 -0.2876  0.5641  0.7201
 8351TIP3   OH246467   6.255   2.560   2.360  0.0646 -0.3362 -0.1731
 8351TIP3    H146468   6.226   2.628   2.421  0.0450  2.9709 -3.5553
 8351TIP3    H246469   6.201   2.484   2.381 -2.6904  1.8833  1.3767
 8352TIP3   OH246470   2.326   0.623  16.454  0.1929  0.3719 -0.1539
 8352TIP3    H146471   2.272   0.573  16.392 -0.4607  2.3308 -1.2666
 8352TIP3    H246472   2.366   0.556  16.510 -4.2586 -1.1953  1.5476
 8353TIP3   OH246473   4.769   5.730   0.388  0.3435 -1.0281 -0.3072
 8353TIP3    H146474   4.695   5.682   0.426  0.4471  0.8497  2.5809
 8353TIP3    H246475   4.825   5.750   0.463  2.8513 -0.7366 -2.1371
 8354TIP3   OH246476   2.172   2.709   0.189 -0.1374 -0.2220  0.3056
 8354TIP3    H146477   2.113   2.770   0.234 -0.8529 -0.5561 -0.1561
 8354TIP3    H246478   2.194   2.643   0.255 -0.6063 -0.3121  0.3738
 8355TIP3   OH246479   2.195   0.747  13.443  0.2346 -0.4144  0.3037
 8355TIP3    H146480   2.155   0.696  13.514 -1.4926 -1.1010 -1.0729
 8355TIP3    H246481   2.229   0.825  13.485 -0.2104 -1.0749  1.9654
 8356TIP3   OH246482   6.273   0.723   3.262  0.4629 -0.1407 -0.4092
 8356TIP3    H146483   6.235   0.794   3.210 -0.4144  0.0089  0.4120
 8356TIP3    H246484   6.291   0.763   3.347  0.7523 -0.6938 -0.2090
 8357TIP3   OH246485   5.934   6.741  10.926  0.3372 -0.2306 -0.1700
 8357TIP3    H146486   5.854   6.758  10.977  0.6203  1.0854 -0.1398
 8357TIP3    H246487   5.977   6.670  10.974 -0.9765 -1.2524 -0.4037
 8358TIP3   OH246488   1.058   3.046  11.227  0.8633  0.0308  0.1018
 8358TIP3    H146489   1.131   3.065  11.167  1.5674 -1.5491  0.3844
 8358TIP3    H246490   1.040   2.953  11.212 -0.4638  0.1724  0.7381
 8359TIP3   OH246491   4.616   0.629   1.839  0.7467 -0.4810 -0.1946
 8359TIP3    H146492   4.692   0.579   1.809 -0.2206 -0.2006 -3.5289
 8359TIP3    H246493   4.642   0.721   1.827  0.3599 -0.3465 -0.0024
 8360TIP3   OH246494   6.060   6.360  16.893 -0.2225  0.4137  0.0197
 8360TIP3    H146495   6.072   6.290  16.830 -0.4213  0.1253  0.2963
 8360TIP3    H246496   5.969   6.387  16.882  0.3412  1.8972 -1.3710
 8361TIP3   OH246497   5.697   3.077  11.775  0.0500  0.2532 -0.5594
 8361TIP3    H146498   5.729   3.111  11.692 -1.3800 -1.1775 -1.7729
 8361TIP3    H246499   5.681   2.984  11.758  0.0071 -0.1404  1.4136
 8362TIP3   OH246500   3.041   6.177  12.501  0.0971  0.3235  0.1982
 8362TIP3    H146501   3.113   6.217  12.551 -0.1421  2.0241 -0.7247
 8362TIP3    H246502   3.080   6.100  12.461  1.2056  0.7701  0.3579
 8363TIP3   OH246503   3.374   0.889   4.318 -0.3878  0.1049  0.0614
 8363TIP3    H146504   3.395   0.799   4.292  3.7413  0.5606  1.1191
 8363TIP3    H246505   3.364   0.884   4.414 -1.9332  0.5612 -0.0457
 8364TIP3   OH246506   5.684   6.443   3.525 -1.1094  0.0631 -0.1221
 8364TIP3    H146507   5.622   6.419   3.457 -1.4158 -1.0152  0.5164
 8364TIP3    H246508   5.631   6.452   3.604 -0.7760  1.4082 -0.0236
 8365TIP3   OH246509   4.450   6.019  12.030 -0.0074  0.2108 -0.6401
 8365TIP3    H146510   4.506   5.961  11.980 -1.8078 -1.7946 -0.4546
 8365TIP3    H246511   4.511   6.071  12.083  1.7447 -0.0542 -2.2934
 8366TIP3   OH246512   4.073   4.228  12.940 -0.4281 -0.1376  0.4695
 8366TIP3    H146513   4.046   4.136  12.945  1.5859 -0.7652  0.7336
 8366TIP3    H246514   4.020   4.265  12.869  0.1403 -2.0474 -1.0386
 8367TIP3   OH246515   5.701   5.331  17.281  0.0935 -0.2007  0.3519
 8367TIP3    H146516   5.647   5.260  17.316 -0.5472  0.0244 -0.1459
 8367TIP3    H246517   5.791   5.300  17.291 -0.1906 -1.3398 -0.3786
 8368TIP3   OH246518   1.466   3.269   4.060  0.3401 -0.2470  0.3720
 8368TIP3    H146519   1.462   3.194   4.119  2.0751 -1.9565 -1.5502
 8368TIP3    H246520   1.381   3.270   4.015  0.0378 -0.5718  0.9289
 8369TIP3   OH246521   3.168   3.959  12.324 -0.2637 -0.2792 -0.4888
 8369TIP3    H146522   3.136   3.996  12.242  0.7356  2.2009  0.1342
 8369TIP3    H246523   3.258   3.933  12.305  0.8005  2.4434  0.2531
 8370TIP3   OH246524   5.351   4.390   6.007  0.4338 -0.2049 -0.3552
 8370TIP3    H146525   5.440   4.378   6.040  0.1849  0.4511  0.6016
 8370TIP3    H246526   5.359   4.459   5.941  0.4225  1.0103  0.8618
 8371TIP3   OH246527   0.430   5.272  15.035  0.1347 -0.6812 -0.1298
 8371TIP3    H146528   0.349   5.319  15.052  0.2295 -0.4024 -0.4419
 8371TIP3    H246529   0.409   5.180  15.055  0.1581 -0.4132  1.1684
 8372TIP3   OH246530   0.423   0.162  12.396  0.0312  0.0798 -0.1785
 8372TIP3    H146531   0.493   0.099  12.412 -1.2174 -1.0794  0.9891
 8372TIP3    H246532   0.417   0.167  12.301  1.8306  0.3820 -0.3025
 8373TIP3   OH246533   1.990   2.540  15.632 -0.3392 -0.5443 -0.1267
 8373TIP3    H146534   2.051   2.469  15.613  1.2983  0.4813  1.0300
 8373TIP3    H246535   2.000   2.557  15.725 -0.2929  1.5080 -0.4533
 8374TIP3   OH246536   4.502   5.973   4.967 -0.4442  0.2089  0.1856
 8374TIP3    H146537   4.508   6.066   4.944  2.7521 -0.5911 -3.2996
 8374TIP3    H246538   4.592   5.948   4.989 -1.5309 -1.7846  2.8894
 8375TIP3   OH246539   1.447   2.724  16.218  0.4487 -0.4296 -0.9915
 8375TIP3    H146540   1.372   2.768  16.177 -0.2897 -1.0277 -0.3119
 8375TIP3    H246541   1.514   2.723  16.150  0.4736  1.6633 -1.0664
 8376TIP3   OH246542   4.446   6.317   3.688  0.1153 -0.2660 -0.6019
 8376TIP3    H146543   4.362   6.349   3.657  0.7905  0.4626 -1.7866
 8376TIP3    H246544   4.458   6.357   3.774 -0.1425  0.7318 -1.0183
 8377TIP3   OH246545   4.288   3.649  12.326 -0.5516  0.0856  0.0837
 8377TIP3    H146546   4.296   3.635  12.232 -1.3891  2.6103 -0.4217
 8377TIP3    H246547   4.357   3.712  12.347  1.0937 -2.0530  1.6608
 8378TIP3   OH246548   5.623   0.927   2.043  0.9485 -0.1851 -0.0040
 8378TIP3    H146549   5.689   0.872   1.999  0.5539 -0.6815  0.0200
 8378TIP3    H246550   5.541   0.880   2.031  0.6383  0.3043  0.1944
 8379TIP3   OH246551   2.154   2.903  17.056 -0.6042  0.1085  0.4833
 8379TIP3    H146552   2.079   2.909  17.115 -0.9495 -1.2963  0.2337
 8379TIP3    H246553   2.203   2.827  17.089 -0.4822 -0.3277 -0.6790
 8380TIP3   OH246554   3.453   2.462  13.070 -0.2614 -0.6116 -1.2503
 8380TIP3    H146555   3.433   2.495  13.158 -2.5430 -0.5686 -1.7322
 8380TIP3    H246556   3.496   2.536  13.026 -0.6962 -0.0338 -0.7156
 8381TIP3   OH246557   3.625   0.127  15.932 -0.3685 -0.5426 -0.8204
 8381TIP3    H146558   3.593   0.155  15.846 -0.9315  0.7359 -0.2348
 8381TIP3    H246559   3.716   0.157  15.935 -0.1396 -1.1800 -1.2100
 8382TIP3   OH246560   3.044   3.705   2.288  0.2308  0.1494  0.6329
 8382TIP3    H146561   3.103   3.681   2.217  1.8578 -0.8049  2.2195
 8382TIP3    H246562   2.966   3.650   2.274 -0.2465  1.2265 -1.3252
 8383TIP3   OH246563   4.107   4.262  11.532 -0.3480  0.9822  0.4997
 8383TIP3    H146564   4.132   4.354  11.538 -0.8575  1.0556  1.7770
 8383TIP3    H246565   4.137   4.235  11.445 -1.8791  2.8472 -0.6799
 8384TIP3   OH246566   1.597   1.202  12.257 -0.6096  0.3768  0.2750
 8384TIP3    H146567   1.630   1.234  12.341 -0.5980  0.5294  0.2115
 8384TIP3    H246568   1.657   1.132  12.232 -0.8933 -0.0030  0.6334
 8385TIP3   OH246569   4.293   3.675   1.522  0.6305 -0.3503  0.0023
 8385TIP3    H146570   4.209   3.721   1.531  0.4426 -0.5226 -0.8519
 8385TIP3    H246571   4.317   3.686   1.431  1.8807  0.2593  0.3921
 8386TIP3   OH246572   3.112   4.090   5.077 -0.2739 -0.6146 -0.4840
 8386TIP3    H146573   3.136   4.145   5.151 -0.1783  0.2905 -1.1805
 8386TIP3    H246574   3.189   4.090   5.021 -0.4273 -1.1066 -0.7003
 8387TIP3   OH246575   0.455   0.391  12.592  0.1275  0.0345  0.8615
 8387TIP3    H146576   0.430   0.336  12.517  0.4667  0.1189  0.6845
 8387TIP3    H246577   0.533   0.349  12.627 -0.2417 -0.2202  1.4084
 8388TIP3   OH246578   1.698   1.110   5.972 -0.0656 -0.0535  0.1701
 8388TIP3    H146579   1.682   1.129   6.064 -0.9897 -1.4899  0.3422
 8388TIP3    H246580   1.763   1.174   5.945 -0.2543  0.8053  1.6470
 8389TIP3   OH246581   1.307   4.322  16.159 -0.1790  0.3544  0.1570
 8389TIP3    H146582   1.237   4.344  16.098 -1.3721 -2.0719  0.5465
 8389TIP3    H246583   1.324   4.229  16.144  1.6198  0.4289  1.4280
 8390TIP3   OH246584   2.174   0.828  10.812 -0.0165  0.1018 -0.0944
 8390TIP3    H146585   2.166   0.923  10.813  1.2467  0.2593 -1.7719
 8390TIP3    H246586   2.111   0.800  10.746 -0.0336 -0.2002  0.0474
 8391TIP3   OH246587   1.867   5.444  14.445  0.0960  0.1806 -0.3284
 8391TIP3    H146588   1.883   5.528  14.488  3.1193  0.5222 -1.8436
 8391TIP3    H246589   1.923   5.383  14.492  0.2700 -0.3145 -1.1691
 8392TIP3   OH246590   5.371   2.443  16.681 -0.9188 -0.0882 -0.1227
 8392TIP3    H146591   5.345   2.520  16.630 -3.7286 -1.2159 -0.6123
 8392TIP3    H246592   5.348   2.465  16.771 -0.8510 -0.0102 -0.1247
 8393TIP3   OH246593   6.693   5.970  13.514  0.5513 -0.3417 -0.4401
 8393TIP3    H146594   6.614   5.961  13.567 -0.5983 -0.1850 -2.0555
 8393TIP3    H246595   6.662   6.006  13.431  2.3861  0.1019 -0.9680
 8394TIP3   OH246596   6.313   1.651  16.008  0.5796 -0.0818  0.1371
 8394TIP3    H146597   6.218   1.640  16.017  0.4621  0.6974 -0.0923
 8394TIP3    H246598   6.323   1.720  15.943  1.2725  1.3160  1.6812
 8395TIP3   OH246599   2.084   3.848   5.450  0.5828 -0.2466  0.2150
 8395TIP3    H146600   2.009   3.805   5.410 -0.9518  2.5590 -0.1230
 8395TIP3    H246601   2.061   3.855   5.543  0.8012 -0.1125  0.2601
 8396TIP3   OH246602   5.693   0.665   5.208 -0.0584  0.6189  0.3706
 8396TIP3    H146603   5.692   0.756   5.238  0.2909  1.1490 -1.0912
 8396TIP3    H246604   5.602   0.645   5.187  0.2546  2.0543 -3.0676
 8397TIP3   OH246605   2.113   6.273  12.670  0.4106  0.0280  0.2489
 8397TIP3    H146606   2.072   6.339  12.614  1.6929  2.2309  1.7346
 8397TIP3    H246607   2.182   6.235  12.616 -1.0151 -0.9009 -0.9793
 8398TIP3   OH246608   1.606   5.138   3.488  0.3435  0.2533 -0.3635
 8398TIP3    H146609   1.556   5.207   3.444 -0.7703 -0.7535 -0.7268
 8398TIP3    H246610   1.585   5.148   3.580  1.2879  1.2528 -0.2339
 8399TIP3   OH246611   2.613   2.417   4.596 -0.0475 -0.2381 -0.5057
 8399TIP3    H146612   2.691   2.367   4.619 -0.5471 -1.3598 -1.1632
 8399TIP3    H246613   2.591   2.389   4.507 -0.2482  1.3016 -0.9829
 8400TIP3   OH246614   4.287   6.240  15.031  0.2777 -0.5085 -0.1872
 8400TIP3    H146615   4.234   6.177  15.081 -1.2844 -0.4862 -1.7371
 8400TIP3    H246616   4.287   6.206  14.942  0.5669  0.9684 -0.7796
 8401TIP3   OH246617   5.432   0.616   2.359 -0.1042  0.1304 -0.3508
 8401TIP3    H146618   5.374   0.630   2.285  0.5334  1.5898 -0.6137
 8401TIP3    H246619   5.519   0.638   2.326  0.4029 -0.6451  0.4233
 8402TIP3   OH246620   5.396   5.151   3.167  0.9487  0.5389  0.0510
 8402TIP3    H146621   5.464   5.094   3.203 -1.0517 -2.3814 -0.5011
 8402TIP3    H246622   5.394   5.131   3.074 -0.5564  0.6125  0.0370
 8403TIP3   OH246623   1.727   2.451   5.966  0.2618  0.0221  0.2002
 8403TIP3    H146624   1.734   2.409   5.880  0.0774 -0.2483  0.3176
 8403TIP3    H246625   1.640   2.427   5.998  0.3237  0.1351  0.4581
 8404TIP3   OH246626   4.752   4.919  15.782  0.1946 -0.0901  0.1421
 8404TIP3    H146627   4.718   4.969  15.707  1.7643 -0.0852 -0.5903
 8404TIP3    H246628   4.846   4.913  15.767  0.5354 -0.2027  2.0703
 8405TIP3   OH246629   4.759   2.431  13.354  0.0845 -0.3487 -0.0389
 8405TIP3    H146630   4.699   2.366  13.393  1.4365 -0.7579  1.5123
 8405TIP3    H246631   4.790   2.482  13.429  0.1435  1.1823 -1.0704
 8406TIP3   OH246632   3.960   5.905   1.850  0.7950  0.4886  0.1013
 8406TIP3    H146633   4.014   5.893   1.928  0.8407 -1.2838 -0.1677
 8406TIP3    H246634   3.879   5.858   1.870  1.2514 -0.9579 -1.3324
 8407TIP3   OH246635   2.594   1.194   2.399  0.6285 -1.0086  0.2286
 8407TIP3    H146636   2.647   1.140   2.340  0.5474 -0.5542 -0.2682
 8407TIP3    H246637   2.529   1.236   2.342 -0.3950 -1.7048  0.8609
 8408TIP3   OH246638   1.122   3.863   3.054 -0.5235  0.1454  0.0574
 8408TIP3    H146639   1.078   3.802   2.994  2.4007 -1.8129 -0.2751
 8408TIP3    H246640   1.193   3.812   3.092  0.5803  2.7090  1.6581
 8409TIP3   OH246641   0.105   4.604  12.926 -0.0531  0.2842 -0.1128
 8409TIP3    H146642   0.109   4.519  12.969 -1.0160  0.1959 -0.1635
 8409TIP3    H246643   0.181   4.606  12.868  0.0658 -0.4719  0.0085
 8410TIP3   OH246644   0.250   3.245  10.758  0.4324  0.0282  0.2404
 8410TIP3    H146645   0.220   3.220  10.845 -1.3969 -1.3539 -0.7046
 8410TIP3    H246646   0.282   3.163  10.719  0.4725  0.4604 -0.6713
 8411TIP3   OH246647   5.198   2.377  13.177 -0.0225 -0.0754  0.4070
 8411TIP3    H146648   5.141   2.416  13.111  1.5229  1.1269 -0.2795
 8411TIP3    H246649   5.260   2.446  13.200  0.7797 -1.1346  1.5672
 8412TIP3   OH246650   3.687   2.486   4.311  0.0447  0.4330  0.3170
 8412TIP3    H146651   3.695   2.558   4.249 -1.5395  0.6463  0.3065
 8412TIP3    H246652   3.632   2.421   4.267 -1.2536  0.6588  1.4996
 8413TIP3   OH246653   3.534   1.378   4.249 -0.2717 -0.5070  0.2999
 8413TIP3    H146654   3.618   1.343   4.219  0.5695  0.2167  1.7297
 8413TIP3    H246655   3.471   1.310   4.227  0.8986 -1.6799  0.4661
 8414TIP3   OH246656   0.836   4.748  11.926  0.1983 -0.5457 -0.0433
 8414TIP3    H146657   0.851   4.698  12.006 -0.7925  1.1205  1.2262
 8414TIP3    H246658   0.822   4.681  11.859  0.0221 -1.9729  1.3580
 8415TIP3   OH246659   6.754   6.751   4.820  0.7524  0.1659 -0.1584
 8415TIP3    H146660   6.676   6.710   4.782  0.4246 -0.0286  0.7174
 8415TIP3    H246661   6.734   6.844   4.822 -0.5681 -0.0987  2.5047
 8416TIP3   OH246662   2.002   3.931  15.968  0.1223  0.2573  0.3714
 8416TIP3    H146663   2.022   3.938  16.061  1.7089 -0.6788  0.1493
 8416TIP3    H246664   1.917   3.888  15.965 -0.8902  2.0449  1.3713
 8417TIP3   OH246665   1.398   1.330  16.090  0.4736 -0.3721 -0.1857
 8417TIP3    H146666   1.368   1.301  16.004  0.7061 -0.9390 -0.0826
 8417TIP3    H246667   1.494   1.329  16.084  0.4903  0.5950 -0.2465
 8418TIP3   OH246668   0.945   4.707  15.099  0.4039  0.3191 -0.1494
 8418TIP3    H146669   1.018   4.769  15.095  0.9725 -0.3809 -0.7134
 8418TIP3    H246670   0.983   4.626  15.133 -0.1070 -0.0541 -0.4470
 8419TIP3   OH246671   5.856   2.140   2.081  0.2233 -0.4216 -0.1581
 8419TIP3    H146672   5.794   2.211   2.064  0.1844 -0.5270 -0.4715
 8419TIP3    H246673   5.907   2.133   2.000  1.2920  0.2997  0.4347
 8420TIP3   OH246674   3.712   4.509   6.152 -0.0940  0.2572  0.3756
 8420TIP3    H146675   3.662   4.465   6.221 -2.2974  2.3846  0.2893
 8420TIP3    H246676   3.736   4.439   6.092 -0.9749 -1.1890  1.6252
 8421TIP3   OH246677   6.607   4.568   5.396 -0.1935  0.5119  0.5487
 8421TIP3    H146678   6.666   4.639   5.370 -0.9044  1.1275  0.5858
 8421TIP3    H246679   6.519   4.605   5.385 -0.7281 -1.2503 -2.2259
 8422TIP3   OH246680   3.705   1.570  11.577 -0.3654 -0.5514  0.2237
 8422TIP3    H146681   3.697   1.646  11.519 -0.0758 -0.9540 -0.3506
 8422TIP3    H246682   3.627   1.574  11.633 -0.7820 -0.3075 -0.3710
 8423TIP3   OH246683   3.389   4.422   0.677 -0.2436 -1.0544 -0.2657
 8423TIP3    H146684   3.341   4.501   0.652 -0.3046 -1.5326 -1.7518
 8423TIP3    H246685   3.416   4.438   0.768 -0.4302  0.5775 -0.4660
 8424TIP3   OH246686   4.875   3.057  12.670  0.0368 -0.1083 -0.2765
 8424TIP3    H146687   4.869   3.084  12.762 -0.2661  0.0680 -0.3458
 8424TIP3    H246688   4.790   3.017  12.651 -0.9046  2.1787 -1.2162
 8425TIP3   OH246689   1.562   1.276  13.662  0.1852  0.2603 -0.7207
 8425TIP3    H146690   1.479   1.294  13.706  0.3718  0.6049 -0.5050
 8425TIP3    H246691   1.541   1.211  13.595  0.0912 -1.1335  0.6085
 8426TIP3   OH246692   6.485   3.627  14.068  0.4828 -0.4824  0.0132
 8426TIP3    H146693   6.545   3.611  14.141  0.5580  0.0198  0.0662
 8426TIP3    H246694   6.538   3.612  13.990  0.5757 -0.4059  0.0611
 8427TIP3   OH246695   0.056   5.005  15.911 -0.0552 -0.0380  0.0233
 8427TIP3    H146696   0.088   4.936  15.852 -2.9880 -1.0916 -0.4882
 8427TIP3    H246697   0.065   4.968  15.998 -0.6818 -0.7053 -0.1809
 8428TIP3   OH246698   3.944   0.882   1.551  0.0398  0.2862 -0.2561
 8428TIP3    H146699   3.861   0.838   1.569  0.6600 -1.5221 -1.6062
 8428TIP3    H246700   3.988   0.885   1.636 -1.6200  1.8593  0.6170
 8429TIP3   OH246701   0.087   2.159  16.052 -0.6817  0.3652  0.4980
 8429TIP3    H146702  -0.000   2.123  16.033  0.0190 -0.4722 -1.3328
 8429TIP3    H246703   0.126   2.175  15.966  1.0118  0.6693  1.2840
 8430TIP3   OH246704   2.145   1.729  11.520  0.3521 -0.1811 -0.8425
 8430TIP3    H146705   2.113   1.766  11.603 -2.0850  1.0105 -2.2091
 8430TIP3    H246706   2.068   1.685  11.483  1.9323 -2.4851 -1.5725
 8431TIP3   OH246707   6.585   2.094  15.529  0.7640  0.3501  0.6503
 8431TIP3    H146708   6.533   2.019  15.560  0.5772 -0.1027 -0.7033
 8431TIP3    H246709   6.675   2.062  15.527  0.8386  0.5208  1.1297
 8432TIP3   OH246710   2.419   1.337  12.967  0.3177 -0.8513 -0.1650
 8432TIP3    H146711   2.468   1.346  13.049  1.0277  1.6071 -0.7857
 8432TIP3    H246712   2.433   1.246  12.941  1.7710 -1.1303  1.4086
 8433TIP3   OH246713   3.378   3.313  12.173 -0.0467 -0.7352  0.3583
 8433TIP3    H146714   3.340   3.388  12.126  0.6170 -0.4789  0.2170
 8433TIP3    H246715   3.323   3.304  12.251 -1.0863 -1.0833 -0.3870
 8434TIP3   OH246716   3.845   1.576  14.010  0.3534  0.1198  0.0779
 8434TIP3    H146717   3.758   1.568  14.050  1.1412 -0.8094  1.7195
 8434TIP3    H246718   3.866   1.669  14.017 -0.9431  0.5636 -1.3895
 8435TIP3   OH246719   1.432   2.914   0.599 -0.1114 -0.1358  0.1356
 8435TIP3    H146720   1.444   2.948   0.510  0.2325 -0.5787  0.0114
 8435TIP3    H246721   1.338   2.901   0.607  0.0622 -2.5697 -1.0897
 8436TIP3   OH246722   6.432   6.298   4.506  0.2091 -0.2338 -0.2828
 8436TIP3    H146723   6.424   6.279   4.413 -0.4376  0.3954 -0.3667
 8436TIP3    H246724   6.377   6.375   4.519 -0.5806 -0.9645  0.8320
 8437TIP3   OH246725   1.124   0.180   5.183 -0.0518  0.2266 -1.1227
 8437TIP3    H146726   1.127   0.246   5.252  0.1924 -3.1371  2.4849
 8437TIP3    H246727   1.031   0.157   5.177  0.1032 -0.5315 -0.7438
 8438TIP3   OH246728   2.543   1.961  12.007  0.1316  0.6192 -0.0676
 8438TIP3    H146729   2.476   1.970  12.074 -0.6183 -2.0856 -0.3423
 8438TIP3    H246730   2.615   1.916  12.051  0.5155  0.7671 -0.5338
 8439TIP3   OH246731   2.372   5.524   2.583 -0.0961  0.1830  0.0579
 8439TIP3    H146732   2.373   5.460   2.655  1.9158  1.0556  0.8899
 8439TIP3    H246733   2.315   5.594   2.614 -0.8221 -0.3455 -0.0630
 8440TIP3   OH246734   2.112   2.210   1.188  0.1065 -0.2877  0.0991
 8440TIP3    H146735   2.175   2.191   1.258 -2.1919  0.0211  2.4315
 8440TIP3    H246736   2.075   2.124   1.165  1.3874 -0.4876 -1.3674
 8441TIP3   OH246737   3.338   1.147   0.242  0.1826 -0.0065 -0.2803
 8441TIP3    H146738   3.425   1.108   0.254  0.5211  1.0644  1.1544
 8441TIP3    H246739   3.346   1.198   0.162  0.4517 -0.9852 -0.8881
 8442TIP3   OH246740   3.209   4.023  13.380 -0.1603  0.8122 -0.4645
 8442TIP3    H146741   3.206   3.944  13.327  1.0135  0.7667 -0.4936
 8442TIP3    H246742   3.137   4.014  13.443 -0.5338  0.1116 -0.9883
 8443TIP3   OH246743   0.403   4.723   2.782 -0.4019 -0.1724 -0.5798
 8443TIP3    H146744   0.460   4.761   2.714  1.7036 -1.6034  0.2994
 8443TIP3    H246745   0.457   4.722   2.861 -1.7924 -1.2546  0.4051
 8444TIP3   OH246746   1.150   0.786  14.363 -0.2993 -0.3326  0.0320
 8444TIP3    H146747   1.098   0.864  14.381  0.4288  0.9518 -2.8619
 8444TIP3    H246748   1.219   0.788  14.428 -1.7282 -0.0327  1.6170
 8445TIP3   OH246749   2.434   0.683  13.777  0.4814  0.6784  0.2622
 8445TIP3    H146750   2.368   0.653  13.839  0.5821  1.8298  0.9497
 8445TIP3    H246751   2.430   0.619  13.705 -1.0578  0.4760  0.4901
 8446TIP3   OH246752   1.798   5.223  14.693  0.2111 -0.2641 -1.0648
 8446TIP3    H146753   1.880   5.189  14.728  2.1688  1.8035 -3.3355
 8446TIP3    H246754   1.762   5.277  14.764  0.5827 -1.4559  0.0708
 8447TIP3   OH246755   0.268   5.733  16.015 -0.2218  0.2463 -0.3348
 8447TIP3    H146756   0.259   5.822  15.982  0.1814  0.4038 -0.0345
 8447TIP3    H246757   0.325   5.742  16.092  0.0801 -0.3101 -0.4916
 8448TIP3   OH246758   0.422   2.171  12.841  0.4059  1.0806  0.2252
 8448TIP3    H146759   0.511   2.194  12.867  0.0481  1.6895  0.9465
 8448TIP3    H246760   0.369   2.244  12.871 -0.0631  1.8029 -2.1550
 8449TIP3   OH246761   0.896   3.158   5.196  0.1217  0.1827 -0.3940
 8449TIP3    H146762   0.918   3.234   5.250 -0.5209 -0.0465  0.1922
 8449TIP3    H246763   0.943   3.085   5.237 -0.3235  0.0192 -0.1660
 8450TIP3   OH246764   6.113   5.228   2.468 -0.3520 -0.2854  0.2134
 8450TIP3    H146765   6.044   5.233   2.534 -0.0727 -0.4159  0.5158
 8450TIP3    H246766   6.129   5.319   2.445  3.3393  0.4136  4.2963
 8451TIP3   OH246767   5.608   1.958  16.909 -0.2193  0.0382  0.5272
 8451TIP3    H146768   5.675   1.949  16.841  0.5814  2.4064  0.9342
 8451TIP3    H246769   5.618   1.880  16.963  0.4072 -0.9445 -0.9273
 8452TIP3   OH246770   2.341   0.717   4.267 -0.3352  0.5769 -0.0900
 8452TIP3    H146771   2.383   0.665   4.335 -0.6222  0.1690 -0.2183
 8452TIP3    H246772   2.353   0.808   4.295 -1.0017  0.3937  0.8326
 8453TIP3   OH246773   4.231   0.977   3.107 -0.0688  0.1967 -0.3727
 8453TIP3    H146774   4.215   0.887   3.138  0.4699 -0.9086 -3.0442
 8453TIP3    H246775   4.172   1.031   3.159  0.7768 -1.4342  2.5140
 8454TIP3   OH246776   6.201   3.846  17.251  0.0442 -0.5085  0.2369
 8454TIP3    H146777   6.150   3.863  17.172 -0.4076  1.5690  0.9247
 8454TIP3    H246778   6.290   3.829  17.219 -0.3387 -0.7239 -0.7584
 8455TIP3   OH246779   1.697   1.549   5.894 -0.2577 -0.3111 -0.0116
 8455TIP3    H146780   1.725   1.528   5.805  0.7520  1.6334 -0.2153
 8455TIP3    H246781   1.630   1.484   5.914 -0.9361 -0.4505 -2.4010
 8456TIP3   OH246782   5.687   3.245  16.590 -0.6329 -0.2973 -0.3640
 8456TIP3    H146783   5.664   3.335  16.614  2.1348  0.4438 -0.1848
 8456TIP3    H246784   5.606   3.195  16.605 -1.3129  1.4988  2.9616
 8457TIP3   OH246785   0.877   2.491  16.795  0.9555 -0.4777 -0.4866
 8457TIP3    H146786   0.857   2.399  16.814  0.5022  0.0753  2.1641
 8457TIP3    H246787   0.964   2.505  16.833  0.6352  0.3865 -0.0448
 8458TIP3   OH246788   4.947   3.429  14.059  0.1456  0.1423  0.3122
 8458TIP3    H146789   4.978   3.460  14.144 -3.0511  1.7893  1.0236
 8458TIP3    H246790   4.893   3.353  14.078  0.5422 -0.3437 -0.4329
 8459TIP3   OH246791   0.763   5.883   6.108 -0.1149 -0.1447 -0.3432
 8459TIP3    H146792   0.714   5.849   6.033 -3.2519  1.1988  0.9662
 8459TIP3    H246793   0.729   5.836   6.183 -0.9716  2.2791  0.8760
 8460TIP3   OH246794   0.367   3.306  12.804  0.1415  0.2049  0.2687
 8460TIP3    H146795   0.282   3.309  12.761  0.3358 -1.5966 -0.3068
 8460TIP3    H246796   0.363   3.377  12.869 -2.1800 -0.4895  0.9714
 8461TIP3   OH246797   1.935   5.195  16.476 -0.1873 -0.1460 -0.0055
 8461TIP3    H146798   1.922   5.242  16.394 -1.2024  0.3614  0.4258
 8461TIP3    H246799   1.853   5.147  16.489 -0.1042 -0.0816  0.7953
 8462TIP3   OH246800   6.650   0.347  13.576 -0.1811  0.1679  0.2991
 8462TIP3    H146801   6.627   0.256  13.593  2.1932 -0.4734  0.3384
 8462TIP3    H246802   6.648   0.356  13.481 -0.1876  0.0324  0.2867
 8463TIP3   OH246803   3.501   1.373   0.382 -0.0592  0.5286  0.7713
 8463TIP3    H146804   3.494   1.444   0.318  1.7355 -0.7257 -0.9525
 8463TIP3    H246805   3.481   1.294   0.332 -0.3363 -0.3453  2.2099
 8464TIP3   OH246806   2.296   6.572  13.396  0.3642  0.2831  0.3739
 8464TIP3    H146807   2.386   6.543  13.378 -0.0368 -1.1311  0.5719
 8464TIP3    H246808   2.300   6.605  13.486  0.8515  0.9743  0.1091
 8465TIP3   OH246809   2.122   5.078  13.622  0.4768 -0.2414  0.3714
 8465TIP3    H146810   2.157   5.165  13.603 -0.4512  0.1571  0.4465
 8465TIP3    H246811   2.161   5.022  13.555  0.1347  0.4638 -0.4343
 8466TIP3   OH246812   6.222   6.025  12.969  0.5405  0.5942 -0.3491
 8466TIP3    H146813   6.147   5.970  12.946  0.3215 -1.9142  4.9314
 8466TIP3    H246814   6.293   5.993  12.914 -1.1620 -0.0752 -2.2878
 8467TIP3   OH246815   1.283   0.283  14.096 -0.6491 -0.4437  0.2052
 8467TIP3    H146816   1.255   0.350  14.158 -0.6896  1.0371 -1.3366
 8467TIP3    H246817   1.344   0.228  14.145 -0.7667  0.6009  1.5643
 8468TIP3   OH246818   2.410   5.855  16.054 -0.8092 -0.5376 -0.4349
 8468TIP3    H146819   2.374   5.878  16.139  0.5512  2.7703 -0.6303
 8468TIP3    H246820   2.362   5.909  15.992  1.0333  0.2534 -1.2283
 8469TIP3   OH246821   1.351   6.093   1.530 -0.5123  0.2928 -0.1056
 8469TIP3    H146822   1.266   6.073   1.490  0.3708 -2.3281 -0.8931
 8469TIP3    H246823   1.413   6.089   1.458  0.9075 -3.0158  1.0702
 8470TIP3   OH246824   4.713   2.483  14.465  0.4014 -0.7579 -0.4444
 8470TIP3    H146825   4.806   2.485  14.441  0.1389 -1.2601 -1.5525
 8470TIP3    H246826   4.710   2.429  14.544  1.3362  1.2825  1.0646
 8471TIP3   OH246827   4.154   1.991   2.053  0.5561  0.0166 -0.1635
 8471TIP3    H146828   4.070   1.956   2.024 -0.0202 -0.1404  1.5974
 8471TIP3    H246829   4.175   1.941   2.131  1.7130  0.8611  0.0889
 8472TIP3   OH246830   5.875   5.341   5.258  0.4534  0.1075  0.5959
 8472TIP3    H146831   5.964   5.306   5.254  0.5308  0.3595 -0.0887
 8472TIP3    H246832   5.847   5.324   5.348  1.5662  0.9369  1.1370
 8473TIP3   OH246833   4.100   2.275  13.418 -0.2025  0.4911  0.2479
 8473TIP3    H146834   4.010   2.266  13.387 -0.2847  1.6555  0.1159
 8473TIP3    H246835   4.094   2.268  13.513 -0.3925  0.3090  0.2223
 8474TIP3   OH246836   2.029   0.434  15.740  0.4568  0.8650  0.3947
 8474TIP3    H146837   2.111   0.481  15.721  0.4695  1.0022  0.7777
 8474TIP3    H246838   2.036   0.353  15.690 -0.4840  2.1575 -1.9851
 8475TIP3   OH246839   1.208   6.138   4.033 -0.3410  0.6552 -0.2266
 8475TIP3    H146840   1.156   6.066   4.069 -1.0864  1.0738 -0.4335
 8475TIP3    H246841   1.292   6.099   4.012  0.1572  0.3988  2.0155
 8476TIP3   OH246842   3.187   4.078  10.665  0.2846  0.5818  0.1046
 8476TIP3    H146843   3.198   4.160  10.618 -0.6053 -0.1597 -1.4890
 8476TIP3    H246844   3.106   4.041  10.629 -0.1775 -0.2600  1.9065
 8477TIP3   OH246845   0.661   1.334   0.176 -0.1547  0.2979 -1.0073
 8477TIP3    H146846   0.728   1.364   0.238 -0.3533  2.9988 -1.9499
 8477TIP3    H246847   0.579   1.337   0.225  0.2395 -2.5768  0.0136
 8478TIP3   OH246848   4.741   4.550   5.741  0.3809  0.3616  0.0324
 8478TIP3    H146849   4.758   4.632   5.694 -0.3225  1.6612  1.9613
 8478TIP3    H246850   4.827   4.524   5.775  0.5327  0.5010 -0.2401
 8479TIP3   OH246851   4.733   4.722   3.550  0.5163 -0.5189  0.1363
 8479TIP3    H146852   4.755   4.715   3.457  0.0302  0.3979 -0.0635
 8479TIP3    H246853   4.745   4.815   3.570 -0.4128 -0.5197  0.7259
 8480TIP3   OH246854   6.493   5.990   5.595 -0.0219 -0.6950  0.5815
 8480TIP3    H146855   6.425   6.048   5.631 -1.4270 -0.8760 -1.5862
 8480TIP3    H246856   6.466   5.902   5.622 -0.8175 -0.7869 -0.4407
 8481TIP3   OH246857   2.476   4.948  12.929  0.3383 -0.1728  0.5998
 8481TIP3    H146858   2.490   4.921  12.838  0.5910 -1.2301  0.9417
 8481TIP3    H246859   2.504   5.040  12.930  0.5896 -0.2203 -0.3304
 8482TIP3   OH246860   5.313   3.473  11.412  0.7559 -0.3094 -0.5775
 8482TIP3    H146861   5.404   3.490  11.438  0.6203 -0.3688 -0.0532
 8482TIP3    H246862   5.273   3.560  11.407  0.5049 -0.3447  0.4720
 8483TIP3   OH246863   6.301   0.686  15.668 -0.0186 -0.3011 -0.1321
 8483TIP3    H146864   6.299   0.592  15.685  2.1155 -0.2362  0.7021
 8483TIP3    H246865   6.392   0.705  15.647 -0.2574  1.7128  0.4275
 8484TIP3   OH246866   3.811   0.712  13.925  0.1015 -0.6182  0.1106
 8484TIP3    H146867   3.762   0.703  14.007 -1.0013 -0.7799 -0.5457
 8484TIP3    H246868   3.819   0.807  13.913  0.1650 -0.5931  0.3438
 8485TIP3   OH246869   3.950   3.320  13.405 -0.9953 -0.8220 -0.2286
 8485TIP3    H146870   3.904   3.271  13.473 -0.3823 -0.4856  0.4374
 8485TIP3    H246871   4.042   3.297  13.416 -0.7543  0.0915 -0.2155
 8486TIP3   OH246872   4.492   0.918   0.030  0.8307  0.3770  0.1731
 8486TIP3    H146873   4.440   0.891  -0.046  0.9867  2.2482 -0.6396
 8486TIP3    H246874   4.511   1.010   0.014  1.7310  0.5358  2.0112
 8487TIP3   OH246875   6.149   4.690   5.689 -0.1604 -0.3875 -0.2017
 8487TIP3    H146876   6.127   4.779   5.663  0.3378  0.1673  1.2065
 8487TIP3    H246877   6.118   4.636   5.616  0.5102  1.0105 -1.5939
 8488TIP3   OH246878   4.147   2.474  12.537 -0.1469  0.1814 -0.2962
 8488TIP3    H146879   4.184   2.487  12.449 -1.7015  1.2867 -0.8485
 8488TIP3    H246880   4.089   2.398  12.527  0.4946 -0.3658  0.0725
 8489TIP3   OH246881   5.058   3.290  11.463 -0.3938  0.5752 -0.3848
 8489TIP3    H146882   4.997   3.341  11.410 -1.0367  0.5624  0.3209
 8489TIP3    H246883   5.028   3.302  11.553  0.1379 -0.1195 -0.0995
 8490TIP3   OH246884   3.150   5.566   2.093 -0.3991  0.7031  0.8981
 8490TIP3    H146885   3.062   5.536   2.116 -1.1490  1.6399 -0.5549
 8490TIP3    H246886   3.137   5.654   2.057  1.1165  0.7834  0.4588
 8491TIP3   OH246887   1.868   4.693   6.319 -0.2626  0.1687  0.2741
 8491TIP3    H146888   1.943   4.649   6.361 -2.2143 -2.2084  1.5805
 8491TIP3    H246889   1.875   4.668   6.227 -0.6016 -2.0189  0.7670
 8492TIP3   OH246890   4.195   3.838   3.725  0.8371  0.1904 -0.1577
 8492TIP3    H146891   4.130   3.869   3.662  1.5345  2.4902  0.1489
 8492TIP3    H246892   4.147   3.775   3.779 -0.7520  0.7967 -0.7910
 8493TIP3   OH246893   0.966   0.294  11.409  0.4489 -0.0776  0.0998
 8493TIP3    H146894   0.921   0.363  11.459 -0.5190 -0.3451 -0.3733
 8493TIP3    H246895   0.990   0.229  11.476 -0.1829 -0.0872  0.3323
 8494TIP3   OH246896   5.177   4.205   1.140  0.4991  0.0947 -0.5886
 8494TIP3    H146897   5.258   4.162   1.167  0.9771  0.2602 -1.6848
 8494TIP3    H246898   5.157   4.167   1.054 -0.5248  0.1489 -0.3879
 8495TIP3   OH246899   6.573   5.190  17.253 -0.1406 -0.4030 -0.0332
 8495TIP3    H146900   6.607   5.219  17.168  0.9225 -0.9834  0.1642
 8495TIP3    H246901   6.504   5.128  17.231  1.0082 -1.5708 -0.5288
 8496TIP3   OH246902   3.887   2.323  16.141 -0.2604  0.3964 -0.1087
 8496TIP3    H146903   3.958   2.358  16.088 -0.9520  0.3878 -1.0613
 8496TIP3    H246904   3.918   2.238  16.171  0.1102  0.3800 -0.5461
 8497TIP3   OH246905   3.774   1.419  13.403 -0.3396  0.1677  0.3658
 8497TIP3    H146906   3.838   1.357  13.438  1.4657  0.1136 -2.6397
 8497TIP3    H246907   3.733   1.372  13.330  0.1921  2.0332 -1.2033
 8498TIP3   OH246908   1.222   5.118   2.649  0.4297 -0.3926 -0.3174
 8498TIP3    H146909   1.146   5.075   2.610  0.5883  1.0179 -2.2941
 8498TIP3    H246910   1.191   5.205   2.673  1.4850  0.3468 -1.5218
 8499TIP3   OH246911   0.402   1.863  11.064  0.4492  0.5583  0.0643
 8499TIP3    H146912   0.481   1.868  11.010  0.1891  1.1004 -0.2701
 8499TIP3    H246913   0.352   1.942  11.041 -0.2073  0.1988  0.2461
 8500TIP3   OH246914   5.948   1.796  11.615 -0.2266 -0.5754 -0.0253
 8500TIP3    H146915   5.972   1.749  11.695 -1.3802  1.0815  1.3939
 8500TIP3    H246916   5.871   1.749  11.582  0.6267 -1.6418 -0.5477
 8501TIP3   OH246917   5.934   0.782   1.865 -0.2476  0.9021  0.3809
 8501TIP3    H146918   5.932   0.847   1.795 -0.4792 -0.6833 -1.1489
 8501TIP3    H246919   5.843   0.757   1.878 -0.1701  0.9173  1.0044
 8502TIP3   OH246920   4.205   6.006  13.399  0.0775 -0.4702  0.5767
 8502TIP3    H146921   4.141   6.074  13.422  0.4948  0.2537 -0.3239
 8502TIP3    H246922   4.289   6.041  13.430  0.5224  0.1439 -1.2287
 8503TIP3   OH246923   2.187   0.150   3.277  0.6857 -0.2476 -0.0788
 8503TIP3    H146924   2.246   0.102   3.219  1.6630  2.6635 -1.7410
 8503TIP3    H246925   2.129   0.196   3.217  1.3134  2.3989  1.2125
 8504TIP3   OH246926   2.087   5.402   5.387  0.1943 -0.0819 -0.2524
 8504TIP3    H146927   2.122   5.316   5.410  0.3392  0.2663  0.9333
 8504TIP3    H246928   2.139   5.430   5.312  0.0576 -1.0737 -0.7354
 8505TIP3   OH246929   1.948   0.056  13.225  0.3300 -0.0500 -0.0726
 8505TIP3    H146930   1.987   0.122  13.168 -1.4266  0.1256 -1.1474
 8505TIP3    H246931   2.021  -0.003  13.246  1.6196  1.4099 -0.2388
 8506TIP3   OH246932   1.812   3.870  15.132 -0.5349 -0.6117 -0.3804
 8506TIP3    H146933   1.787   3.944  15.077  1.6265  1.0398  0.6879
 8506TIP3    H246934   1.845   3.804  15.071 -2.1538 -0.5908 -1.3257
 8507TIP3   OH246935   2.822   6.552  13.201 -0.2856 -0.1816 -0.1571
 8507TIP3    H146936   2.808   6.613  13.274  0.1616 -1.0098  0.6365
 8507TIP3    H246937   2.748   6.569  13.142 -1.2621 -0.2238  1.0036
 8508TIP3   OH246938   4.695   5.674   4.815 -0.6204  0.9470  0.0265
 8508TIP3    H146939   4.789   5.659   4.803 -0.1711  2.0870  1.7983
 8508TIP3    H246940   4.676   5.753   4.765 -0.5293  1.0333  0.1303
 8509TIP3   OH246941   5.052   5.699  14.726  0.2757 -0.1769  0.6527
 8509TIP3    H146942   5.033   5.606  14.735 -1.2734 -0.2055 -1.8318
 8509TIP3    H246943   5.121   5.704  14.659 -1.0970  0.4573 -0.7901
 8510TIP3   OH246944   1.671   3.186   5.395 -0.6854 -0.2925  0.8887
 8510TIP3    H146945   1.712   3.251   5.339 -3.8413  1.1080 -0.0605
 8510TIP3    H246946   1.675   3.224   5.483  3.3742 -2.0401  1.6919
 8511TIP3   OH246947   1.690   1.652  16.046  0.5488 -0.6758  0.6235
 8511TIP3    H146948   1.635   1.610  16.112 -1.7764 -0.1497 -0.8693
 8511TIP3    H246949   1.730   1.579  15.999 -1.7284 -1.2792 -0.5253
 8512TIP3   OH246950   0.512   1.122  14.167  0.0132  0.1270 -0.1561
 8512TIP3    H146951   0.589   1.098  14.116  1.0678  0.5161  1.2096
 8512TIP3    H246952   0.524   1.078  14.251 -1.4407 -0.0910 -0.0289
 8513TIP3   OH246953   6.142   2.201   3.060 -0.3262 -0.8209  0.7355
 8513TIP3    H146954   6.063   2.249   3.034  0.5223  1.0824  1.4628
 8513TIP3    H246955   6.212   2.239   3.007  0.6251 -0.0947  2.4023
 8514TIP3   OH246956   6.418   4.457  13.089 -0.5987  0.0637  0.0365
 8514TIP3    H146957   6.428   4.443  12.995 -1.2676 -1.1542  0.1247
 8514TIP3    H246958   6.348   4.522  13.096 -0.6111  0.0898 -0.3093
 8515TIP3   OH246959   4.114   1.604  15.334 -0.5194 -0.9623 -0.3784
 8515TIP3    H146960   4.048   1.608  15.404  0.3958 -0.6844  0.4912
 8515TIP3    H246961   4.090   1.675  15.275 -1.5636 -1.4744 -0.5977
 8516TIP3   OH246962   0.085   2.770   0.711  0.1986 -0.8239 -0.6131
 8516TIP3    H146963   0.147   2.697   0.700  0.1931 -0.8891 -0.2201
 8516TIP3    H246964  -0.001   2.728   0.718  0.4937 -1.1291  3.3950
 8517TIP3   OH246965   4.076   5.157  15.382  0.0946  0.3281  0.3274
 8517TIP3    H146966   4.042   5.105  15.454  1.0578  1.2439  1.4857
 8517TIP3    H246967   4.156   5.113  15.356 -1.1436 -1.0149 -1.4380
 8518TIP3   OH246968   4.653   0.799   1.196  0.2986 -0.3876 -0.5274
 8518TIP3    H146969   4.674   0.772   1.107 -0.4929 -1.3842 -0.4292
 8518TIP3    H246970   4.561   0.824   1.193  0.3354 -0.1781 -0.0484
 8519TIP3   OH246971   3.174   2.014   1.462 -0.8283 -0.1574 -0.1316
 8519TIP3    H146972   3.268   2.018   1.482 -0.3435 -1.1570 -2.0046
 8519TIP3    H246973   3.137   1.960   1.532  0.3891 -1.5566 -0.5090
 8520TIP3   OH246974   3.900   1.528  15.774  0.2989  0.2382  0.0068
 8520TIP3    H146975   3.876   1.489  15.858 -1.1023  0.0910 -0.4381
 8520TIP3    H246976   3.935   1.614  15.797 -1.4922  0.8327  0.6836
 8521TIP3   OH246977   3.698   5.593  11.720  0.0784 -0.5813 -0.5552
 8521TIP3    H146978   3.624   5.609  11.662 -0.5779 -2.7684 -0.4067
 8521TIP3    H246979   3.727   5.680  11.747 -1.5437  0.3660 -1.7155
 8522TIP3   OH246980   3.193   2.860   4.250  0.5197  0.7718 -0.3968
 8522TIP3    H146981   3.219   2.834   4.162  1.1081  3.2365 -1.0203
 8522TIP3    H246982   3.268   2.840   4.305  1.2501  1.7639 -1.0000
 8523TIP3   OH246983   6.146   1.134  14.761 -0.0265  0.0172  0.9671
 8523TIP3    H146984   6.185   1.190  14.693 -0.7888 -1.6955 -0.9960
 8523TIP3    H246985   6.113   1.195  14.826  0.6935  1.7656 -0.2120
 8524TIP3   OH246986   6.467   1.566   3.506  0.0244  0.0909 -0.3832
 8524TIP3    H146987   6.406   1.585   3.435  0.7135 -0.1949 -1.0557
 8524TIP3    H246988   6.494   1.653   3.539  0.8956  0.2611 -1.5010
 8525TIP3   OH246989   5.362   3.972  12.233 -0.0416 -0.0769  0.5461
 8525TIP3    H146990   5.445   3.932  12.206  0.3713  0.0324  1.6241
 8525TIP3    H246991   5.325   3.910  12.296 -0.9098 -0.2473 -0.1143
 8526TIP3   OH246992   2.743   1.639  16.047 -0.0102 -0.8855 -0.1944
 8526TIP3    H146993   2.666   1.599  16.086  0.6218 -0.1005  2.0537
 8526TIP3    H246994   2.719   1.731  16.035  0.5006 -0.6671  0.3831
 8527TIP3   OH246995   4.837   0.644   3.051 -0.6225 -0.3100 -0.2774
 8527TIP3    H146996   4.751   0.615   3.080 -0.8970  0.5050 -0.2308
 8527TIP3    H246997   4.821   0.733   3.017  0.5383  0.7104  1.6635
 8528TIP3   OH246998   5.291   1.767  15.976 -0.0101 -0.4874 -0.3451
 8528TIP3    H146999   5.361   1.763  16.042  0.2622 -0.4472 -0.6297
 8528TIP3    H247000   5.210   1.757  16.026  0.1784 -0.1713  0.0327
 8529TIP3   OH247001   5.124   6.362  16.144  0.6334 -0.1389  0.9052
 8529TIP3    H147002   5.142   6.309  16.066  2.0188 -0.2993  1.3020
 8529TIP3    H247003   5.092   6.446  16.110  0.5768 -0.4417  0.1987
 8530TIP3   OH247004   6.473   1.024   0.879  0.1978  0.1268 -0.1172
 8530TIP3    H147005   6.393   1.065   0.846 -0.7705 -1.0061  0.7077
 8530TIP3    H247006   6.442   0.960   0.943  1.8097  0.0040  0.5935
 8531TIP3   OH247007   4.977   4.404  15.624  0.4122 -0.2056  0.2212
 8531TIP3    H147008   5.062   4.401  15.579  0.2507  0.2792 -0.1251
 8531TIP3    H247009   5.000   4.410  15.717  0.7589 -0.1772  0.1361
 8532TIP3   OH247010   4.877   3.078  12.093  0.0901  0.4131  0.5991
 8532TIP3    H147011   4.795   3.097  12.139 -0.3068  1.2391 -0.4144
 8532TIP3    H247012   4.946   3.099  12.155 -0.4493  0.6229  1.1313
 8533TIP3   OH247013   4.512   1.797  16.072  0.4218  0.2402 -0.4437
 8533TIP3    H147014   4.588   1.818  16.019  1.5163 -0.1881  0.8986
 8533TIP3    H247015   4.439   1.838  16.026  1.0114 -1.4725 -3.1772
 8534TIP3   OH247016   0.280   4.110  14.310 -0.2718  0.9650 -0.0881
 8534TIP3    H147017   0.357   4.081  14.359 -1.5053  0.8800  1.9545
 8534TIP3    H247018   0.259   4.036  14.253 -0.1638  0.0385  1.0258
 8535TIP3   OH247019   0.775   0.155   2.262 -0.0442 -0.0829  0.2701
 8535TIP3    H147020   0.835   0.151   2.187 -0.4506  2.2159 -0.2745
 8535TIP3    H247021   0.808   0.227   2.315 -1.7577  0.6317  0.4414
 8536TIP3   OH247022   1.823   4.833   0.181  0.1769  0.1594 -0.0600
 8536TIP3    H147023   1.760   4.774   0.222  0.7303  0.3165  1.0380
 8536TIP3    H247024   1.790   4.921   0.203 -1.3001  0.3656 -2.6468
 8537TIP3   OH247025   3.563   3.525   2.986 -0.3325  0.6892 -0.0602
 8537TIP3    H147026   3.560   3.492   2.897  1.4818  1.4131 -0.4217
 8537TIP3    H247027   3.580   3.619   2.977  1.5802  0.4920  1.0463
 8538TIP3   OH247028   4.040   0.508  11.863 -0.5221  0.1316 -0.0188
 8538TIP3    H147029   4.003   0.425  11.834  0.0709 -0.7464  1.6014
 8538TIP3    H247030   4.031   0.566  11.788 -4.2178 -0.3117 -0.1369
 8539TIP3   OH247031   3.114   0.763   1.199  0.3539  0.5213  0.2452
 8539TIP3    H147032   3.194   0.815   1.193  1.0282 -0.4853  0.2932
 8539TIP3    H247033   3.083   0.756   1.108  1.5152 -0.8768 -0.0760
 8540TIP3   OH247034   5.412   4.689   3.751 -0.1294 -0.2192  0.0055
 8540TIP3    H147035   5.338   4.720   3.699  0.5472  0.7754 -0.3712
 8540TIP3    H247036   5.372   4.630   3.815 -1.4897  1.4843  0.8163
 8541TIP3   OH247037   2.291   1.685   2.340  0.1938  0.3439 -0.0798
 8541TIP3    H147038   2.211   1.712   2.295  1.8826 -0.7335 -4.1988
 8541TIP3    H247039   2.356   1.750   2.313  1.3209 -0.3667  0.8689
 8542TIP3   OH247040   6.355   3.736   3.548  0.0116 -0.4059  0.1348
 8542TIP3    H147041   6.330   3.815   3.596 -1.0758  0.7643 -2.1898
 8542TIP3    H247042   6.420   3.766   3.484 -2.4070 -0.6637 -2.6720
 8543TIP3   OH247043   1.558   3.574  11.827  0.1010 -0.6500 -0.3547
 8543TIP3    H147044   1.560   3.543  11.737 -2.8409 -1.6820 -0.1803
 8543TIP3    H247045   1.634   3.533  11.868  1.4296 -0.2506 -2.3039
 8544TIP3   OH247046   5.213   5.700   4.684  0.1926 -0.0218 -0.6934
 8544TIP3    H147047   5.305   5.728   4.691 -0.2537  1.7910 -1.4883
 8544TIP3    H247048   5.204   5.632   4.750  1.0672  2.6819  2.4689
 8545TIP3   OH247049   5.758   2.341   4.701 -0.0576  0.7766  0.0199
 8545TIP3    H147050   5.821   2.360   4.771  1.0231  0.2700 -0.7842
 8545TIP3    H247051   5.674   2.333   4.746  0.3827  1.8107  1.0765
 8546TIP3   OH247052   5.984   5.484  10.243  0.2148 -0.1949  0.7449
 8546TIP3    H147053   5.956   5.530  10.322 -0.9638 -0.3693  0.4497
 8546TIP3    H247054   6.013   5.398  10.274  2.5532  0.7384  1.3170
 8547TIP3   OH247055   2.716   4.971  17.143  0.1497  0.3369  0.8985
 8547TIP3    H147056   2.768   4.977  17.222  2.4443 -2.9501 -0.1775
 8547TIP3    H247057   2.638   4.923  17.169  0.9423 -0.8254  1.1828
 8548TIP3   OH247058   6.365   2.643  15.751  0.2673  0.1883  0.0685
 8548TIP3    H147059   6.380   2.726  15.705  0.7117  0.6405  1.0092
 8548TIP3    H247060   6.284   2.609  15.712  1.3325 -0.1241 -2.0098
 8549TIP3   OH247061   6.750   6.503   6.052 -0.3377 -0.6888  0.4248
 8549TIP3    H147062   6.680   6.560   6.086 -0.6536  0.3784 -1.8145
 8549TIP3    H247063   6.797   6.473   6.130 -2.6094 -0.5669  1.9378
 8550TIP3   OH247064   0.861   5.306  15.638 -0.0908  0.2357 -0.2354
 8550TIP3    H147065   0.774   5.270  15.652 -1.3944  3.0063 -0.5863
 8550TIP3    H247066   0.870   5.311  15.542 -0.1768  1.2767 -0.2004
 8551TIP3   OH247067   4.354   5.937  11.761 -0.0956 -0.0422 -0.1546
 8551TIP3    H147068   4.327   5.902  11.846 -2.2866  1.3456 -0.2010
 8551TIP3    H247069   4.343   5.864  11.700  0.2984 -0.6964  0.5432
 8552TIP3   OH247070   5.902   0.330  12.663 -0.1919  0.0169 -0.6586
 8552TIP3    H147071   5.928   0.378  12.584 -1.9771 -0.0410 -1.3349
 8552TIP3    H247072   5.952   0.371  12.734 -0.7046  2.0511 -1.4099
 8553TIP3   OH247073   4.020   5.156   3.423  0.0411  0.6976  0.1800
 8553TIP3    H147074   3.932   5.166   3.459 -0.1775 -0.2232 -0.0679
 8553TIP3    H247075   4.036   5.237   3.374 -0.8818  0.6434 -0.2269
 8554TIP3   OH247076   6.492   2.125   0.465  0.6219 -0.0866 -0.1225
 8554TIP3    H147077   6.431   2.165   0.527  0.2101  0.0164 -0.5861
 8554TIP3    H247078   6.536   2.057   0.515  0.9888  0.6223  0.5477
 8555TIP3   OH247079   5.457   0.971  17.272 -0.0221  0.6015  0.5145
 8555TIP3    H147080   5.397   0.908  17.231  2.1340 -1.0955 -0.2899
 8555TIP3    H247081   5.462   0.944  17.363 -1.7895  1.8889  1.0359
 8556TIP3   OH247082   0.625   2.864  16.351 -0.1417  0.2638  0.2969
 8556TIP3    H147083   0.574   2.799  16.398  1.4121 -0.7396  0.6502
 8556TIP3    H247084   0.615   2.840  16.259 -0.7859  0.4574  0.3073
 8557TIP3   OH247085   3.749   3.881   5.623  0.4876  0.0220  0.2332
 8557TIP3    H147086   3.822   3.864   5.683  0.1519 -0.9907  0.3730
 8557TIP3    H247087   3.728   3.796   5.586 -0.9144  0.2188  0.5237
 8558TIP3   OH247088   1.713   3.416  13.904  0.0060 -0.3368  0.2988
 8558TIP3    H147089   1.661   3.454  13.833 -0.7974 -0.9452  0.5479
 8558TIP3    H247090   1.757   3.491  13.944  0.1081  0.0687 -0.5533
 8559TIP3   OH247091   6.231   6.365  17.107  0.1544  0.1149 -0.2056
 8559TIP3    H147092   6.214   6.368  17.013 -1.1408  0.2833  0.0155
 8559TIP3    H247093   6.146   6.345  17.146  0.0792  2.6720  1.1104
 8560TIP3   OH247094   3.847   5.966   5.418  0.1409  0.6425  0.2524
 8560TIP3    H147095   3.841   6.057   5.449 -0.4751 -0.2811  3.2310
 8560TIP3    H247096   3.884   5.919   5.492 -0.0552 -1.6408 -1.0270
 8561TIP3   OH247097   2.745   1.859  11.347  0.5043  0.4194 -0.2751
 8561TIP3    H147098   2.706   1.777  11.375  0.0613  0.8980  0.5571
 8561TIP3    H247099   2.730   1.862  11.252  0.4596 -0.4153 -0.2964
 8562TIP3   OH247100   4.357   2.489  15.940 -0.1847 -0.7181  0.0878
 8562TIP3    H147101   4.388   2.398  15.944  1.7123 -0.2673 -2.1316
 8562TIP3    H247102   4.429   2.540  15.978 -0.3010  0.0012 -0.6300
 8563TIP3   OH247103   5.360   4.062   0.135  0.8377  0.6187 -0.1211
 8563TIP3    H147104   5.277   4.102   0.112 -0.0242 -1.5592 -1.0616
 8563TIP3    H247105   5.425   4.110   0.083  0.1542  2.0733  0.3226
 8564TIP3   OH247106   3.003   0.534   1.028 -0.2350  0.8761  0.1996
 8564TIP3    H147107   2.914   0.537   1.063 -0.1683  1.4574  0.3251
 8564TIP3    H247108   3.000   0.590   0.951 -0.4056 -0.4620 -0.8126
 8565TIP3   OH247109   5.495   4.002   3.051 -0.5658  0.3918 -0.4920
 8565TIP3    H147110   5.475   4.075   3.110 -1.8857 -0.3367  0.0089
 8565TIP3    H247111   5.426   3.938   3.069  1.1967 -1.4827 -0.1028
 8566TIP3   OH247112   1.248   0.985   2.308  0.1292  0.0481  0.0563
 8566TIP3    H147113   1.261   1.028   2.223 -1.4026  0.5689  0.0509
 8566TIP3    H247114   1.244   0.892   2.287 -1.9240  0.2609 -0.7269
 8567TIP3   OH247115   4.852   4.933  14.255 -0.8793  0.0198 -0.0990
 8567TIP3    H147116   4.906   4.970  14.185 -0.4093  1.5409  1.0031
 8567TIP3    H247117   4.859   4.838  14.243  0.5833  0.2121 -1.0760
 8568TIP3   OH247118   6.456   5.465  15.846 -0.3482  0.0616 -0.4084
 8568TIP3    H147119   6.403   5.407  15.791 -1.7464 -0.0259  0.9625
 8568TIP3    H247120   6.529   5.410  15.875 -0.0910 -0.1508 -1.4137
 8569TIP3   OH247121   5.081   5.917  12.531 -0.0900  0.0941 -0.1872
 8569TIP3    H147122   5.139   5.885  12.462 -1.5911 -0.2144 -1.3582
 8569TIP3    H247123   5.041   5.996  12.495 -0.5448  0.1963  0.5185
 8570TIP3   OH247124   0.066   4.684   3.837 -0.3988 -0.6029  0.4568
 8570TIP3    H147125   0.035   4.768   3.872  0.6140  0.2203 -0.5144
 8570TIP3    H247126   0.106   4.640   3.912 -1.3002 -0.4065  1.0667
 8571TIP3   OH247127   1.424   4.054  15.618  0.5590 -0.2200  0.0788
 8571TIP3    H147128   1.437   4.042  15.524 -2.7667 -0.1509 -0.5083
 8571TIP3    H247129   1.428   3.966  15.654  1.2542 -0.3069 -0.1891
 8572TIP3   OH247130   6.194   6.157   3.572 -0.6902 -0.3912 -0.6368
 8572TIP3    H147131   6.217   6.091   3.507 -1.2749  0.0616 -1.3253
 8572TIP3    H247132   6.124   6.118   3.624  0.0369 -0.8983 -0.0212
 8573TIP3   OH247133   3.550   4.453   0.151 -0.3373 -0.4410 -0.1777
 8573TIP3    H147134   3.632   4.496   0.177 -1.1092 -0.2983  2.2919
 8573TIP3    H247135   3.555   4.366   0.190 -0.5202 -1.1698 -1.7281
 8574TIP3   OH247136   4.704   2.117  15.360 -0.0122 -0.3905 -0.0596
 8574TIP3    H147137   4.795   2.142  15.347 -0.4438  0.6353 -1.4100
 8574TIP3    H247138   4.667   2.188  15.413 -0.4673  0.2289 -1.1662
 8575TIP3   OH247139   4.789   0.333  13.993 -0.0224 -0.2300 -0.2236
 8575TIP3    H147140   4.808   0.271  14.063  1.2850 -0.9676 -1.1928
 8575TIP3    H247141   4.873   0.350  13.952 -0.3241  2.3410  0.0954
 8576TIP3   OH247142   3.540   5.261   2.885  0.2466 -0.0433 -0.2943
 8576TIP3    H147143   3.596   5.204   2.832  2.2554  2.3705 -0.9264
 8576TIP3    H247144   3.559   5.349   2.854 -0.2604  1.2959  2.8360
 8577TIP3   OH247145   2.947   1.903  16.095  0.4233  0.2029 -0.0102
 8577TIP3    H147146   2.852   1.898  16.097  0.4671 -1.3379 -0.6979
 8577TIP3    H247147   2.971   1.883  16.005  1.4472 -1.2050  0.5286
 8578TIP3   OH247148   0.433   4.213  12.299  0.4104 -0.2414 -0.6196
 8578TIP3    H147149   0.368   4.248  12.238  0.8729 -0.2282 -1.1151
 8578TIP3    H247150   0.453   4.126  12.265  0.3486 -0.4060 -0.2328
 8579TIP3   OH247151   3.870   6.321  17.223 -0.7433  0.2884  0.2456
 8579TIP3    H147152   3.931   6.364  17.284  0.2006 -0.9754  0.2318
 8579TIP3    H247153   3.838   6.245  17.271 -2.6387  1.1123  0.3785
 8580TIP3   OH247154   5.464   3.033  15.577 -0.2668  0.0542 -0.4979
 8580TIP3    H147155   5.538   3.094  15.569 -0.8557  0.6550 -1.7230
 8580TIP3    H247156   5.485   2.963  15.515  0.4898 -1.1297  1.0305
 8581TIP3   OH247157   5.970   0.939  14.695  0.5822 -0.3661 -0.1574
 8581TIP3    H147158   6.021   1.006  14.742 -0.1682  0.2046 -0.1363
 8581TIP3    H247159   6.035   0.895  14.639  1.3109 -0.4286  0.7040
 8582TIP3   OH247160   6.614   2.428  11.899 -0.3335  0.1616  0.8227
 8582TIP3    H147161   6.593   2.444  11.807 -0.5574  0.0520  0.8547
 8582TIP3    H247162   6.539   2.464  11.947 -0.9688 -1.2011  0.8851
 8583TIP3   OH247163   3.523   1.776  12.641  0.0063 -0.4473  0.0860
 8583TIP3    H147164   3.457   1.716  12.677  0.5023 -1.9119 -1.3413
 8583TIP3    H247165   3.529   1.752  12.549  0.7488  1.3646 -0.3689
 8584TIP3   OH247166   0.243   4.807  11.788 -0.5302 -0.4623 -0.6710
 8584TIP3    H147167   0.275   4.896  11.804  0.4834 -0.7381 -1.1079
 8584TIP3    H247168   0.321   4.757  11.764 -1.1035 -1.4499 -0.5398
 8585TIP3   OH247169   5.472   1.543   2.076  0.1731 -0.6700 -0.9793
 8585TIP3    H147170   5.556   1.570   2.114  0.6673 -1.3820 -1.5185
 8585TIP3    H247171   5.460   1.453   2.107 -0.2485 -0.6706 -1.1386
 8586TIP3   OH247172   3.985   4.835   1.952  0.3067 -0.0070 -0.7918
 8586TIP3    H147173   3.941   4.905   1.903 -0.8317 -0.3871 -0.3492
 8586TIP3    H247174   3.950   4.842   2.041  1.4206 -0.1084 -0.3210
 8587TIP3   OH247175   0.092   3.815   3.594  0.3057  0.4357 -0.2819
 8587TIP3    H147176   0.015   3.801   3.649 -0.8326  3.2167 -1.0044
 8587TIP3    H247177   0.094   3.738   3.537 -2.7000  0.7763 -1.0525
 8588TIP3   OH247178   3.739   5.303   2.525  0.0627  0.1664  0.1930
 8588TIP3    H147179   3.686   5.366   2.573  1.7375  0.2362  2.0991
 8588TIP3    H247180   3.679   5.263   2.463 -1.1579  3.4183 -0.9427
 8589TIP3   OH247181   6.284   0.343  13.598  0.4471 -0.3121 -0.5550
 8589TIP3    H147182   6.344   0.392  13.653  1.3311 -0.0215 -1.7231
 8589TIP3    H247183   6.308   0.251  13.611 -0.1674 -0.3449  0.4451
 8590TIP3   OH247184   4.939   5.888  13.338  0.1302 -0.6600 -0.3439
 8590TIP3    H147185   4.959   5.947  13.411 -0.1022  0.0799 -0.8750
 8590TIP3    H247186   4.999   5.815  13.350  0.3628 -0.3638  0.3708
 8591TIP3   OH247187   2.373   0.676  13.064  0.0518  0.1006 -0.2652
 8591TIP3    H147188   2.332   0.707  12.983 -0.1902  0.2527 -0.0861
 8591TIP3    H247189   2.322   0.717  13.134 -0.1006 -0.4955 -0.0274
 8592TIP3   OH247190   3.657   3.074   1.766  0.2578 -0.5733  0.0989
 8592TIP3    H147191   3.690   3.091   1.854  1.2653 -2.7309  0.1968
 8592TIP3    H247192   3.586   3.012   1.778 -0.2193 -0.1739 -0.5683
 8593TIP3   OH247193   3.593   4.794  16.546 -0.5432 -0.6080  0.3663
 8593TIP3    H147194   3.619   4.817  16.635  1.6100  1.0244 -0.5929
 8593TIP3    H247195   3.661   4.733  16.516 -1.1117 -0.9472 -0.2703
 8594TIP3   OH247196   1.896   0.172  14.939 -0.0941  0.6606 -0.1649
 8594TIP3    H147197   1.895   0.121  15.019 -0.8953  1.7429  0.5425
 8594TIP3    H247198   1.879   0.262  14.967  1.9400  1.4676 -1.2748
 8595TIP3   OH247199   0.894   2.766  12.453 -0.3604  0.0150 -0.1041
 8595TIP3    H147200   0.982   2.799  12.473  0.8054 -1.9594 -1.6402
 8595TIP3    H247201   0.869   2.813  12.373 -0.2022 -0.2414 -0.3065
 8596TIP3   OH247202   2.464   1.816   4.983 -0.3475 -0.4907 -0.2678
 8596TIP3    H147203   2.369   1.807   4.984 -0.2983 -1.3069 -1.0926
 8596TIP3    H247204   2.496   1.727   4.997  0.3387  0.0854  2.2353
 8597TIP3   OH247205   5.098   1.319   5.960  0.2085  0.2240 -0.3050
 8597TIP3    H147206   5.084   1.308   6.054 -0.1829 -1.4692 -0.5316
 8597TIP3    H247207   5.021   1.279   5.919  0.5781  0.5394 -1.3509
 8598TIP3   OH247208   0.880   0.126  16.029 -0.0822  0.5357  0.3296
 8598TIP3    H147209   0.926   0.209  16.039 -1.1016  1.1464  0.1588
 8598TIP3    H247210   0.815   0.142  15.961  1.1375 -1.0572 -1.3160
 8599TIP3   OH247211   0.968   6.071   5.515  0.1089  0.0527  0.2772
 8599TIP3    H147212   0.937   6.161   5.526  0.9938  0.6127 -1.4777
 8599TIP3    H247213   1.062   6.079   5.502  0.1429 -1.0652 -0.3053
 8600TIP3   OH247214   0.001   3.868   4.472 -0.3599  0.2414 -0.0897
 8600TIP3    H147215  -0.061   3.836   4.536 -0.7137  0.6081 -0.2457
 8600TIP3    H247216  -0.048   3.872   4.390 -0.0596  0.2756 -0.2722
 8601TIP3   OH247217   2.426   4.922   1.559  0.1418 -0.0393  0.3938
 8601TIP3    H147218   2.458   4.857   1.496 -3.2359 -0.8988 -0.6863
 8601TIP3    H247219   2.349   4.881   1.598 -1.2660  2.7223  0.7658
 8602TIP3   OH247220   5.095   0.897   3.524 -0.4390 -0.1885  0.2255
 8602TIP3    H147221   5.177   0.936   3.492 -1.1325  0.3104 -1.0184
 8602TIP3    H247222   5.077   0.826   3.464 -2.6235  1.7921 -1.6611
 8603TIP3   OH247223   0.981   6.462   0.940 -0.1184 -0.8777  0.2571
 8603TIP3    H147224   1.038   6.385   0.938  0.1906 -0.6432 -0.8553
 8603TIP3    H247225   1.023   6.524   0.880 -0.2899  0.2129  1.2260
 8604TIP3   OH247226   6.042   1.304   5.136  0.2297  0.3532  0.1815
 8604TIP3    H147227   6.066   1.248   5.062 -0.8439 -0.3183  0.3266
 8604TIP3    H247228   5.993   1.376   5.097  1.0128  0.8383  0.0744
 8605TIP3   OH247229   0.321   1.219  14.718  0.4049  0.9297  0.1796
 8605TIP3    H147230   0.354   1.210  14.807 -1.3115  1.8614  0.9671
 8605TIP3    H247231   0.397   1.247  14.667  1.3464  0.7055  1.4175
 8606TIP3   OH247232   5.043   0.228  14.403  0.3236 -0.3644 -0.4082
 8606TIP3    H147233   5.122   0.241  14.350  0.1398 -1.2522 -0.9254
 8606TIP3    H247234   4.976   0.281  14.360  0.5498  0.1002 -0.1854
 8607TIP3   OH247235   4.902   2.946   0.514 -0.1937  0.2469 -0.0294
 8607TIP3    H147236   4.863   2.961   0.600  0.9399 -0.0935  0.5626
 8607TIP3    H247237   4.828   2.925   0.457 -1.1512  2.1023  0.4654
 8608TIP3   OH247238   0.255   5.439  10.895 -0.0316  0.2541  0.3722
 8608TIP3    H147239   0.197   5.463  10.822  1.5065  0.6922 -0.7695
 8608TIP3    H247240   0.341   5.430  10.854  0.6297 -0.8836  1.9177
 8609TIP3   OH247241   0.861   4.381   3.182 -0.4169  0.2396  0.2623
 8609TIP3    H147242   0.882   4.290   3.164 -1.3891  0.3992 -2.0706
 8609TIP3    H247243   0.828   4.381   3.272 -0.0535 -1.6227  0.4366
 8610TIP3   OH247244   2.191   2.481   1.155  0.3515  0.3081 -0.2061
 8610TIP3    H147245   2.162   2.390   1.150  0.2143  0.3790 -0.6964
 8610TIP3    H247246   2.162   2.521   1.073  2.9933  0.0517 -1.3657
 8611TIP3   OH247247   2.978   0.181   0.231  0.5060  0.5699  0.4657
 8611TIP3    H147248   2.931   0.241   0.289 -0.0801  0.9269 -0.3629
 8611TIP3    H247249   2.924   0.101   0.231  0.6111  0.4978  0.5575
 8612TIP3   OH247250   1.172   3.959  14.057  0.8002  0.0857  0.9003
 8612TIP3    H147251   1.183   4.052  14.078 -1.2175  1.1414 -2.0546
 8612TIP3    H247252   1.084   3.938  14.089 -0.1038  0.2068 -1.3627
 8613TIP3   OH247253   5.724   0.908   1.408 -0.9685  0.3794  0.0364
 8613TIP3    H147254   5.776   0.847   1.461 -0.5250 -0.2519 -1.1025
 8613TIP3    H247255   5.704   0.980   1.468  0.4774  0.2239  0.7540
 8614TIP3   OH247256   1.556   1.983  11.363  0.0409 -0.8984 -0.1376
 8614TIP3    H147257   1.500   1.968  11.439  0.5776 -0.4590  0.3544
 8614TIP3    H247258   1.628   1.921  11.373 -0.5529 -1.7627 -0.9932
 8615TIP3   OH247259   2.351   5.548  12.549 -0.2848 -0.4258  0.5360
 8615TIP3    H147260   2.442   5.577  12.556 -0.5983  0.9941 -0.7618
 8615TIP3    H247261   2.350   5.493  12.471 -0.4636 -0.8135  0.8087
 8616TIP3   OH247262   0.540   0.541  13.816 -0.3706 -0.3780  0.1311
 8616TIP3    H147263   0.509   0.599  13.886  0.0501 -0.3397  0.2912
 8616TIP3    H247264   0.610   0.490  13.857  0.4612  0.2373 -0.4830
 8617TIP3   OH247265   5.510   5.752  15.887  0.2285 -0.2485  0.5534
 8617TIP3    H147266   5.542   5.665  15.908 -0.5665 -0.7658 -0.2965
 8617TIP3    H247267   5.415   5.746  15.899 -0.0145  0.0420 -0.9626
 8618TIP3   OH247268   3.314   1.593  13.119 -0.0227  0.2437 -0.4427
 8618TIP3    H147269   3.379   1.609  13.051 -0.8145  0.4590 -1.1557
 8618TIP3    H247270   3.267   1.676  13.127  0.1479  0.2659  0.4758
 8619TIP3   OH247271   2.649   4.070  16.614 -0.4421  0.4309 -0.0694
 8619TIP3    H147272   2.677   4.013  16.542  2.6515  2.3454 -0.5681
 8619TIP3    H247273   2.695   4.035  16.691  0.4483  1.4467 -0.1218
 8620TIP3   OH247274   0.073   2.581   5.642  0.2653 -0.6339 -0.2100
 8620TIP3    H147275   0.025   2.662   5.661  2.0992  0.4790 -0.1120
 8620TIP3    H247276   0.067   2.530   5.723 -0.1646 -0.2163  0.0263
 8621TIP3   OH247277   1.220   0.576  16.029  0.6825 -0.1750  0.3037
 8621TIP3    H147278   1.136   0.614  16.056  1.3578 -0.2481  2.7066
 8621TIP3    H247279   1.233   0.607  15.939 -0.3287  2.5618  1.0242
 8622TIP3   OH247280   6.086   5.729   0.697  0.0900 -0.0409  0.3679
 8622TIP3    H147281   6.099   5.795   0.629  1.8310  0.3410  1.0073
 8622TIP3    H247282   6.169   5.728   0.745 -1.2809  0.2463  2.9520
 8623TIP3   OH247283   0.194   2.933   2.331 -0.1363 -0.2434 -0.2695
 8623TIP3    H147284   0.207   2.862   2.393 -0.5465 -0.0644  0.0237
 8623TIP3    H247285   0.147   3.000   2.380 -1.1195 -0.4040 -0.9692
 8624TIP3   OH247286   2.814   2.397  15.209  0.0176 -0.7595  0.1691
 8624TIP3    H147287   2.847   2.474  15.162  0.5385 -0.8605  0.3722
 8624TIP3    H247288   2.748   2.432  15.269  0.3568 -0.4525  0.3633
 8625TIP3   OH247289   1.071   5.760   1.921  0.2728 -0.1869  0.0889
 8625TIP3    H147290   1.090   5.805   1.839 -0.2090  0.2147  0.1913
 8625TIP3    H247291   1.053   5.830   1.984 -1.7701 -0.4863 -0.0668
 8626TIP3   OH247292   2.018   1.035  16.690  0.1164  0.5203  0.2542
 8626TIP3    H147293   1.926   1.022  16.712  0.8244 -1.0382  2.6407
 8626TIP3    H247294   2.050   0.947  16.668  1.2497  0.8928  0.3586
 8627TIP3   OH247295   1.310   4.907  15.760  0.3427  0.0262 -0.1899
 8627TIP3    H147296   1.396   4.865  15.756  1.8377  2.8688 -0.0785
 8627TIP3    H247297   1.276   4.900  15.671  2.0658  1.4631 -1.0105
 8628TIP3   OH247298   5.201   5.048   3.333 -0.1881 -0.1119 -0.5302
 8628TIP3    H147299   5.146   5.117   3.369 -0.0080 -0.9111  1.4091
 8628TIP3    H247300   5.256   5.092   3.267 -1.8010  1.0552 -1.1594
 8629TIP3   OH247301   6.520   1.797   0.163 -0.0938  0.9099  0.2036
 8629TIP3    H147302   6.496   1.807   0.255  0.2691  2.1349  0.1911
 8629TIP3    H247303   6.616   1.795   0.164 -0.0984  0.5785 -0.1167
 8630TIP3   OH247304   4.495   1.837  15.239 -0.1857 -0.1709  0.2672
 8630TIP3    H147305   4.557   1.784  15.190 -0.7410  0.1757 -0.8459
 8630TIP3    H247306   4.545   1.870  15.314  0.7087 -0.6247 -0.1200
 8631TIP3   OH247307   4.579   1.045  16.078  0.1981 -0.7328  0.2403
 8631TIP3    H147308   4.564   1.066  16.171  1.0415 -1.7207  0.6151
 8631TIP3    H247309   4.544   1.121  16.031  1.8309  0.9002  1.4725
 8632TIP3   OH247310   1.906   4.812  14.978 -0.0073 -0.7541  0.4084
 8632TIP3    H147311   1.879   4.829  14.888  2.0068  0.2627 -0.0576
 8632TIP3    H247312   1.823   4.807  15.027 -1.1974 -2.1557 -1.5746
 8633TIP3   OH247313   1.929   0.063  11.347 -0.2910  0.5691 -0.4142
 8633TIP3    H147314   1.857   0.122  11.325  0.8815  2.1366 -0.2114
 8633TIP3    H247315   1.970   0.103  11.423 -0.7312 -1.6749  1.0811
 8634TIP3   OH247316   3.911   6.284  14.587  0.6730  0.6586  0.8015
 8634TIP3    H147317   3.919   6.289  14.491 -4.2497 -2.8892 -0.1879
 8634TIP3    H247318   3.973   6.215  14.612  0.5977  0.2240 -0.1645
 8635TIP3   OH247319   0.244   2.245  16.617 -0.8428  0.5142  0.0129
 8635TIP3    H147320   0.175   2.306  16.643 -0.6822  0.4803  0.5327
 8635TIP3    H247321   0.230   2.231  16.524 -2.7975 -1.0736  0.4748
 8636TIP3   OH247322   5.490   6.120  13.616 -0.1984  0.2773  0.3514
 8636TIP3    H147323   5.474   6.042  13.563 -0.4811 -0.6516  1.7636
 8636TIP3    H247324   5.579   6.108  13.651 -0.5138  0.2268  1.1527
 8637TIP3   OH247325   2.453   5.999   3.652 -0.4508 -0.2745  0.3383
 8637TIP3    H147326   2.434   5.932   3.718  0.5872  0.1419  1.0953
 8637TIP3    H247327   2.369   6.040   3.635 -0.5923  0.3414  2.2506
 8638TIP3   OH247328   5.784   5.798  10.962  0.2964  0.5173 -0.1561
 8638TIP3    H147329   5.737   5.834  10.886  1.5637  0.0274 -1.2163
 8638TIP3    H247330   5.801   5.707  10.938  1.5496  0.6154  0.2961
 8639TIP3   OH247331   0.947   2.281   5.411  0.1101  0.5197 -0.2737
 8639TIP3    H147332   0.903   2.353   5.366 -0.2698  1.5340  1.6007
 8639TIP3    H247333   0.899   2.271   5.493  2.0040  0.2164  0.8790
 8640TIP3   OH247334   6.212   2.061   1.450 -0.4865 -0.4000  0.3955
 8640TIP3    H147335   6.253   2.141   1.417  0.6228 -1.2865 -0.4326
 8640TIP3    H247336   6.196   2.079   1.543  2.1602 -0.1307  0.8813
 8641TIP3   OH247337   2.345   4.923   0.403  0.1210  0.6978  0.4959
 8641TIP3    H147338   2.327   5.010   0.369 -0.9541  0.6475  0.8963
 8641TIP3    H247339   2.381   4.938   0.490 -0.3163  0.7401  0.6713
 8642TIP3   OH247340   2.740   2.170  14.250 -0.0865  0.1277  0.3570
 8642TIP3    H147341   2.819   2.211  14.215 -0.8865  0.6798 -0.8470
 8642TIP3    H247342   2.765   2.079  14.265  0.9242  0.4142  0.5093
 8643TIP3   OH247343   4.598   2.246  12.549 -0.4489 -0.3692  0.3064
 8643TIP3    H147344   4.520   2.293  12.580  1.1478  1.7114  1.4408
 8643TIP3    H247345   4.564   2.161  12.519 -3.0556  0.2269  1.2444
 8644TIP3   OH247346   1.037   1.109  16.315  0.3082 -0.3053  0.3973
 8644TIP3    H147347   1.111   1.055  16.290  1.3657  1.0761  0.4685
 8644TIP3    H247348   1.063   1.199  16.295 -1.4644  0.2014  0.1196
 8645TIP3   OH247349   1.417   3.054   4.676  0.1167  0.1045 -0.3252
 8645TIP3    H147350   1.487   3.045   4.612 -0.6460  2.5839 -1.6527
 8645TIP3    H247351   1.377   3.139   4.656 -2.3368 -0.5553  1.2938
 8646TIP3   OH247352   2.270   6.522   1.416  0.0808  0.1464 -0.3633
 8646TIP3    H147353   2.289   6.470   1.338 -1.5737 -0.2913 -0.5096
 8646TIP3    H247354   2.200   6.475   1.461  1.1459  0.2657  1.5390
 8647TIP3   OH247355   1.322   1.360  11.620 -0.3545  0.2884 -0.4570
 8647TIP3    H147356   1.256   1.311  11.668 -0.5149  0.1188 -0.8466
 8647TIP3    H247357   1.273   1.404  11.551 -0.0270 -0.0416 -0.9053
 8648TIP3   OH247358   2.318   6.522   3.108  0.3392 -0.2098  0.0946
 8648TIP3    H147359   2.363   6.606   3.096  0.6959 -0.4076  0.0276
 8648TIP3    H247360   2.348   6.469   3.034 -0.7984 -0.0119 -0.5206
 8649TIP3   OH247361   6.674   2.449  12.742  0.6054 -0.1535 -0.8388
 8649TIP3    H147362   6.676   2.451  12.838 -1.7646  1.5476 -0.7494
 8649TIP3    H247363   6.643   2.535  12.716 -0.1159 -1.0185 -3.0998
 8650TIP3   OH247364   0.803   2.896  12.247 -0.3190  0.1552 -0.4176
 8650TIP3    H147365   0.835   2.851  12.168 -0.8686 -3.1731  1.0581
 8650TIP3    H247366   0.709   2.880  12.247 -0.2103 -0.7102  1.2962
 8651TIP3   OH247367   3.283   1.161  14.077  0.3738 -0.1876 -0.3023
 8651TIP3    H147368   3.316   1.071  14.073  0.2289 -0.2886  0.5206
 8651TIP3    H247369   3.361   1.215  14.064  0.8981 -0.4281  1.5737
 8652TIP3   OH247370   5.227   6.697   0.241 -0.1347 -0.5825  0.3288
 8652TIP3    H147371   5.144   6.675   0.200 -0.1979 -0.0981  0.1967
 8652TIP3    H247372   5.232   6.792   0.236  1.0168 -0.6662 -0.8517
 8653TIP3   OH247373   3.125   6.529   5.104  0.1986  0.7159  0.0853
 8653TIP3    H147374   3.048   6.539   5.161 -1.7844 -0.5943 -2.1989
 8653TIP3    H247375   3.159   6.442   5.126 -0.2318  0.4431 -0.3013
 8654TIP3   OH247376   4.916   5.907  16.635  0.5226 -0.3278 -0.2200
 8654TIP3    H147377   4.864   5.843  16.586  1.3907 -0.6355 -0.7655
 8654TIP3    H247378   4.904   5.989  16.588 -1.0049  0.0561  0.7771
 8655TIP3   OH247379   0.361   1.832   0.715  0.1941  0.7534 -0.1796
 8655TIP3    H147380   0.344   1.925   0.701 -0.1180  0.9788  1.4733
 8655TIP3    H247381   0.457   1.827   0.724  0.3120  0.7351 -1.3436
 8656TIP3   OH247382   5.331   3.753  14.402 -0.2159 -0.7658 -0.5723
 8656TIP3    H147383   5.265   3.818  14.376  0.4603 -0.7510 -2.3989
 8656TIP3    H247384   5.360   3.781  14.488 -0.8432  0.6478 -0.7925
 8657TIP3   OH247385   2.336   2.333  15.387 -0.1148  0.3921 -0.8174
 8657TIP3    H147386   2.295   2.250  15.364 -3.1191  1.2838  0.7856
 8657TIP3    H247387   2.293   2.398  15.332  1.2405  1.1061 -1.0919
 8658TIP3   OH247388   2.758   3.724  13.745 -0.4106  0.4760  0.0151
 8658TIP3    H147389   2.769   3.772  13.828 -0.1277  2.5807 -1.1819
 8658TIP3    H247390   2.740   3.792  13.680 -2.2232 -1.2779 -1.4045
 8659TIP3   OH247391   5.440   4.874  14.436  0.5428  0.2565 -0.0633
 8659TIP3    H147392   5.525   4.851  14.400 -0.1247  0.1037 -1.5879
 8659TIP3    H247393   5.398   4.790  14.456 -0.7040  0.1132 -2.8451
 8660TIP3   OH247394   0.475   4.485  11.955  0.0876  0.2887  0.3844
 8660TIP3    H147395   0.531   4.425  11.906 -1.8195 -0.0509 -1.5139
 8660TIP3    H247396   0.388   4.474  11.917 -0.3270  4.6249 -0.5175
 8661TIP3   OH247397   4.348   2.031  16.175 -0.2920 -0.1548 -0.0044
 8661TIP3    H147398   4.322   1.943  16.204  0.1085 -0.3411 -0.2058
 8661TIP3    H247399   4.349   2.083  16.255  1.9035 -0.9249  0.5306
 8662TIP3   OH247400   4.393   2.569  14.733  0.3097 -0.2304  0.0395
 8662TIP3    H147401   4.465   2.613  14.687  2.4421 -0.3802  2.9537
 8662TIP3    H247402   4.410   2.476  14.720  0.7662 -0.2676  0.8028
 8663TIP3   OH247403   0.161   0.488  16.740 -0.4160  0.4253 -0.2158
 8663TIP3    H147404   0.110   0.493  16.820  0.6611 -0.0839  0.5290
 8663TIP3    H247405   0.168   0.395  16.721  1.1059  0.4024  0.3057
 8664TIP3   OH247406   6.705   6.698  15.846 -0.3416 -0.1958  0.0378
 8664TIP3    H147407   6.768   6.630  15.869 -0.4466  0.1393  1.3867
 8664TIP3    H247408   6.653   6.711  15.925 -1.2798  0.4244 -0.6602
 8665TIP3   OH247409   1.192   2.496  16.542 -0.2947 -0.5310  0.3063
 8665TIP3    H147410   1.172   2.473  16.632 -1.4649  0.0113  0.2057
 8665TIP3    H247411   1.238   2.420  16.507  0.3179 -0.6732  1.4036
 8666TIP3   OH247412   3.029   0.017   2.884  0.7863 -0.2176 -0.0304
 8666TIP3    H147413   3.082  -0.060   2.905  0.9370 -1.0060 -2.9161
 8666TIP3    H247414   3.056   0.041   2.796 -1.6135  1.1697 -0.4712
 8667TIP3   OH247415   3.346   0.448   5.655  0.5744 -0.4016  0.1096
 8667TIP3    H147416   3.412   0.502   5.611  0.8544 -1.0643 -0.2873
 8667TIP3    H247417   3.387   0.422   5.737  0.1473  0.6202  0.6766
 8668TIP3   OH247418   0.144   5.131  10.950 -0.7044  0.4241  0.1929
 8668TIP3    H147419   0.058   5.170  10.963 -0.9846  0.0975 -0.6094
 8668TIP3    H247420   0.195   5.199  10.905 -0.6743  0.4658  0.2902
 8669TIP3   OH247421   5.907   3.782  16.896  0.0631  0.2749 -0.1574
 8669TIP3    H147422   5.910   3.837  16.818 -0.1386  3.5915  1.9812
 8669TIP3    H247423   5.996   3.748  16.905  0.4811  1.1151 -1.0167
 8670TIP3   OH247424   0.988   5.460  15.849  0.3104  0.1068 -0.5244
 8670TIP3    H147425   0.914   5.447  15.907  0.0136  0.2085 -0.8802
 8670TIP3    H247426   0.986   5.386  15.788 -0.0797  0.6216 -1.1524
 8671TIP3   OH247427   2.196   2.267   6.192 -0.6816 -0.3053  0.3823
 8671TIP3    H147428   2.127   2.316   6.237 -1.8552 -0.3769 -1.2455
 8671TIP3    H247429   2.250   2.334   6.150 -1.5706 -0.3175 -0.8342
 8672TIP3   OH247430   4.746   4.585  15.709  0.5537  0.4806 -0.2762
 8672TIP3    H147431   4.797   4.509  15.679  2.9010  1.3044  1.4118
 8672TIP3    H247432   4.704   4.555  15.789  1.8221  1.0286  0.6245
 8673TIP3   OH247433   2.265   4.995   3.902 -0.5779  0.1805  0.4623
 8673TIP3    H147434   2.229   5.008   3.814 -0.0074  1.4786  0.4068
 8673TIP3    H247435   2.310   4.910   3.897 -0.5707  0.2330 -0.4875
 8674TIP3   OH247436   3.519   0.562  15.855 -0.0908  0.1345 -0.0535
 8674TIP3    H147437   3.600   0.608  15.876 -0.0044 -0.4518  0.9835
 8674TIP3    H247438   3.504   0.581  15.762  2.6348 -1.8439 -1.0287
 8675TIP3   OH247439   1.632   5.559   0.356 -0.2367 -0.4042  0.2024
 8675TIP3    H147440   1.565   5.521   0.300  0.5692  0.4689 -1.4040
 8675TIP3    H247441   1.651   5.645   0.318  0.9181 -0.1085  1.3407
 8676TIP3   OH247442   6.537   0.460  15.361 -0.0764  0.0287 -0.0645
 8676TIP3    H147443   6.536   0.465  15.456 -0.0382  2.0827 -0.1222
 8676TIP3    H247444   6.470   0.395  15.339  2.1506 -3.0558  1.3930
 8677TIP3   OH247445   1.253   1.659   5.543 -0.1701  0.2068 -0.3237
 8677TIP3    H147446   1.263   1.743   5.499  1.6277 -0.2693 -0.9136
 8677TIP3    H247447   1.235   1.597   5.472 -3.1200  0.2647  0.2479
 8678TIP3   OH247448   3.369   0.066  16.418  0.1651 -0.7265  0.1252
 8678TIP3    H147449   3.404   0.152  16.443 -1.6969  0.6908 -1.7865
 8678TIP3    H247450   3.389   0.059  16.325 -0.3875 -2.0428  0.0954
 8679TIP3   OH247451   2.648   2.877  17.146 -0.0748 -0.8746 -0.2756
 8679TIP3    H147452   2.712   2.900  17.078  0.0615 -0.1843  0.0787
 8679TIP3    H247453   2.693   2.811  17.199  0.4399 -0.2268  0.1078
 8680TIP3   OH247454   4.379   4.285  16.918  0.4905  0.0901 -0.1729
 8680TIP3    H147455   4.286   4.298  16.898  0.0124 -1.5529  0.7756
 8680TIP3    H247456   4.423   4.361  16.879 -1.2530  0.9616 -0.5437
 8681TIP3   OH247457   2.095   2.255   2.018 -0.3255 -0.1154 -0.6233
 8681TIP3    H147458   2.029   2.324   2.011 -0.1600  0.1412  0.2043
 8681TIP3    H247459   2.146   2.262   1.937  1.2348  2.3487  0.4617
 8682TIP3   OH247460   1.736   0.698   2.388 -0.0216  0.0519  0.5944
 8682TIP3    H147461   1.808   0.639   2.366 -1.3977 -1.2419 -0.7883
 8682TIP3    H247462   1.764   0.784   2.356  2.8135  0.7192  4.3022
 8683TIP3   OH247463   0.698   2.011  13.095 -0.3139  0.3205 -0.6165
 8683TIP3    H147464   0.661   2.092  13.128 -0.5598 -0.2174  0.4986
 8683TIP3    H247465   0.627   1.971  13.044  0.0569  1.1433 -1.8232
 8684TIP3   OH247466   0.273   3.062   0.314 -0.6002  0.1264 -0.3715
 8684TIP3    H147467   0.196   3.016   0.346  0.1890 -1.0514 -0.1225
 8684TIP3    H247468   0.278   3.040   0.221  0.6570 -1.6288  0.0688
 8685TIP3   OH247469   0.339   0.969  16.895  0.0670 -0.0738  0.3388
 8685TIP3    H147470   0.371   1.013  16.817 -0.4407 -0.4339 -0.0779
 8685TIP3    H247471   0.258   0.927  16.868 -0.6569  0.6349  1.3149
 8686TIP3   OH247472   6.689   0.326   2.477  0.6427  0.8088 -0.1989
 8686TIP3    H147473   6.655   0.415   2.472  2.4108  1.4764 -1.6982
 8686TIP3    H247474   6.626   0.273   2.429 -1.2391  0.9014  2.0047
 8687TIP3   OH247475   2.137   1.453  10.565 -0.0738  0.3646  0.3935
 8687TIP3    H147476   2.133   1.539  10.522  0.4091 -0.0945 -0.6202
 8687TIP3    H247477   2.072   1.458  10.635 -3.1392  0.1881 -2.1931
 8688TIP3   OH247478   1.779   6.753   0.172 -0.1826  0.4045  0.1537
 8688TIP3    H147479   1.816   6.664   0.175 -0.3034  0.3013 -0.8936
 8688TIP3    H247480   1.814   6.790   0.091 -0.7395  1.0445  0.2046
 8689TIP3   OH247481   4.787   0.610   0.547 -0.0087  0.0696  0.1804
 8689TIP3    H147482   4.869   0.562   0.548 -0.4618 -0.7182  0.2990
 8689TIP3    H247483   4.790   0.661   0.466 -0.1791 -1.3321 -0.7398
 8690TIP3   OH247484   0.346   1.169   1.059  0.1842 -0.6965 -0.1536
 8690TIP3    H147485   0.386   1.255   1.071  1.2785 -1.1755 -0.2522
 8690TIP3    H247486   0.256   1.188   1.031  0.5964  0.4171 -0.7966
 8691TIP3   OH247487   3.331   5.236  12.883  0.4549  0.2063 -0.3818
 8691TIP3    H147488   3.240   5.238  12.911  0.6279  1.9120  0.1932
 8691TIP3    H247489   3.327   5.242  12.787 -0.0385  0.1593 -0.3672
 8692TIP3   OH247490   5.540   0.447  13.125  0.3522 -0.4966 -0.0693
 8692TIP3    H147491   5.602   0.411  13.061 -0.9269 -2.8834 -0.0751
 8692TIP3    H247492   5.487   0.508  13.075  0.4136 -1.1163 -0.9174
 8693TIP3   OH247493   5.555   3.481   2.475  0.1110 -0.2296 -0.2092
 8693TIP3    H147494   5.588   3.501   2.388  0.0081 -1.3676 -0.5328
 8693TIP3    H247495   5.468   3.521   2.478 -0.0963 -0.6108 -0.8328
 8694TIP3   OH247496   1.578   6.436   2.433  0.1772  0.4647 -0.5456
 8694TIP3    H147497   1.674   6.430   2.435  0.2302  0.4942 -1.9903
 8694TIP3    H247498   1.549   6.383   2.507  1.3307  1.1739  0.4584
 8695TIP3   OH247499   4.454   2.727   3.858  0.3470 -0.3862  0.1680
 8695TIP3    H147500   4.513   2.688   3.923  1.0216  2.4307  1.3628
 8695TIP3    H247501   4.503   2.799   3.820 -1.6591  0.9217 -0.1069
 8696TIP3   OH247502   3.961   3.911   2.355  0.2373  0.1629  0.2765
 8696TIP3    H147503   3.957   3.931   2.449  2.4521  0.9908  0.2466
 8696TIP3    H247504   3.948   3.996   2.312  1.7441  0.2371 -0.0774
 8697TIP3   OH247505   2.695   3.999  12.263 -0.1267  0.5257 -0.2420
 8697TIP3    H147506   2.637   3.974  12.334  0.3648  1.3640  0.4732
 8697TIP3    H247507   2.756   3.926  12.253  0.0625  0.5839  0.4805
 8698TIP3   OH247508   1.728   3.469  15.903  0.3506 -0.5685 -0.2929
 8698TIP3    H147509   1.740   3.493  15.995  1.3098  0.4219 -0.6502
 8698TIP3    H247510   1.802   3.510  15.858 -1.7135  1.5846 -1.9736
 8699TIP3   OH247511   1.657   1.725   1.910  0.1722 -0.2233 -0.7337
 8699TIP3    H147512   1.644   1.818   1.890 -2.1426 -0.3466 -0.1209
 8699TIP3    H247513   1.701   1.690   1.833  2.7508  1.6722 -0.2638
 8700TIP3   OH247514   3.904   4.721  17.110 -0.4020 -0.0331 -0.6178
 8700TIP3    H147515   3.999   4.708  17.110 -0.5368 -1.4231  0.7457
 8700TIP3    H247516   3.890   4.800  17.162 -0.0862 -1.4807  1.8010
 8701TIP3   OH247517   3.732   5.409  14.015 -0.6175  0.2291  0.4437
 8701TIP3    H147518   3.792   5.420  13.941 -0.9113  1.2837  0.3406
 8701TIP3    H247519   3.650   5.379  13.976 -0.7243  0.6319  0.3553
 8702TIP3   OH247520   5.505   5.114   0.751  0.2267 -0.1923  0.4356
 8702TIP3    H147521   5.456   5.033   0.738  0.7421 -0.3096 -0.9381
 8702TIP3    H247522   5.589   5.087   0.786 -0.3126 -0.0679  1.8795
 8703TIP3   OH247523   2.607   1.085   1.845 -0.2558  0.0285  0.2758
 8703TIP3    H147524   2.548   1.056   1.775 -0.6381 -0.0180  0.6156
 8703TIP3    H247525   2.551   1.131   1.907  0.3859  1.8322 -0.4142
 8704TIP3   OH247526   5.950   3.080   5.428  0.2065 -0.8599 -1.2484
 8704TIP3    H147527   6.030   3.027   5.430  1.1204  0.3681  2.2078
 8704TIP3    H247528   5.906   3.061   5.511 -1.3295  1.0000 -1.5526
 8705TIP3   OH247529   3.966   0.636  11.573  0.1301  0.4545 -0.1384
 8705TIP3    H147530   4.013   0.646  11.491  0.0458  0.4091 -0.1929
 8705TIP3    H247531   3.961   0.725  11.609 -0.5963  0.6104 -0.6045
 8706TIP3   OH247532   5.893   3.301  14.416 -0.4209 -0.0211 -0.0992
 8706TIP3    H147533   5.801   3.326  14.420 -0.4637 -0.2300  0.2291
 8706TIP3    H247534   5.922   3.331  14.330 -0.1126  2.4082  0.7714
 8707TIP3   OH247535   3.792   3.678  12.259 -0.4827 -0.2939 -0.1617
 8707TIP3    H147536   3.760   3.660  12.170 -1.0886 -0.9069  0.1721
 8707TIP3    H247537   3.799   3.773  12.263 -0.3967 -0.2610 -0.8845
 8708TIP3   OH247538   2.450   2.030  16.855  0.8225 -0.0471  0.2379
 8708TIP3    H147539   2.405   1.999  16.934 -0.9108  0.4650 -0.4947
 8708TIP3    H247540   2.424   2.121  16.847 -0.3839 -0.5148 -1.7816
 8709TIP3   OH247541   4.811   2.615  15.428 -0.2276  0.2207 -0.1214
 8709TIP3    H147542   4.817   2.695  15.480  0.6048  0.9186 -1.2402
 8709TIP3    H247543   4.720   2.611  15.399  0.0038  1.4533 -1.0806
 8710TIP3   OH247544   0.718   6.565   0.074 -0.8624  0.4892  0.5713
 8710TIP3    H147545   0.713   6.512   0.154  0.7725  2.9288  2.4131
 8710TIP3    H247546   0.812   6.581   0.061 -1.2865  3.4047  0.4917
 8711TIP3   OH247547   0.756   4.636   0.995 -0.1979  0.0340 -0.0234
 8711TIP3    H147548   0.756   4.679   0.909  0.2958 -0.4306 -0.2663
 8711TIP3    H247549   0.820   4.685   1.046 -0.0671 -0.0403 -0.1129
 8712TIP3   OH247550   2.303   6.167  14.010 -0.0638 -0.0801 -0.5304
 8712TIP3    H147551   2.209   6.178  14.025  0.1807 -0.3606  1.4148
 8712TIP3    H247552   2.315   6.073  13.996  0.0806 -0.2155  0.4829
 8713TIP3   OH247553   4.814   0.529  12.419 -0.4953 -0.1045 -0.0868
 8713TIP3    H147554   4.862   0.506  12.339 -0.9130  1.0362 -0.6930
 8713TIP3    H247555   4.860   0.483  12.489  0.4778 -0.3483 -0.8653
 8714TIP3   OH247556   1.049   4.393  16.310  0.0688 -0.4655 -0.3497
 8714TIP3    H147557   1.003   4.456  16.254  0.6475 -0.0304 -0.3494
 8714TIP3    H247558   1.136   4.430  16.320  0.6308 -1.6099 -0.8872
 8715TIP3   OH247559   2.204   2.656   3.152  0.3322 -0.0909  0.0625
 8715TIP3    H147560   2.178   2.707   3.228  1.0310 -0.3958  0.5199
 8715TIP3    H247561   2.123   2.642   3.103 -0.0475  0.4826  0.5182
 8716TIP3   OH247562   6.440   3.161   0.048  0.1480 -0.0463  0.3147
 8716TIP3    H147563   6.475   3.092  -0.008 -0.1443 -0.2784  0.4143
 8716TIP3    H247564   6.356   3.184   0.007 -1.2193 -1.8493  1.9157
 8717TIP3   OH247565   0.229   5.767  15.686 -0.3443  0.5628  0.1081
 8717TIP3    H147566   0.160   5.832  15.690 -0.8663 -0.0356  2.0793
 8717TIP3    H247567   0.308   5.814  15.712 -0.8301  0.3468  2.1529
 8718TIP3   OH247568   2.540   2.728  13.632  0.7282 -0.2797 -0.3841
 8718TIP3    H147569   2.485   2.758  13.560 -0.1292 -0.2489  0.2628
 8718TIP3    H247570   2.570   2.808  13.675  0.6567 -0.3093 -0.2795
 8719TIP3   OH247571   0.228   1.163   1.478 -0.4009 -0.2707 -0.1675
 8719TIP3    H147572   0.158   1.226   1.460 -0.6854 -0.7670 -0.8295
 8719TIP3    H247573   0.195   1.111   1.551 -0.0758  0.4794  0.5209
 8720TIP3   OH247574   5.591   0.895   2.679  0.0684  0.0876  0.0392
 8720TIP3    H147575   5.664   0.904   2.618 -0.7716  2.4057 -0.7603
 8720TIP3    H247576   5.604   0.965   2.742 -1.0652  0.0819  0.3030
 8721TIP3   OH247577   0.879   6.268   5.823  0.6387  0.0106 -0.1124
 8721TIP3    H147578   0.930   6.188   5.814 -0.5840 -0.6884 -0.9982
 8721TIP3    H247579   0.875   6.305   5.735  1.6050  1.3394  0.3637
 8722TIP3   OH247580   4.723   4.998  11.445  0.4659 -0.1816  0.5360
 8722TIP3    H147581   4.818   4.990  11.437  0.4474  0.7755 -1.3379
 8722TIP3    H247582   4.700   5.068  11.384 -1.1594  1.6243  3.0450
 8723TIP3   OH247583   3.503   3.462   0.216 -0.3410 -0.3337  0.4554
 8723TIP3    H147584   3.584   3.511   0.231 -0.6356  1.3546 -2.5859
 8723TIP3    H247585   3.523   3.406   0.141 -1.2665 -1.7999  1.2730
 8724TIP3   OH247586   1.265   4.147  14.910  0.1322  0.0157 -0.2429
 8724TIP3    H147587   1.243   4.176  14.998  0.0073 -3.7456  1.1335
 8724TIP3    H247588   1.184   4.158  14.860  0.2833  2.4499 -0.0848
 8725TIP3   OH247589   6.254   0.031   3.170  0.0734 -0.2715 -0.9281
 8725TIP3    H147590   6.161   0.034   3.148  0.2378 -1.0029 -1.7861
 8725TIP3    H247591   6.294  -0.019   3.099  1.2211  0.5532 -0.8930
 8726TIP3   OH247592   1.420   5.998  12.525  0.1134 -0.3597 -0.3558
 8726TIP3    H147593   1.347   6.053  12.554 -0.6995 -0.5639 -1.9032
 8726TIP3    H247594   1.455   5.960  12.605 -0.0038  1.5459  0.6494
 8727TIP3   OH247595   5.919   5.330   2.230 -0.5211 -0.1663  0.1802
 8727TIP3    H147596   5.864   5.258   2.262 -1.5070 -0.2666 -1.6024
 8727TIP3    H247597   5.861   5.382   2.175  0.8637  0.4722 -0.7308
 8728TIP3   OH247598   1.062   2.811  15.077  0.0307 -0.1026  0.3681
 8728TIP3    H147599   1.149   2.787  15.108 -0.3386 -1.6085  0.3552
 8728TIP3    H247600   1.055   2.905  15.093  2.4922  0.5289 -1.7681
 8729TIP3   OH247601   6.029   0.211  16.049 -0.2609  0.2387 -0.4969
 8729TIP3    H147602   6.035   0.305  16.033 -0.7578  0.5170  0.7813
 8729TIP3    H247603   5.935   0.191  16.041 -0.1948 -0.0850 -0.4798
 8730TIP3   OH247604   2.063   1.242  11.088 -0.1930  0.2659  0.1526
 8730TIP3    H147605   1.986   1.295  11.108 -0.2393  0.1272  0.3472
 8730TIP3    H247606   2.138   1.298  11.108 -0.2349  0.0260  1.0179
 8731TIP3   OH247607   1.377   3.413  13.458  0.6712  0.4998  0.4505
 8731TIP3    H147608   1.325   3.333  13.470  1.1609  0.3251  1.5878
 8731TIP3    H247609   1.317   3.475  13.416 -0.3331  0.1793  1.3712
 8732TIP3   OH247610   2.349   3.176   4.625 -0.1470 -0.0162  0.2276
 8732TIP3    H147611   2.400   3.231   4.685  0.9056 -0.9417  0.2112
 8732TIP3    H247612   2.392   3.187   4.540 -0.5569 -0.0701  0.0125
 8733TIP3   OH247613   5.640   0.666  11.909 -0.2448  0.4391 -0.0852
 8733TIP3    H147614   5.686   0.676  11.993 -0.3314 -0.8178  0.1182
 8733TIP3    H247615   5.702   0.700  11.844  0.6967 -0.5671  0.2648
 8734TIP3   OH247616   3.453   2.894   0.490  0.2483  0.6189 -0.1915
 8734TIP3    H147617   3.364   2.913   0.462 -0.2703  0.6355  1.3479
 8734TIP3    H247618   3.444   2.867   0.582  1.7476 -0.0827 -0.2136
 8735TIP3   OH247619   0.027   5.672  14.261  0.4651  0.2284 -0.1078
 8735TIP3    H147620  -0.056   5.675  14.214  1.2099 -0.5874 -1.5378
 8735TIP3    H247621   0.017   5.737  14.331 -1.6638 -0.4275  0.2721
 8736TIP3   OH247622   4.184   2.402  14.565 -0.5521  0.1933 -0.7446
 8736TIP3    H147623   4.278   2.389  14.553 -0.4625  1.7270 -1.9590
 8736TIP3    H247624   4.178   2.457  14.643 -0.5624 -1.1959  0.2720
 8737TIP3   OH247625   3.200   0.228  15.407 -0.4832 -0.0063 -0.1850
 8737TIP3    H147626   3.276   0.193  15.452  0.4610  0.5377 -1.3191
 8737TIP3    H247627   3.191   0.318  15.440  0.3112  0.4501 -1.1689
 8738TIP3   OH247628   2.476   6.406   6.134 -0.1385 -0.1306  0.2445
 8738TIP3    H147629   2.442   6.318   6.152 -1.8672  0.6377  0.9361
 8738TIP3    H247630   2.531   6.426   6.209 -1.0551 -0.0103  0.9059
 8739TIP3   OH247631   4.851   3.200   3.406 -0.1201  0.6922  0.8880
 8739TIP3    H147632   4.776   3.148   3.380 -0.9548  1.8977  0.8174
 8739TIP3    H247633   4.865   3.178   3.498  0.4994 -0.7680  0.4754
 8740TIP3   OH247634   0.102   3.018  16.687  0.1978 -0.0901  0.3340
 8740TIP3    H147635   0.050   2.940  16.670 -1.0552  0.1985  2.6030
 8740TIP3    H247636   0.162   2.993  16.757 -0.2070  0.9671  1.0819
 8741TIP3   OH247637   3.023   3.786   1.981  0.2188 -0.1451  0.1007
 8741TIP3    H147638   3.109   3.828   1.984 -0.2378  0.7857  0.9890
 8741TIP3    H247639   2.980   3.815   2.062 -1.5407  0.7698 -1.0885
 8742TIP3   OH247640   3.349   5.194   1.813 -0.3871  0.0222 -0.0590
 8742TIP3    H147641   3.403   5.143   1.873 -0.8517 -0.4013  0.0062
 8742TIP3    H247642   3.378   5.285   1.825 -0.5603 -0.0403  0.8932
 8743TIP3   OH247643   2.164   0.370  11.278  0.3453 -0.0027 -0.3671
 8743TIP3    H147644   2.096   0.433  11.253  0.2712 -0.7850 -2.3213
 8743TIP3    H247645   2.240   0.424  11.299 -0.4921  0.8274  0.6711
 8744TIP3   OH247646   1.291   3.460   0.597  0.5860 -0.1194  0.1538
 8744TIP3    H147647   1.321   3.397   0.531  0.4283 -0.8459  0.7568
 8744TIP3    H247648   1.369   3.479   0.649  0.1560 -1.6616  1.4411
 8745TIP3   OH247649   6.454   0.153   4.954  0.0079 -0.1572 -0.3902
 8745TIP3    H147650   6.530   0.192   4.910 -1.0823  1.4276 -0.9677
 8745TIP3    H247651   6.441   0.208   5.032 -0.8207 -0.1001 -0.5603
 8746TIP3   OH247652   4.119   2.606   0.452  0.2199 -0.7915 -0.0603
 8746TIP3    H147653   4.041   2.636   0.406 -0.3525 -0.9302  0.7982
 8746TIP3    H247654   4.093   2.601   0.544  1.1690 -1.0722  0.2097
 8747TIP3   OH247655   2.569   5.247  13.001 -0.1430 -0.0126 -0.0605
 8747TIP3    H147656   2.584   5.336  13.034 -1.6466 -0.1136  0.9582
 8747TIP3    H247657   2.480   5.249  12.967 -0.3992 -1.2694  0.4900
 8748TIP3   OH247658   5.511   1.392  11.775  0.1387  0.3084  0.1050
 8748TIP3    H147659   5.553   1.386  11.689 -2.9287 -1.4427 -1.4389
 8748TIP3    H247660   5.565   1.337  11.832 -0.1906 -2.2311 -1.8832
 8749TIP3   OH247661   3.065   1.392  12.791  0.2269 -0.1740 -0.1185
 8749TIP3    H147662   3.084   1.397  12.884  1.2525 -1.9231 -0.1884
 8749TIP3    H247663   2.970   1.382  12.787  0.1223  0.3558  0.6944
 8750TIP3   OH247664   1.246   6.312   2.286  0.1489  0.7120  0.5948
 8750TIP3    H147665   1.225   6.319   2.380  0.7328  1.0427  0.7074
 8750TIP3    H247666   1.279   6.399   2.263  0.0555  0.6134  0.0948
 8751TIP3   OH247667   5.517   1.898  13.429 -0.3233  0.9716  0.4304
 8751TIP3    H147668   5.550   1.951  13.501 -1.0329 -0.3578  1.7967
 8751TIP3    H247669   5.422   1.896  13.443 -0.2240 -1.8518  1.3862
 8752TIP3   OH247670   6.162   1.257   1.239 -0.1045  0.3280 -0.0421
 8752TIP3    H147671   6.133   1.235   1.327  0.1705 -2.3807 -0.5492
 8752TIP3    H247672   6.098   1.215   1.181  1.2083 -0.3038 -1.1131
 8753TIP3   OH247673   0.297   4.199  15.989  0.1014 -0.3066  0.0685
 8753TIP3    H147674   0.364   4.145  15.947 -1.6197 -0.5120 -2.6208
 8753TIP3    H247675   0.243   4.136  16.038  2.4904  0.0062  3.4054
 8754TIP3   OH247676   1.964   2.566  17.334  0.4133  0.4085  0.2735
 8754TIP3    H147677   1.939   2.494  17.275 -0.0123 -1.4307  2.5222
 8754TIP3    H247678   1.999   2.521  17.411  1.3403  2.7042  1.2537
 8755TIP3   OH247679   3.024   1.336   1.685  0.5080  0.1543  0.3284
 8755TIP3    H147680   2.961   1.292   1.627  1.6763 -1.5606  0.2635
 8755TIP3    H247681   3.037   1.273   1.756  0.1339  1.6528  1.7721
 8756TIP3   OH247682   1.203   1.568  17.232 -0.2632 -0.1300  0.5117
 8756TIP3    H147683   1.266   1.515  17.182 -0.0655  1.0430 -0.5291
 8756TIP3    H247684   1.118   1.527  17.214 -0.0882 -0.2488 -0.0740
 8757TIP3   OH247685   4.610   4.759  13.515  0.2147  0.2007 -0.2047
 8757TIP3    H147686   4.626   4.845  13.554  1.2357 -0.6373  1.3697
 8757TIP3    H247687   4.577   4.706  13.588  0.3738 -0.9547 -0.9485
 8758TIP3   OH247688   1.854   3.867  12.304 -0.6458  0.4369 -0.0270
 8758TIP3    H147689   1.846   3.815  12.384 -2.8105  0.5640 -0.0883
 8758TIP3    H247690   1.898   3.947  12.332 -1.8382  0.7051  1.2083
 8759TIP3   OH247691   2.482   1.118  16.359  0.5652 -0.2160 -0.2701
 8759TIP3    H147692   2.535   1.192  16.387  2.3019 -1.3062 -0.5470
 8759TIP3    H247693   2.508   1.046  16.416 -0.0716 -0.9692 -0.8995
 8760TIP3   OH247694   0.959   4.975   2.609  0.4296 -0.3675  0.2499
 8760TIP3    H147695   0.960   4.881   2.627  0.5850 -0.7614 -1.6530
 8760TIP3    H247696   0.874   4.990   2.568  0.7053  0.1942 -0.1174
 8761TIP3   OH247697   6.365   1.156   4.877 -0.6144  0.9251  0.5906
 8761TIP3    H147698   6.418   1.082   4.908 -0.5839  0.6946 -0.0141
 8761TIP3    H247699   6.373   1.221   4.947 -0.1842  0.5804  0.8700
 8762TIP3   OH247700   6.449   3.820  13.756  0.0189 -0.0823  0.0975
 8762TIP3    H147701   6.456   3.849  13.847  0.5832  0.7248 -0.1928
 8762TIP3    H247702   6.530   3.850  13.716  0.4845 -1.7950 -0.3039
 8763TIP3   OH247703   4.934   5.780  11.563 -0.2960  0.4322  0.6537
 8763TIP3    H147704   4.842   5.769  11.586 -0.6623  1.9359  0.0391
 8763TIP3    H247705   4.981   5.768  11.646 -0.9764 -0.7586  0.8988
 8764TIP3   OH247706   4.289   2.496  16.426  0.3736  0.2520  0.4357
 8764TIP3    H147707   4.256   2.546  16.501 -0.6908 -0.4158  0.4353
 8764TIP3    H247708   4.330   2.561  16.370 -0.8237  1.1099  0.5248
 8765TIP3   OH247709   6.148   2.005   5.103  0.6707 -0.0632  1.1390
 8765TIP3    H147710   6.179   1.962   5.023  1.1015 -0.0382  1.2905
 8765TIP3    H247711   6.073   2.057   5.075  1.3401  0.6204  0.5905
 8766TIP3   OH247712   5.483   2.343  13.971 -0.1492 -0.5374 -0.3294
 8766TIP3    H147713   5.499   2.273  13.908  3.0726  0.0662 -0.3727
 8766TIP3    H247714   5.457   2.298  14.052 -2.4673 -1.4256 -1.4986
 8767TIP3   OH247715   4.052   6.542  11.582  0.5133 -0.1630 -0.6520
 8767TIP3    H147716   4.078   6.476  11.647 -1.1569 -0.0780  0.1556
 8767TIP3    H247717   4.002   6.606  11.633 -0.4991  0.1151 -1.9477
 8768TIP3   OH247718   6.055   3.059   0.192 -0.1949 -0.1456 -0.7765
 8768TIP3    H147719   6.118   2.988   0.189 -0.1011 -0.0901 -0.1504
 8768TIP3    H247720   6.030   3.072   0.100  2.5206  1.4772 -1.3916
 8769TIP3   OH247721   4.190   0.617   2.718  0.1868 -0.1868  0.3890
 8769TIP3    H147722   4.152   0.560   2.651 -0.0561  0.7315 -0.2759
 8769TIP3    H247723   4.201   0.560   2.794 -0.6106 -0.9735 -0.0610
 8770TIP3   OH247724   0.565   6.713   4.800 -0.9891 -0.4108 -0.0782
 8770TIP3    H147725   0.582   6.632   4.848 -0.1364 -0.6237 -0.7234
 8770TIP3    H247726   0.599   6.782   4.857 -0.8670 -0.5796  0.0535
 8771TIP3   OH247727   5.006   0.685   0.309  0.1917  0.2122 -0.0216
 8771TIP3    H147728   4.965   0.769   0.286 -1.1368 -0.0584  1.2315
 8771TIP3    H247729   4.938   0.620   0.293  0.6647 -0.4477  0.5781
 8772TIP3   OH247730   2.544   2.527  11.659  0.1269 -0.1243  0.3068
 8772TIP3    H147731   2.600   2.576  11.720 -0.4002  0.5728  0.2478
 8772TIP3    H247732   2.460   2.520  11.705 -0.1205 -0.0444 -0.1316
 8773TIP3   OH247733   2.689   6.179  15.507 -0.1334 -0.4853  0.6891
 8773TIP3    H147734   2.764   6.124  15.485 -2.3190 -3.0865 -0.9921
 8773TIP3    H247735   2.644   6.131  15.577 -1.2290 -0.0123  0.3301
 8774TIP3   OH247736   4.595   2.468  13.630  0.8510  0.3481  0.1928
 8774TIP3    H147737   4.571   2.377  13.648 -0.3801  0.7273  0.5710
 8774TIP3    H247738   4.527   2.500  13.572 -0.5454  1.9150  2.5412
 8775TIP3   OH247739   1.410   0.701  14.999  0.4144  0.7268 -0.6821
 8775TIP3    H147740   1.466   0.644  14.946  1.4004  0.4813  0.5734
 8775TIP3    H247741   1.444   0.789  14.982  0.8349  0.6328 -0.3568
 8776TIP3   OH247742   3.697   6.428   3.934 -0.4877  0.5502 -0.4353
 8776TIP3    H147743   3.694   6.335   3.913  0.1695 -0.3536  2.9980
 8776TIP3    H247744   3.609   6.449   3.965 -0.5714  1.0556 -0.9836
 8777TIP3   OH247745   1.832   1.279  14.333  0.3033  0.1748  0.6833
 8777TIP3    H147746   1.877   1.329  14.264  3.1700 -1.1920  1.3994
 8777TIP3    H247747   1.820   1.342  14.404 -0.7643  1.0665 -0.2547
 8778TIP3   OH247748   1.552   3.362  11.623 -0.0832  0.1294 -0.2071
 8778TIP3    H147749   1.523   3.300  11.556  1.8450 -0.2526 -0.7622
 8778TIP3    H247750   1.489   3.352  11.695 -0.2142 -1.9711 -0.5611
 8779TIP3   OH247751   5.228   5.790  14.528 -0.1149 -0.5371 -0.0833
 8779TIP3    H147752   5.219   5.818  14.437 -0.3732 -0.5751 -0.0701
 8779TIP3    H247753   5.320   5.806  14.549  0.0301 -0.8483 -0.4600
 8780TIP3   OH247754   0.815   0.796  13.834 -0.8898 -0.2284 -0.5572
 8780TIP3    H147755   0.834   0.710  13.871  1.1805 -0.8735 -2.8951
 8780TIP3    H247756   0.889   0.814  13.776 -2.3020  2.2056 -1.7373
 8781TIP3   OH247757   5.988   1.422  17.263 -1.2722 -0.5871  0.1157
 8781TIP3    H147758   6.067   1.368  17.257 -0.2957  0.9070 -1.4041
 8781TIP3    H247759   5.995   1.463  17.349 -0.0035  0.0360 -0.2500
 8782TIP3   OH247760   4.735   2.365   1.812 -0.4184  0.3229  0.5926
 8782TIP3    H147761   4.829   2.380   1.808 -0.5248  1.1901  1.2091
 8782TIP3    H247762   4.724   2.295   1.876 -0.1612 -0.2018  0.0767
 8783TIP3   OH247763   5.406   2.771  17.157 -0.2278 -0.4566  0.7698
 8783TIP3    H147764   5.347   2.835  17.198 -0.5859  0.1534 -0.6394
 8783TIP3    H247765   5.455   2.734  17.230 -0.2629  1.1777  1.6795
 8784TIP3   OH247766   0.671   6.420  11.365 -0.0807  0.1584 -0.2293
 8784TIP3    H147767   0.741   6.440  11.304 -0.1371 -0.8369 -0.6283
 8784TIP3    H247768   0.601   6.481  11.341  1.0441  2.0535  0.9890
 8785TIP3   OH247769   1.192   4.497  14.833  0.0941  0.3375 -0.0721
 8785TIP3    H147770   1.285   4.479  14.831 -0.4786 -3.2540  0.1690
 8785TIP3    H247771   1.165   4.495  14.741  0.1255  0.6153 -0.0880
 8786TIP3   OH247772   5.004   4.214  15.292  0.1275  0.3298  0.1685
 8786TIP3    H147773   5.006   4.302  15.331  2.3915 -0.2453  1.5408
 8786TIP3    H247774   5.055   4.223  15.212 -1.7803  0.7684 -1.0674
 8787TIP3   OH247775   6.153   6.001  11.496  0.1416 -0.0262 -0.6946
 8787TIP3    H147776   6.129   6.047  11.416 -1.6577 -0.7930 -0.6562
 8787TIP3    H247777   6.189   5.918  11.466  1.3049  0.4703 -0.7196
 8788TIP3   OH247778   4.865   1.105  17.090  0.1659 -0.5147 -0.0198
 8788TIP3    H147779   4.941   1.073  17.139  1.8881  0.5044 -1.8308
 8788TIP3    H247780   4.845   1.190  17.129  1.3870  0.1938 -0.8383
 8789TIP3   OH247781   6.020   4.262  14.656  0.0192  0.4452  0.5175
 8789TIP3    H147782   6.063   4.184  14.620  0.1932  1.4682 -1.6679
 8789TIP3    H247783   5.944   4.276  14.600  0.3331  2.1780  0.4579
 8790TIP3   OH247784   2.536   1.420  10.979 -0.6874 -0.2931  0.6216
 8790TIP3    H147785   2.474   1.492  10.977 -1.4615 -0.9244  0.9471
 8790TIP3    H247786   2.614   1.456  11.020 -1.3487  0.1609  1.5203
 8791TIP3   OH247787   1.110   4.511   1.573 -0.4899 -0.4114 -0.3123
 8791TIP3    H147788   1.032   4.482   1.525 -0.8650  0.7026 -0.4166
 8791TIP3    H247789   1.102   4.606   1.575  1.0262 -0.2580 -0.5816
 8792TIP3   OH247790   0.874   0.617  15.532  0.1127  0.4361 -0.2250
 8792TIP3    H147791   0.784   0.585  15.542 -0.5541  2.4057  0.5554
 8792TIP3    H247792   0.911   0.561  15.464 -1.1906 -1.4278  0.4995
 8793TIP3   OH247793   6.291   1.903  11.333 -0.1691  0.0625 -0.0374
 8793TIP3    H147794   6.273   1.861  11.249 -1.7140  0.0646  0.2681
 8793TIP3    H247795   6.366   1.855  11.368 -0.7272 -1.2121 -0.5361
 8794TIP3   OH247796   2.669   2.850   1.843  0.4516  0.1310  0.0036
 8794TIP3    H147797   2.586   2.890   1.868 -0.8966 -1.8728 -0.9841
 8794TIP3    H247798   2.711   2.828   1.926 -0.1437  0.8962  0.5215
 8795TIP3   OH247799   3.637   4.915  13.023 -0.2134 -0.2478  0.4449
 8795TIP3    H147800   3.620   5.004  13.055  2.2287  1.3579 -2.2060
 8795TIP3    H247801   3.551   4.880  13.002 -1.1993  1.7861  0.8722
 8796TIP3   OH247802   2.535   1.897   4.398  0.2145 -0.5502  0.0485
 8796TIP3    H147803   2.479   1.943   4.460 -0.8290 -0.5158 -0.8845
 8796TIP3    H247804   2.504   1.806   4.400  0.2638 -0.5770 -0.3114
 8797TIP3   OH247805   1.166   2.391  13.670 -0.1480  0.3405 -0.8347
 8797TIP3    H147806   1.250   2.389  13.717  0.7209  0.5444 -2.3167
 8797TIP3    H247807   1.123   2.310  13.695  0.2987  0.4111  0.2557
 8798TIP3   OH247808   3.794   6.518  15.223 -0.6327 -0.3541 -0.0948
 8798TIP3    H147809   3.699   6.511  15.219 -0.8736  1.5241  1.1520
 8798TIP3    H247810   3.819   6.474  15.305 -0.7378  1.3266  0.8790
 8799TIP3   OH247811   0.331   1.715  15.758  0.6871  0.2168  1.0290
 8799TIP3    H147812   0.337   1.809  15.742  1.4697  0.3705  2.1089
 8799TIP3    H247813   0.364   1.704  15.847 -0.1281 -0.9926  1.2055
 8800TIP3   OH247814   4.601   4.732  10.841  0.4311 -0.3387 -0.4598
 8800TIP3    H147815   4.583   4.793  10.769 -0.0413  0.7543  0.5349
 8800TIP3    H247816   4.664   4.778  10.896  0.8570 -1.1969 -0.2153
 8801TIP3   OH247817   3.951   1.874  13.347 -0.1047 -0.7645  0.5046
 8801TIP3    H147818   3.927   1.797  13.297  0.4172 -1.4558  1.2761
 8801TIP3    H247819   3.921   1.855  13.436 -1.0743  0.4605  0.4582
 8802TIP3   OH247820   5.263   4.790  16.989 -0.1070  0.1389  0.8536
 8802TIP3    H147821   5.189   4.848  17.006 -0.1941  1.1761 -2.3147
 8802TIP3    H247822   5.257   4.770  16.895  2.7701 -0.9488  0.7764
 8803TIP3   OH247823   0.989   3.117  13.076 -0.6424 -0.1003 -0.5788
 8803TIP3    H147824   1.048   3.128  13.002  0.9308 -0.4033  0.5917
 8803TIP3    H247825   1.004   3.193  13.132 -1.4948 -0.0869 -0.3462
 8804TIP3   OH247826   0.821   3.255  11.759  0.3061  0.1101  0.1319
 8804TIP3    H147827   0.797   3.347  11.748  1.3135  0.3247 -0.3989
 8804TIP3    H247828   0.773   3.227  11.837  0.7811  1.3784  0.9193
 8805TIP3   OH247829   4.054   4.410   0.385 -0.1921  0.2266  0.2121
 8805TIP3    H147830   4.080   4.497   0.354  0.5573 -0.2363 -0.5124
 8805TIP3    H247831   4.115   4.350   0.341 -2.7859 -1.0000 -1.9809
 8806TIP3   OH247832   1.229   3.521   3.729  0.0695 -0.4547  0.2487
 8806TIP3    H147833   1.154   3.576   3.752 -0.5220 -0.9950 -0.3376
 8806TIP3    H247834   1.214   3.498   3.637  1.7038  0.6183 -0.3303
 8807TIP3   OH247835   6.663   6.337  14.057 -0.2656 -0.0170  0.3482
 8807TIP3    H147836   6.688   6.308  13.969 -1.2885 -2.0325  0.6718
 8807TIP3    H247837   6.675   6.260  14.112 -0.5293  0.9524  1.8084
 8808TIP3   OH247838   5.044   5.911   3.438  0.1069  0.3028 -0.0459
 8808TIP3    H147839   5.060   5.962   3.518 -2.0336  1.2773 -0.1602
 8808TIP3    H247840   4.949   5.916   3.425  0.0919 -1.8382 -1.3580
 8809TIP3   OH247841   5.109   4.213   4.037 -0.3853 -0.6681  0.2681
 8809TIP3    H147842   5.017   4.208   4.063 -0.0795 -0.2467  1.4593
 8809TIP3    H247843   5.121   4.304   4.010 -0.7517 -1.1407 -1.6457
 8810TIP3   OH247844   2.443   4.781   4.704 -0.3434  0.6534  0.1798
 8810TIP3    H147845   2.501   4.856   4.715  1.1799 -0.2868 -0.9953
 8810TIP3    H247846   2.436   4.743   4.792  2.3679 -0.2503  0.1034
 8811TIP3   OH247847   2.432   0.020  11.965  0.6255  0.2973 -0.0321
 8811TIP3    H147848   2.345   0.059  11.968 -0.0394 -1.1823  3.0823
 8811TIP3    H247849   2.479   0.059  12.038  2.1090 -0.0699 -0.7348
 8812TIP3   OH247850   2.572   2.480   3.401 -0.1349  0.1018 -0.2108
 8812TIP3    H147851   2.574   2.574   3.420 -1.2741  0.1566 -0.2722
 8812TIP3    H247852   2.661   2.450   3.419 -0.3256  0.7268  2.2479
 8813TIP3   OH247853   3.657   5.103   6.352 -0.3976 -0.2409 -0.2290
 8813TIP3    H147854   3.594   5.072   6.417 -0.2435 -1.6267 -0.6943
 8813TIP3    H247855   3.741   5.102   6.398 -0.7287  1.9415  0.4940
 8814TIP3   OH247856   3.674   2.791  16.955  0.5801  0.6526  0.5771
 8814TIP3    H147857   3.633   2.711  16.922 -0.9068  0.8843  1.7325
 8814TIP3    H247858   3.618   2.818  17.027  2.5494  1.2891  1.9403
 8815TIP3   OH247859   5.892   0.582   0.535 -0.8538 -1.2285  0.3246
 8815TIP3    H147860   5.864   0.507   0.482  0.0580 -1.3565  0.0175
 8815TIP3    H247861   5.932   0.544   0.613 -2.0626 -1.0398  1.0690
 8816TIP3   OH247862   1.975   2.654  10.672  0.3863  0.0121 -0.1164
 8816TIP3    H147863   1.959   2.742  10.706 -0.3558 -0.2535  0.2459
 8816TIP3    H247864   1.892   2.629  10.632  0.7643 -0.3122 -0.7057
 8817TIP3   OH247865   2.498   3.980   0.480 -0.1333  0.2831 -0.0391
 8817TIP3    H147866   2.485   4.036   0.404  0.6524 -1.5808 -1.6312
 8817TIP3    H247867   2.591   3.991   0.502 -0.6132  1.7017  1.4434
 8818TIP3   OH247868   0.862   0.787   4.368  0.2994 -0.2437  0.6034
 8818TIP3    H147869   0.802   0.860   4.380 -0.1922 -0.3344 -1.0570
 8818TIP3    H247870   0.936   0.825   4.320  0.4034 -0.6453  0.4406
 8819TIP3   OH247871   3.962   5.481   3.453 -0.2819 -0.0142 -0.2220
 8819TIP3    H147872   3.935   5.551   3.394 -0.6126  0.0523  0.0070
 8819TIP3    H247873   3.908   5.493   3.531 -0.2332 -0.4327 -0.1225
 8820TIP3   OH247874   0.771   4.939  12.121  0.7708 -0.4945  0.3754
 8820TIP3    H147875   0.755   4.871  12.056 -0.2944  0.0206  0.0715
 8820TIP3    H247876   0.764   5.021  12.072  0.8025 -0.1296  0.9726
 8821TIP3   OH247877   5.046   3.814   1.982  0.3533  0.1465  0.8401
 8821TIP3    H147878   5.125   3.795   2.032  0.7502 -2.3282 -0.5751
 8821TIP3    H247879   4.986   3.853   2.045  2.5864  1.9091  2.0001
 8822TIP3   OH247880   4.524   1.012  10.838  0.0316 -0.4164  0.0364
 8822TIP3    H147881   4.454   1.055  10.788  1.3918  0.8402 -0.8746
 8822TIP3    H247882   4.512   0.919  10.819 -0.4693 -0.0977 -1.3447
 8823TIP3   OH247883   6.707   0.796  11.668  0.0018 -0.2172  0.3354
 8823TIP3    H147884   6.622   0.835  11.647  0.4675  0.6094 -0.0632
 8823TIP3    H247885   6.770   0.849  11.619  0.6199 -1.7538 -0.5878
 8824TIP3   OH247886   1.074   4.160   5.055 -0.2614  0.0562  0.4974
 8824TIP3    H147887   1.139   4.130   5.119  1.0293  2.5575  0.4674
 8824TIP3    H247888   1.064   4.253   5.072 -0.8550  0.5463 -2.1271
 8825TIP3   OH247889   6.251   5.770   0.087  0.2597  0.2036  0.2666
 8825TIP3    H147890   6.230   5.789  -0.004 -1.0694  2.2967  0.9519
 8825TIP3    H247891   6.303   5.844   0.117 -1.8183  1.0983  1.9741
 8826TIP3   OH247892   5.566   0.631  16.900 -0.5837  0.3776 -0.6179
 8826TIP3    H147893   5.582   0.540  16.927 -0.8730  0.6440  0.5157
 8826TIP3    H247894   5.635   0.681  16.944 -1.0842  0.8288 -0.3341
 8827TIP3   OH247895   6.100   3.941   2.561 -0.2319  0.2532 -0.3223
 8827TIP3    H147896   6.067   3.908   2.477 -0.7862  0.4084 -0.1701
 8827TIP3    H247897   6.067   3.878   2.625  0.1338  0.1743 -0.2122
 8828TIP3   OH247898   6.733   5.342  14.840  0.1589  0.4441 -0.5759
 8828TIP3    H147899   6.772   5.337  14.927 -0.2771  0.0492 -0.3975
 8828TIP3    H247900   6.643   5.371  14.856  0.0517  0.2901 -0.8878
 8829TIP3   OH247901   0.537   1.122  14.875  0.2533 -0.9023 -0.1632
 8829TIP3    H147902   0.582   1.106  14.792  0.5364  0.5541 -0.3173
 8829TIP3    H247903   0.587   1.073  14.939  1.6379  0.0678 -0.4569
 8830TIP3   OH247904   3.044   5.570   0.507  0.0520  0.0604 -0.5749
 8830TIP3    H147905   3.030   5.476   0.504  0.6153 -0.0696  0.3425
 8830TIP3    H247906   3.065   5.588   0.599 -0.4766  1.1423 -0.6453
 8831TIP3   OH247907   1.553   6.444  15.555 -1.0695 -0.0335  0.1845
 8831TIP3    H147908   1.525   6.400  15.475 -0.5104  0.3023 -0.2053
 8831TIP3    H247909   1.625   6.390  15.588 -2.3705 -1.1082  1.3910
 8832TIP3   OH247910   5.615   1.410   5.438  0.1050 -0.3205  0.1059
 8832TIP3    H147911   5.612   1.500   5.471 -0.4866 -0.2917 -0.0179
 8832TIP3    H247912   5.541   1.404   5.378 -0.9756 -1.4166  1.4675
 8833TIP3   OH247913   2.686   1.596  11.607 -0.4698 -0.2029  0.2172
 8833TIP3    H147914   2.694   1.564  11.518  0.8684 -0.6466  0.4854
 8833TIP3    H247915   2.591   1.602  11.622 -0.7088  0.3297 -1.3704
 8834TIP3   OH247916   4.795   6.148  13.281  0.0396  0.0392 -0.3905
 8834TIP3    H147917   4.879   6.191  13.268 -0.1305  0.3667 -0.4329
 8834TIP3    H247918   4.810   6.085  13.351  0.7511 -1.1364 -1.5712
 8835TIP3   OH247919   5.714   0.460  12.308  0.5957 -0.3879  0.1504
 8835TIP3    H147920   5.716   0.551  12.277  2.2254  0.0529  1.4369
 8835TIP3    H247921   5.769   0.413  12.246  0.5257 -0.3194  0.0335
 8836TIP3   OH247922   3.952   5.324   2.778  0.4945 -0.2442  0.2203
 8836TIP3    H147923   4.044   5.341   2.797  1.0700 -2.5142 -0.1940
 8836TIP3    H247924   3.952   5.290   2.688 -0.7860  0.0030  0.1044
 8837TIP3   OH247925   1.739   0.336   0.434  0.6972  1.0532 -0.1089
 8837TIP3    H147926   1.715   0.412   0.382 -2.5764  1.4602  1.7204
 8837TIP3    H247927   1.759   0.371   0.520 -0.9075 -0.0559  0.7818
 8838TIP3   OH247928   5.895   3.611  11.914 -0.2921 -0.4745  0.4586
 8838TIP3    H147929   5.906   3.519  11.888 -0.6195 -0.5910  0.7192
 8838TIP3    H247930   5.889   3.608  12.009 -0.4322 -0.1975  0.4594
 8839TIP3   OH247931   4.858   2.895   3.924  0.3404 -0.2318 -0.1488
 8839TIP3    H147932   4.931   2.844   3.959 -0.0523 -0.7404 -0.0657
 8839TIP3    H247933   4.873   2.984   3.956  1.1391 -0.2435 -0.4583
 8840TIP3   OH247934   2.592   4.262   1.642 -0.0504  0.0982  0.5487
 8840TIP3    H147935   2.559   4.173   1.656  0.8234 -0.3017  0.1782
 8840TIP3    H247936   2.526   4.303   1.587  0.5543 -1.0508 -1.1383
 8841TIP3   OH247937   5.891   0.706   3.324 -0.2277  0.5697  0.0911
 8841TIP3    H147938   5.953   0.634   3.335 -0.2731  0.2963 -1.2734
 8841TIP3    H247939   5.884   0.745   3.411  2.7405  1.3395  0.1122
 8842TIP3   OH247940   3.915   0.775  12.367  0.3727  0.3767 -0.4558
 8842TIP3    H147941   3.856   0.761  12.441 -1.3618 -1.0951 -2.0066
 8842TIP3    H247942   3.888   0.709  12.302  4.2958 -1.0229 -0.9599
 8843TIP3   OH247943   0.318   4.377  15.780  0.1186 -0.3985 -0.4007
 8843TIP3    H147944   0.320   4.344  15.690 -2.4880  1.6837 -1.3382
 8843TIP3    H247945   0.296   4.300  15.833  1.7121 -1.6567 -1.4512
 8844TIP3   OH247946   0.768   4.875  14.864 -0.0914 -0.2189 -0.2608
 8844TIP3    H147947   0.835   4.886  14.931  0.4693 -0.4853 -0.7664
 8844TIP3    H247948   0.810   4.821  14.797  0.0027  1.5051 -1.6884
 8845TIP3   OH247949   4.155   5.328  15.038 -0.3467 -0.2048 -0.3851
 8845TIP3    H147950   4.122   5.255  14.985  1.3101 -0.1110 -1.6394
 8845TIP3    H247951   4.077   5.361  15.084 -1.4461 -1.6785 -1.0897
 8846TIP3   OH247952   1.175   4.350   6.051  0.3171  0.2168 -0.1919
 8846TIP3    H147953   1.251   4.312   6.095  1.3211  0.2274 -1.8394
 8846TIP3    H247954   1.105   4.347   6.117  2.3117  2.4953  2.2673
 8847TIP3   OH247955   0.252   4.897  12.536 -0.6899  0.0573 -0.4231
 8847TIP3    H147956   0.248   4.951  12.457 -2.1048 -0.5390 -0.7716
 8847TIP3    H247957   0.167   4.855  12.542  0.0508 -1.4204  0.3644
 8848TIP3   OH247958   6.382   4.189   2.013  0.4799  0.5582 -0.1672
 8848TIP3    H147959   6.295   4.210   2.048  0.2680 -1.0167  0.3480
 8848TIP3    H247960   6.370   4.185   1.918 -0.0945  0.0628 -0.0787
 8849TIP3   OH247961   4.107   1.336  15.413  0.5262  0.2662 -0.0906
 8849TIP3    H147962   4.027   1.334  15.466  1.0128  1.4771  0.7104
 8849TIP3    H247963   4.097   1.413  15.357  0.2631 -0.6967 -1.4146
 8850TIP3   OH247964   2.975   4.917   5.563  0.0043 -0.1311  0.1579
 8850TIP3    H147965   2.895   4.941   5.516  0.2090  0.7101  0.2394
 8850TIP3    H247966   3.046   4.955   5.512  0.3328 -0.4942  0.3337
 8851TIP3   OH247967   5.119   3.237   0.972  0.3845  0.6421 -0.4016
 8851TIP3    H147968   5.201   3.208   1.011  0.5726 -1.2517 -2.0443
 8851TIP3    H247969   5.081   3.296   1.037  2.7254  1.0941  0.6584
 8852TIP3   OH247970   6.115   0.819   5.630 -0.4605  0.5556 -0.1744
 8852TIP3    H147971   6.181   0.757   5.660  0.4088  1.8984  0.8059
 8852TIP3    H247972   6.080   0.858   5.710  0.2279  2.5272 -0.7645
 8853TIP3   OH247973   3.125   0.747   4.324  0.0783  0.4926 -0.2685
 8853TIP3    H147974   3.152   0.821   4.270  1.8618 -0.9085 -1.4079
 8853TIP3    H247975   3.202   0.691   4.328 -1.7832 -2.3203 -1.1274
 8854TIP3   OH247976   0.361   6.096  15.388  0.4936  0.4681  0.7384
 8854TIP3    H147977   0.265   6.103  15.379  0.4388 -0.9095 -0.0950
 8854TIP3    H247978   0.388   6.182  15.418 -0.9705  1.0353  0.5589
 8855TIP3   OH247979   3.540   4.415  11.004  0.2804  0.0002 -0.3441
 8855TIP3    H147980   3.467   4.462  11.044 -2.1530 -1.7608 -2.4017
 8855TIP3    H247981   3.599   4.484  10.974 -0.9013  1.5239  0.6748
 8856TIP3   OH247982   4.089   2.914   5.031  0.6526  0.2465 -0.3146
 8856TIP3    H147983   4.003   2.877   5.015 -0.2643  2.3472 -0.6076
 8856TIP3    H247984   4.074   2.983   5.096  1.8309  1.6139 -1.4227
 8857TIP3   OH247985   4.358   0.537  16.772 -0.1862  0.2629  0.3933
 8857TIP3    H147986   4.412   0.506  16.700  1.1604  0.9941  1.0435
 8857TIP3    H247987   4.268   0.519  16.745  0.2270  1.2704 -1.8330
 8858TIP3   OH247988   2.169   0.482   2.490 -0.1182 -0.4232 -0.1439
 8858TIP3    H147989   2.235   0.450   2.551  0.3205  1.9525  0.7441
 8858TIP3    H247990   2.112   0.407   2.473  1.4432 -1.9014  0.8976
 8859TIP3   OH247991   3.404   1.875   0.703 -0.0088 -0.2261 -0.6369
 8859TIP3    H147992   3.380   1.870   0.610 -2.8880  1.2735 -0.0884
 8859TIP3    H247993   3.355   1.804   0.744 -1.4052  1.1245  0.1335
 8860TIP3   OH247994   6.359   0.749   4.714 -0.4569  0.0030 -0.2863
 8860TIP3    H147995   6.448   0.772   4.740  0.4559 -1.0534 -2.2848
 8860TIP3    H247996   6.356   0.654   4.719 -1.3687  0.0032 -0.5964
 8861TIP3   OH247997   2.096   1.824  13.522  0.5779  0.1465 -0.2033
 8861TIP3    H147998   2.075   1.917  13.522  1.8586  0.4523  0.0072
 8861TIP3    H247999   2.177   1.817  13.472 -0.3172 -1.0754 -1.5859
 8862TIP3   OH248000   6.206   5.690  14.991 -0.0720 -0.7374 -0.1182
 8862TIP3    H148001   6.238   5.629  14.925  0.8738 -1.2170  0.7612
 8862TIP3    H248002   6.137   5.642  15.036 -0.0137 -0.7871 -0.0826
 8863TIP3   OH248003   1.998   6.433   0.412  0.5598  0.3955 -0.3147
 8863TIP3    H148004   2.070   6.452   0.351  1.5253 -0.9827  0.3376
 8863TIP3    H248005   1.945   6.367   0.367  0.2064  0.7410 -0.4146
 8864TIP3   OH248006   5.192   3.362  15.420 -0.3209 -0.7123 -0.0439
 8864TIP3    H148007   5.132   3.409  15.363  1.9611 -0.6969 -2.6171
 8864TIP3    H248008   5.182   3.405  15.505 -1.8886  1.1292 -1.0740
 8865TIP3   OH248009   1.795   3.660   2.995  0.6131  0.0605 -0.1737
 8865TIP3    H148010   1.825   3.641   2.905  1.6569  1.6309 -0.1908
 8865TIP3    H248011   1.870   3.638   3.050  0.1221 -0.4887  0.2849
 8866TIP3   OH248012   4.224   1.315  14.446  0.2302 -0.6069  0.4138
 8866TIP3    H148013   4.214   1.220  14.434  0.2401 -0.6160  0.4774
 8866TIP3    H248014   4.138   1.344  14.476 -1.2155  0.0792 -3.7303
 8867TIP3   OH248015   3.799   4.109   1.000 -0.1255 -0.9022 -0.0997
 8867TIP3    H148016   3.892   4.087   1.010 -0.7085 -3.9617 -0.4995
 8867TIP3    H248017   3.798   4.185   0.942  2.1914  1.2413  2.3989
 8868TIP3   OH248018   4.404   0.436   2.296 -0.0080  0.3524 -0.4315
 8868TIP3    H148019   4.473   0.452   2.361  1.3897 -1.5852 -1.3360
 8868TIP3    H248020   4.447   0.449   2.212 -0.5942 -1.3087 -1.0313
 8869TIP3   OH248021   4.428   4.771  13.291 -0.3610  0.2183  0.3575
 8869TIP3    H148022   4.464   4.683  13.280 -1.4087 -0.0812 -0.9911
 8869TIP3    H248023   4.423   4.783  13.386  1.6940 -0.3485  0.5867
 8870TIP3   OH248024   0.100   1.545  16.275 -0.7125 -0.2904 -0.2310
 8870TIP3    H148025   0.128   1.528  16.185 -3.2267 -0.8576 -0.9580
 8870TIP3    H248026   0.040   1.619  16.268 -1.5011 -0.8061  0.8951
 8871TIP3   OH248027   2.687   6.462   3.686  0.5914  0.0254  0.6321
 8871TIP3    H148028   2.662   6.512   3.608  2.1598 -0.3553 -0.1408
 8871TIP3    H248029   2.620   6.394   3.693  0.6911 -0.2315 -0.6763
 8872TIP3   OH248030   1.434   5.324   4.708 -0.4502 -0.6925 -0.6324
 8872TIP3    H148031   1.515   5.294   4.749 -0.6182  0.0157  0.2754
 8872TIP3    H248032   1.446   5.309   4.615  0.7533 -0.5433 -0.5125
 8873TIP3   OH248033   2.830   5.940  15.507  0.4243 -0.0853 -0.4951
 8873TIP3    H148034   2.880   5.867  15.542  0.3051  0.3261  0.5521
 8873TIP3    H248035   2.762   5.899  15.453  0.6465 -0.7205 -0.2997
 8874TIP3   OH248036   1.514   6.196   4.881  0.3880 -0.4243  0.2144
 8874TIP3    H148037   1.545   6.237   4.800  1.1541 -2.5580 -0.6439
 8874TIP3    H248038   1.470   6.116   4.852 -1.4290 -0.0585  1.7880
 8875TIP3   OH248039   4.454   1.968   4.609 -0.1913  0.4533  0.0649
 8875TIP3    H148040   4.491   1.949   4.695  1.3119  0.8317 -0.4795
 8875TIP3    H248041   4.428   2.060   4.614  1.3142  0.9188 -0.3614
 8876TIP3   OH248042   5.350   5.390  14.908  0.0374 -0.2140 -0.0457
 8876TIP3    H148043   5.323   5.481  14.920 -1.9294 -0.3253 -2.6725
 8876TIP3    H248044   5.442   5.396  14.882 -0.0907  1.0420 -0.2977
 8877TIP3   OH248045   0.841   3.900   4.232 -0.3516 -0.1851  0.1421
 8877TIP3    H148046   0.863   3.877   4.323 -1.1581 -0.1174  0.3602
 8877TIP3    H248047   0.884   3.984   4.218 -0.0341 -0.3029  0.3872
 8878TIP3   OH248048   2.770   3.723   1.173 -0.1077 -0.2608 -0.0866
 8878TIP3    H148049   2.685   3.683   1.191 -0.6335 -0.1339 -2.1387
 8878TIP3    H248050   2.811   3.664   1.109  0.1329  1.1654 -1.2814
 8879TIP3   OH248051   5.555   2.162  16.720 -0.1751  0.4904 -0.1741
 8879TIP3    H148052   5.580   2.110  16.796  0.2897  1.0821  0.0887
 8879TIP3    H248053   5.490   2.108  16.674 -1.5630  0.7411  1.4038
 8880TIP3   OH248054   5.077   2.052   2.645 -0.5260 -0.5440  0.1710
 8880TIP3    H148055   5.143   2.026   2.581 -0.1350 -1.3525  0.8690
 8880TIP3    H248056   5.026   1.972   2.661 -0.5052 -0.4112  0.9773
 8881TIP3   OH248057   1.835   1.532  15.676  0.4298  0.6419  0.9166
 8881TIP3    H148058   1.866   1.474  15.745  2.6170  1.8739  1.0469
 8881TIP3    H248059   1.772   1.590  15.719  1.4566  1.1248  1.8069
 8882TIP3   OH248060   4.489   4.089   5.157 -0.2744  0.3760  0.2823
 8882TIP3    H148061   4.544   4.159   5.192  0.2869  0.3824 -0.5849
 8882TIP3    H248062   4.495   4.019   5.222  1.8189 -0.1282 -0.3834
 8883TIP3   OH248063   2.831   6.395   6.039  0.1337 -0.2017 -0.0296
 8883TIP3    H148064   2.894   6.436   6.098 -0.0289  1.3125 -0.8637
 8883TIP3    H248065   2.782   6.468   6.002 -0.9441 -1.2421 -0.7110
 8884TIP3   OH248066   5.775   2.665   1.585  0.0940 -0.1082  0.1254
 8884TIP3    H148067   5.861   2.624   1.594  0.0547 -0.0508  0.7934
 8884TIP3    H248068   5.718   2.595   1.554  0.2778 -0.2687  0.1477
 8885TIP3   OH248069   6.075   5.905  16.833 -0.2039 -0.3009  0.0442
 8885TIP3    H148070   6.144   5.847  16.801 -0.3925 -0.5440  0.0722
 8885TIP3    H248071   6.120   5.968  16.888  0.1717  0.3092 -0.9304
 8886TIP3   OH248072   2.913   2.780  12.505  0.5419  0.2424 -0.4714
 8886TIP3    H148073   2.967   2.842  12.457  0.4233 -0.1270 -1.0960
 8886TIP3    H248074   2.841   2.759  12.445  0.6308 -0.5696 -0.3110
 8887TIP3   OH248075   1.991   3.754   5.969 -0.3839 -0.5312 -0.1825
 8887TIP3    H148076   1.925   3.808   6.012 -1.0333 -1.9963  0.7350
 8887TIP3    H248077   2.062   3.746   6.033 -0.5601 -1.2364 -0.0613
 8888TIP3   OH248078   0.696   3.178   4.453  0.0105 -0.4273  0.5795
 8888TIP3    H148079   0.717   3.113   4.386  0.5638 -1.5128  1.7372
 8888TIP3    H248080   0.776   3.183   4.506 -1.1295 -1.3362  2.4927
 8889TIP3   OH248081   5.005   5.652  15.537 -0.0793  0.3674  0.1923
 8889TIP3    H148082   4.963   5.588  15.479 -1.3887  1.1817  0.1918
 8889TIP3    H248083   4.932   5.693  15.583  0.8804  0.2392  1.9167
 8890TIP3   OH248084   5.560   0.411  12.544 -0.6157  0.2955 -0.0869
 8890TIP3    H148085   5.618   0.472  12.589 -1.2268  0.9705 -0.1909
 8890TIP3    H248086   5.605   0.390  12.462 -0.2659  0.3752  0.0880
 8891TIP3   OH248087   5.096   4.123   0.045  0.0763  0.2479 -0.5623
 8891TIP3    H148088   5.021   4.064   0.043  0.8095 -0.7067 -0.8711
 8891TIP3    H248089   5.073   4.194  -0.014 -0.6424  0.0448 -0.5329
 8892TIP3   OH248090   1.592   0.433  14.925 -0.3195 -0.3180  0.6899
 8892TIP3    H148091   1.681   0.410  14.897 -0.5986 -0.3448 -0.1975
 8892TIP3    H248092   1.564   0.359  14.979 -0.5205 -1.2391 -0.6324
 8893TIP3   OH248093   0.515   0.468   4.363  0.4424 -0.2163  0.4574
 8893TIP3    H148094   0.495   0.375   4.351  1.2841 -0.4786  0.9911
 8893TIP3    H248095   0.605   0.478   4.331  0.0274  0.6268 -0.5139
 8894TIP3   OH248096   0.217   2.906  13.266 -0.4584 -0.1243  0.0507
 8894TIP3    H148097   0.124   2.918  13.284 -0.6553  0.0030 -0.9971
 8894TIP3    H248098   0.221   2.826  13.212  0.2739 -1.5172  2.0255
 8895TIP3   OH248099   2.300   3.721   1.948  0.2665  0.1776  0.1352
 8895TIP3    H148100   2.214   3.748   1.916 -0.8793  0.2348  2.9456
 8895TIP3    H248101   2.295   3.625   1.950 -1.0057  0.2109  3.1556
 8896TIP3   OH248102   1.139   6.409  16.003  0.0940 -0.5245 -0.2160
 8896TIP3    H148103   1.074   6.462  16.049 -0.7264 -1.3150 -0.4406
 8896TIP3    H248104   1.145   6.450  15.916 -0.6992 -0.9155 -0.4640
 8897TIP3   OH248105   0.222   5.763  16.619  0.5271  0.1677  0.3663
 8897TIP3    H148106   0.173   5.767  16.701  0.8776 -0.7057  0.6355
 8897TIP3    H248107   0.178   5.695  16.568 -0.6267  1.7543 -0.8214
 8898TIP3   OH248108   1.687   6.121   0.965  0.2752 -0.3075 -0.0202
 8898TIP3    H148109   1.744   6.049   0.992 -1.2873 -1.1019  1.3054
 8898TIP3    H248110   1.747   6.187   0.931  2.0779 -0.7061  2.1644
 8899TIP3   OH248111   1.132   5.395   2.676 -0.1843 -0.2550 -0.0384
 8899TIP3    H148112   1.088   5.340   2.741  0.3383 -1.4630 -0.6860
 8899TIP3    H248113   1.062   5.426   2.619 -0.4752 -0.2596  0.3106
 8900TIP3   OH248114   0.650   1.771   0.714 -0.0306  0.2732 -0.2027
 8900TIP3    H148115   0.717   1.765   0.782 -0.3004 -2.7612 -0.1079
 8900TIP3    H248116   0.699   1.791   0.634  0.9961 -1.4167 -0.0436
 8901TIP3   OH248117   3.550   5.005  14.900  0.5754  0.3817 -0.8652
 8901TIP3    H148118   3.520   4.998  14.810 -1.4276 -0.5000 -0.1909
 8901TIP3    H248119   3.589   4.919  14.920  0.1443  0.2445 -0.6061
 8902TIP3   OH248120   2.716   0.725  14.918  0.1083  0.0095  0.0203
 8902TIP3    H148121   2.751   0.730  14.829 -0.8146 -2.1654 -0.5422
 8902TIP3    H248122   2.788   0.688  14.969  0.1090 -0.2851 -0.1878
 8903TIP3   OH248123   5.429   6.111   3.161  0.0449 -0.2334 -0.3059
 8903TIP3    H148124   5.453   6.031   3.208 -0.4170 -0.3420 -0.2523
 8903TIP3    H248125   5.381   6.080   3.084  0.8129 -0.0552 -0.8662
 8904TIP3   OH248126   5.531   5.169   3.933  0.2747  0.5040  0.6461
 8904TIP3    H148127   5.565   5.227   4.001  1.0468  0.7414  0.0595
 8904TIP3    H248128   5.549   5.215   3.851 -0.9656  0.3854  0.2800
 8905TIP3   OH248129   1.157   0.415   0.984 -0.4089  0.3752 -0.3510
 8905TIP3    H148130   1.116   0.416   0.898  0.4215  0.6198 -0.7612
 8905TIP3    H248131   1.148   0.325   1.014 -1.2607  0.4324 -0.4126
 8906TIP3   OH248132   4.605   1.563   0.933 -0.0234  1.0576  0.2735
 8906TIP3    H148133   4.696   1.592   0.924  0.4315 -0.0394  1.1071
 8906TIP3    H248134   4.610   1.468   0.930 -1.1325  0.9831  0.5172
 8907TIP3   OH248135   5.980   3.836   2.286  0.1343 -0.5101 -0.3469
 8907TIP3    H148136   6.052   3.775   2.270 -0.0658 -0.4849 -1.4370
 8907TIP3    H248137   5.904   3.795   2.243 -0.8729 -1.2163  1.9431
 8908TIP3   OH248138   4.218   6.507   1.788 -0.3827 -0.5210 -0.4568
 8908TIP3    H148139   4.142   6.469   1.831  0.1276 -0.8432  0.1736
 8908TIP3    H248140   4.208   6.484   1.696 -1.8709  0.8080 -0.6616
 8909TIP3   OH248141   4.385   5.159   4.437 -0.7462 -0.6262 -0.4082
 8909TIP3    H148142   4.352   5.221   4.372 -0.9066 -0.2340  0.0329
 8909TIP3    H248143   4.432   5.093   4.387  3.7150  2.3435 -0.7273
 8910TIP3   OH248144   6.518   4.800   0.696  0.0452 -0.3566 -1.0166
 8910TIP3    H148145   6.503   4.877   0.641  2.4646  1.6665  0.8972
 8910TIP3    H248146   6.510   4.833   0.786 -0.4917 -2.7670 -0.0907
 8911TIP3   OH248147   1.520   4.867  16.396 -0.3976  0.5088 -0.3284
 8911TIP3    H148148   1.480   4.782  16.379 -1.0910  0.8504 -0.3980
 8911TIP3    H248149   1.614   4.850  16.392 -0.4259 -0.8207  2.1816
 8912TIP3   OH248150   5.889   4.850   5.075  0.0581  0.0828  0.5022
 8912TIP3    H148151   5.900   4.769   5.026 -1.7254 -0.1799  0.4496
 8912TIP3    H248152   5.877   4.917   5.007 -0.9976 -0.0499  0.5377
 8913TIP3   OH248153   1.481   1.223   0.219  0.0748  0.4249 -0.3491
 8913TIP3    H148154   1.506   1.295   0.277  0.6030 -0.2038  0.2301
 8913TIP3    H248155   1.521   1.146   0.259  0.2825 -0.0600 -1.4510
 8914TIP3   OH248156   6.250   5.582  11.540 -0.1282  0.3379  0.0958
 8914TIP3    H148157   6.246   5.653  11.604  1.0289  0.7155 -0.2192
 8914TIP3    H248158   6.286   5.624  11.461 -1.5726 -0.1041 -0.8309
 8915TIP3   OH248159   5.768   4.399   0.043  0.2634  0.8789  0.3335
 8915TIP3    H148160   5.858   4.372   0.062 -0.1106  0.0592  1.0020
 8915TIP3    H248161   5.719   4.374   0.120 -0.3582  2.3548  0.4551
 8916TIP3   OH248162   1.084   3.032  14.748 -0.0583 -0.4307 -0.0141
 8916TIP3    H148163   1.075   2.995  14.660  1.8893  1.0874 -0.9162
 8916TIP3    H248164   1.151   2.979  14.790  0.1260 -0.2069 -0.0191
 8917TIP3   OH248165   4.841   4.577  17.339  0.0117  0.0852 -0.3099
 8917TIP3    H148166   4.865   4.586  17.431  2.1565  0.4772 -0.8562
 8917TIP3    H248167   4.782   4.502  17.337 -0.1337  0.1134  1.3801
 8918TIP3   OH248168   4.157   0.799  11.928 -0.1630  0.2839  0.1232
 8918TIP3    H148169   4.128   0.713  11.897 -0.6787  0.5955 -0.2933
 8918TIP3    H248170   4.087   0.829  11.986  1.0636 -0.5405  2.1127
 8919TIP3   OH248171   4.907   4.328   4.668  0.0102 -0.3719  0.0991
 8919TIP3    H148172   4.831   4.385   4.682 -1.3126 -1.7711 -0.9834
 8919TIP3    H248173   4.879   4.268   4.599  1.6598 -1.7575  0.5639
 8920TIP3   OH248174   0.978   6.163   1.200  0.1695 -0.1847 -0.0716
 8920TIP3    H148175   0.946   6.253   1.194  1.4735  0.2426 -1.1893
 8920TIP3    H248176   0.957   6.124   1.115 -0.8889 -1.1430  0.5982
 8921TIP3   OH248177   3.124   4.821   3.905  0.1150 -0.3386  0.2111
 8921TIP3    H148178   3.216   4.817   3.881 -0.4291  0.0323 -2.1158
 8921TIP3    H248179   3.090   4.898   3.860 -1.3631 -0.5206  0.9462
 8922TIP3   OH248180   6.138   6.326  16.216 -0.1227  0.2673 -0.0543
 8922TIP3    H148181   6.097   6.375  16.145 -0.4805 -1.1589 -0.8800
 8922TIP3    H248182   6.182   6.253  16.172  1.0694  0.2827  1.0615
 8923TIP3   OH248183   1.970   0.584  11.917  0.0188 -0.2878 -0.3074
 8923TIP3    H148184   1.888   0.628  11.894 -0.9947 -1.2209  1.3355
 8923TIP3    H248185   1.947   0.491  11.922  0.7946 -0.4227  1.6296
 8924TIP3   OH248186   0.911   4.864   3.107  1.0424  0.1877 -0.0172
 8924TIP3    H148187   0.944   4.794   3.051  2.2551 -0.0494  0.9307
 8924TIP3    H248188   0.984   4.926   3.112  0.1005  1.3622 -0.5663
 8925TIP3   OH248189   6.152   1.242   3.174 -0.1237 -0.1187 -0.0810
 8925TIP3    H148190   6.087   1.312   3.177  0.7385  0.7998 -1.4922
 8925TIP3    H248191   6.163   1.215   3.265 -0.5845  1.5122  0.4881
 8926TIP3   OH248192   1.309   5.785  13.461  0.6291  0.2725 -0.5509
 8926TIP3    H148193   1.390   5.835  13.469  1.2613 -0.9311  1.0425
 8926TIP3    H248194   1.268   5.791  13.548  0.6284 -1.7494 -0.3702
 8927TIP3   OH248195   6.572   1.042   1.242  0.7306 -0.3917 -0.5003
 8927TIP3    H148196   6.624   1.121   1.233  1.1649 -0.5547  0.4633
 8927TIP3    H248197   6.529   1.031   1.157  2.8973 -0.7188 -1.6124
 8928TIP3   OH248198   2.287   0.891  12.102 -0.0366 -0.1186  0.4753
 8928TIP3    H148199   2.271   0.800  12.079 -0.5909 -0.0471  0.5735
 8928TIP3    H248200   2.293   0.936  12.018 -0.7543 -0.0798  0.4370
 8929TIP3   OH248201   3.565   2.111  13.349  0.3407 -0.5787 -0.0711
 8929TIP3    H148202   3.584   2.106  13.255 -0.0560 -1.4077 -0.1157
 8929TIP3    H248203   3.481   2.156  13.355  1.6099  1.9407  0.0588
 8930TIP3   OH248204   1.037   6.483   5.912 -1.0631  0.3660 -1.2670
 8930TIP3    H148205   1.004   6.540   5.982  0.9321 -2.6253  2.4652
 8930TIP3    H248206   0.985   6.403   5.920  1.8707 -1.5783 -0.2898
 8931TIP3   OH248207   3.861   3.249   1.648 -0.1907  0.1377  0.2603
 8931TIP3    H148208   3.788   3.188   1.660 -1.4594  1.7148  0.8766
 8931TIP3    H248209   3.821   3.336   1.651  1.5933  1.0354 -0.3699
 8932TIP3   OH248210   1.664   4.808  15.293 -0.0653  0.1978 -0.0373
 8932TIP3    H148211   1.670   4.717  15.321  0.3834  0.8837  2.3092
 8932TIP3    H248212   1.750   4.845  15.313 -0.7154  1.4947  0.4998
 8933TIP3   OH248213   4.270   0.063   1.019 -0.4965 -0.5285  0.1332
 8933TIP3    H148214   4.193   0.037   1.071 -0.6266  0.8332  0.6859
 8933TIP3    H248215   4.234   0.116   0.948 -0.0428  0.7711  0.8342
 8934TIP3   OH248216   6.603   4.092   4.716  0.3996  0.3435  0.2671
 8934TIP3    H148217   6.606   4.078   4.811  1.3627 -1.4180  0.0088
 8934TIP3    H248218   6.586   4.186   4.707 -2.3298  0.1443  2.1686
 8935TIP3   OH248219   2.170   4.840  12.630 -0.7759  0.6648  0.5868
 8935TIP3    H148220   2.257   4.831  12.668 -1.1899 -0.6861  1.2669
 8935TIP3    H248221   2.181   4.905  12.561  1.5006 -1.7385 -1.5476
 8936TIP3   OH248222   5.219   1.791   3.336 -0.0165  0.3441  0.3014
 8936TIP3    H148223   5.306   1.818   3.364 -0.1412 -0.2236  1.3136
 8936TIP3    H248224   5.162   1.864   3.358  0.0979  0.4335  0.2982
 8937TIP3   OH248225   5.680   3.506   4.205  0.2995  0.1430  0.0208
 8937TIP3    H148226   5.677   3.588   4.255  0.4708 -0.1847  0.5858
 8937TIP3    H248227   5.681   3.533   4.114 -1.3096  0.7350  0.1466
 8938TIP3   OH248228   1.343   3.107  15.567 -0.3299  0.5344  0.0204
 8938TIP3    H148229   1.399   3.178  15.536  1.1606 -0.9188 -0.8258
 8938TIP3    H248230   1.344   3.115  15.662 -1.9327  2.8560 -0.0769
 8939TIP3   OH248231   0.650   0.296   4.962  0.1545  0.4520  0.1545
 8939TIP3    H148232   0.693   0.212   4.974 -1.5168 -0.4384  0.1653
 8939TIP3    H248233   0.695   0.336   4.888  0.0553 -1.0864 -0.7717
 8940TIP3   OH248234   6.175   5.290  12.199 -0.2188 -0.2017 -0.0629
 8940TIP3    H148235   6.116   5.261  12.268 -1.1191  0.0617 -0.7133
 8940TIP3    H248236   6.119   5.332  12.135  0.6740  0.0357 -0.7084
 8941TIP3   OH248237   2.327   3.761   1.196  0.3583  0.3782  0.4672
 8941TIP3    H148238   2.412   3.722   1.175  0.4568  1.7459 -1.9450
 8941TIP3    H248239   2.265   3.690   1.182  0.7512  0.3943 -1.6927
 8942TIP3   OH248240   4.768   5.897   5.586  0.3701  0.0436 -0.2266
 8942TIP3    H148241   4.771   5.829   5.653  0.1655  1.3473  1.1518
 8942TIP3    H248242   4.702   5.958   5.617  0.8979  1.1264 -1.1799
 8943TIP3   OH248243   4.259   5.716  13.094  0.3012  0.0020  0.0009
 8943TIP3    H148244   4.211   5.799  13.101 -2.5632 -1.7048  2.5644
 8943TIP3    H248245   4.288   5.697  13.183  1.3653 -1.5524 -0.6315
 8944TIP3   OH248246   3.981   1.283  13.006 -0.1744  0.5321 -0.0073
 8944TIP3    H148247   3.926   1.207  13.022  1.6774 -1.1921 -1.4131
 8944TIP3    H248248   4.045   1.282  13.077 -1.3600  2.0507  1.1514
 8945TIP3   OH248249   6.133   6.261   2.198 -0.0603 -0.0331  0.1378
 8945TIP3    H148250   6.215   6.290   2.237  0.4387 -1.4546  0.2247
 8945TIP3    H248251   6.065   6.291   2.259  0.6160 -1.2126  1.5669
 8946TIP3   OH248252   3.672   5.203  12.731 -0.1300  0.4205 -1.0592
 8946TIP3    H148253   3.680   5.262  12.655 -1.1408  1.1685 -0.5988
 8946TIP3    H248254   3.592   5.231  12.775  0.4035 -0.0506  0.2563
 8947TIP3   OH248255   0.799   3.978  14.873  0.0917  0.4642  0.7146
 8947TIP3    H148256   0.725   4.021  14.917 -0.8962 -0.4151 -0.0276
 8947TIP3    H248257   0.876   4.024  14.905 -0.6009  0.1421  3.0187
 8948TIP3   OH248258   4.813   1.268  11.706  0.0014 -0.0716 -0.1984
 8948TIP3    H148259   4.735   1.221  11.736 -0.9467  0.5220 -1.6524
 8948TIP3    H248260   4.885   1.208  11.726 -0.7558 -0.4563  1.5419
 8949TIP3   OH248261   2.231   1.692  16.727  0.3755  0.2020 -0.2652
 8949TIP3    H148262   2.202   1.630  16.660 -3.8456  0.3839  1.0964
 8949TIP3    H248263   2.238   1.640  16.807  1.4837  0.6969 -0.0162
 8950TIP3   OH248264   3.315   2.637   1.998  0.0641  0.0084  0.4472
 8950TIP3    H148265   3.275   2.550   1.991 -0.8149  0.4098  0.4353
 8950TIP3    H248266   3.329   2.664   1.907 -1.6153  0.7608  0.3888
 8951TIP3   OH248267   4.225   4.342  17.193 -0.2727  0.4819  0.2574
 8951TIP3    H148268   4.213   4.326  17.286 -3.2035 -0.0584 -0.1041
 8951TIP3    H248269   4.190   4.263  17.151  0.3983  0.9878 -1.3226
 8952TIP3   OH248270   2.767   3.378  12.532  0.1953 -0.4938  0.2955
 8952TIP3    H148271   2.711   3.454  12.514 -0.8281 -0.9019  1.5159
 8952TIP3    H248272   2.845   3.393  12.480 -1.0418  0.1061 -1.5134
 8953TIP3   OH248273   5.791   4.240  14.424  0.8889  0.1321  0.1194
 8953TIP3    H148274   5.842   4.318  14.403  1.5478 -0.6469 -1.3416
 8953TIP3    H248275   5.778   4.196  14.339  0.6579 -1.4021  0.9066
 8954TIP3   OH248276   5.023   0.556   2.351 -0.2141 -0.6528 -0.7524
 8954TIP3    H148277   4.933   0.522   2.356 -0.3317 -0.4279 -1.2785
 8954TIP3    H248278   5.062   0.531   2.434 -0.7801 -0.7134 -0.4956
 8955TIP3   OH248279   3.406   5.545   3.761  0.1542 -0.0042  0.3898
 8955TIP3    H148280   3.445   5.572   3.844 -0.8009  0.1574  0.7881
 8955TIP3    H248281   3.312   5.544   3.777  0.0435 -2.0562 -0.0522
 8956TIP3   OH248282   3.629   4.342   3.349  0.0380  0.7669  0.2036
 8956TIP3    H148283   3.669   4.255   3.339  0.0192  0.8541 -0.7718
 8956TIP3    H248284   3.597   4.363   3.261 -0.8884  1.3162  0.6606
 8957TIP3   OH248285   3.889   5.242   3.747 -0.1653 -0.3745  0.9061
 8957TIP3    H148286   3.973   5.199   3.735 -0.4175 -0.4897 -0.6782
 8957TIP3    H248287   3.911   5.333   3.768  0.3745 -0.1288 -0.6324
 8958TIP3   OH248288   0.028   4.669  11.744 -0.3964 -0.5925  0.4479
 8958TIP3    H148289  -0.041   4.735  11.733  0.8560  0.6682 -0.2712
 8958TIP3    H248290   0.106   4.720  11.766  0.4417 -1.9196  0.6372
 8959TIP3   OH248291   5.192   5.355   3.745  0.6395  0.1697  0.0374
 8959TIP3    H148292   5.158   5.398   3.823 -3.0378  0.2868 -1.4549
 8959TIP3    H248293   5.205   5.264   3.771  1.4775  0.6220  1.2784
 8960TIP3   OH248294   5.731   1.425  17.222  0.1191  0.3092 -0.7643
 8960TIP3    H148295   5.697   1.437  17.311 -0.9878 -2.2314 -0.7476
 8960TIP3    H248296   5.823   1.401  17.234 -0.5785 -2.3621 -0.0237
 8961TIP3   OH248297   3.038   5.268   5.577 -0.0362 -0.3825  0.2610
 8961TIP3    H148298   3.089   5.192   5.549 -0.6361 -0.4829 -0.5840
 8961TIP3    H248299   2.984   5.289   5.502  1.4398  2.0475 -0.2175
 8962TIP3   OH248300   3.344   1.809   3.941  0.0207 -0.4709  0.1740
 8962TIP3    H148301   3.312   1.774   3.858 -0.9018  1.8634 -0.5380
 8962TIP3    H248302   3.303   1.754   4.008  0.2279 -1.9467 -0.8538
 8963TIP3   OH248303   0.543   1.446   0.819  0.0363 -0.1232  0.3281
 8963TIP3    H148304   0.616   1.393   0.786 -0.0881 -0.6300  0.8574
 8963TIP3    H248305   0.521   1.504   0.746  0.9684  0.0366  0.1617
 8964TIP3   OH248306   2.995   4.777   0.688  0.0854  0.2587 -0.7945
 8964TIP3    H148307   2.929   4.729   0.739  0.0169  2.8245  1.7458
 8964TIP3    H248308   3.054   4.708   0.656 -1.7039 -1.7713 -0.0203
 8965TIP3   OH248309   4.828   2.057  13.443  0.0924  0.0915 -0.3862
 8965TIP3    H148310   4.873   2.108  13.376  0.1481 -0.1379 -0.5235
 8965TIP3    H248311   4.762   2.008  13.395 -1.0848  1.2845 -0.0540
 8966TIP3   OH248312   6.392   0.765  11.640 -0.0200  0.1443 -0.3547
 8966TIP3    H148313   6.429   0.746  11.554  2.0515  0.1303  0.4649
 8966TIP3    H248314   6.360   0.680  11.671  0.3512 -0.1063 -0.6381
 8967TIP3   OH248315   3.392   4.613  12.291  0.2612  0.1321  0.4884
 8967TIP3    H148316   3.448   4.614  12.213  0.1370 -3.1296  0.2413
 8967TIP3    H248317   3.310   4.574  12.261 -0.9978  1.7763  1.6037
 8968TIP3   OH248318   2.628   6.639   0.313 -0.6966 -0.4071  0.2101
 8968TIP3    H148319   2.559   6.706   0.313 -0.2919  0.0173 -0.5052
 8968TIP3    H248320   2.618   6.596   0.398  0.1411  1.7287  1.4916
 8969TIP3   OH248321   0.187   4.385   3.544 -0.2909 -0.4558  0.6536
 8969TIP3    H148322   0.194   4.372   3.638  1.4446 -1.6105  0.4112
 8969TIP3    H248323   0.145   4.471   3.535  2.2566  1.1477  2.5339
 8970TIP3   OH248324   5.248   5.211  16.513  0.0033  0.6070 -0.3906
 8970TIP3    H148325   5.315   5.276  16.537 -0.0295  0.1271  1.1018
 8970TIP3    H248326   5.235   5.159  16.592 -1.2637 -0.0959 -1.0206
 8971TIP3   OH248327   3.256   4.860   4.165  0.4307 -0.0626 -0.1443
 8971TIP3    H148328   3.300   4.933   4.122  0.9727 -1.0755 -1.3677
 8971TIP3    H248329   3.200   4.822   4.098 -1.6059  0.5782  1.1144
 8972TIP3   OH248330   6.008   6.579   5.628  0.3509 -0.4585  0.2309
 8972TIP3    H148331   5.917   6.609   5.638  0.3603 -0.9536  2.2491
 8972TIP3    H248332   6.042   6.630   5.555 -1.4734 -0.0945 -0.4398
 8973TIP3   OH248333   2.521   4.221   1.335 -0.4449 -0.2779  0.3529
 8973TIP3    H148334   2.587   4.157   1.312  0.2372  0.2612  0.7810
 8973TIP3    H248335   2.446   4.200   1.279  1.3328  1.3732 -2.8793
 8974TIP3   OH248336   1.463   0.533   1.360 -0.0636  0.6177 -0.2737
 8974TIP3    H148337   1.495   0.539   1.450 -0.7027 -0.8693  0.0781
 8974TIP3    H248338   1.399   0.604   1.353  0.0102  0.7633  0.4370
 8975TIP3   OH248339   1.134   0.993  11.950 -0.0050 -0.0788 -0.2951
 8975TIP3    H148340   1.058   0.972  12.004 -1.0824  2.0192 -0.9097
 8975TIP3    H248341   1.199   1.028  12.012 -0.3087  0.0216 -0.0323
 8976TIP3   OH248342   3.043   5.557   1.267  0.1638  0.1820  0.1435
 8976TIP3    H148343   3.131   5.590   1.251 -0.0066 -0.7216 -3.1904
 8976TIP3    H248344   3.052   5.462   1.267 -0.5684  0.0676  1.8553
 8977TIP3   OH248345   2.377   4.483  12.791  0.6695 -0.5340 -0.3832
 8977TIP3    H148346   2.455   4.433  12.814  1.4550  0.0812 -1.6760
 8977TIP3    H248347   2.305   4.421  12.805  1.1609 -0.6238  2.4214
 8978TIP3   OH248348   3.625   1.217  14.626  0.4310  0.6776  0.0399
 8978TIP3    H148349   3.651   1.126  14.645  1.4305  1.3491  2.3856
 8978TIP3    H248350   3.651   1.231  14.536 -1.7345 -1.9807 -1.1454
 8979TIP3   OH248351   0.314   3.351  16.660 -0.0136 -0.0555 -0.0684
 8979TIP3    H148352   0.403   3.368  16.627  0.6342 -0.7226  1.2783
 8979TIP3    H248353   0.262   3.337  16.581  1.2092 -0.2749 -0.8641
 8980TIP3   OH248354   5.395   4.830   2.797 -0.8627 -0.0385 -0.5834
 8980TIP3    H148355   5.397   4.799   2.706 -1.3926 -1.1039 -0.2423
 8980TIP3    H248356   5.430   4.757   2.848 -0.5134  0.5776  0.0719
 8981TIP3   OH248357   2.625   1.488  12.175 -0.4379 -0.3860 -0.6669
 8981TIP3    H148358   2.551   1.521  12.123 -0.2818 -0.5836 -1.0102
 8981TIP3    H248359   2.631   1.395  12.153 -0.9896 -0.7025  0.4424
 8982TIP3   OH248360   1.378   2.153   4.363 -0.2434  0.3117 -0.2808
 8982TIP3    H148361   1.373   2.121   4.453  0.9471  0.1789 -0.2392
 8982TIP3    H248362   1.472   2.168   4.349 -0.4065  0.2427 -1.5317
 8983TIP3   OH248363   3.497   6.022   2.398  0.5179  0.3058 -0.1284
 8983TIP3    H148364   3.432   6.091   2.384  1.2850  1.0659 -0.0858
 8983TIP3    H248365   3.472   5.952   2.339  0.4683  1.1668 -1.1542
 8984TIP3   OH248366   5.429   5.010  16.198 -0.7744  0.5805 -0.3141
 8984TIP3    H148367   5.368   5.030  16.127  0.7441  1.1710 -1.5062
 8984TIP3    H248368   5.466   5.094  16.224 -1.9298  0.4939  1.8290
 8985TIP3   OH248369   1.970   6.385  14.652  0.1151  0.2150 -0.2287
 8985TIP3    H148370   1.900   6.325  14.627  1.5206 -1.4782 -0.2875
 8985TIP3    H248371   2.050   6.339  14.628  1.2650  2.2214 -0.4520
 8986TIP3   OH248372   0.849   4.643  12.946  0.4036  0.1164  0.3732
 8986TIP3    H148373   0.808   4.634  12.860  3.3804 -0.0380 -1.1803
 8986TIP3    H248374   0.918   4.708  12.933  0.5958  0.4911  2.8107
 8987TIP3   OH248375   6.176   1.979   1.098 -0.7072 -0.4677  0.1018
 8987TIP3    H148376   6.204   2.071   1.098 -0.9466 -0.3765 -1.0711
 8987TIP3    H248377   6.098   1.979   1.042  0.6507 -1.7708 -1.9141
 8988TIP3   OH248378   5.303   5.431  17.278  0.3834  0.2247  0.2725
 8988TIP3    H148379   5.322   5.415  17.371 -0.1418 -0.6153  0.2475
 8988TIP3    H248380   5.219   5.388  17.263  1.6366 -1.9171 -1.1968
 8989TIP3   OH248381   3.841   5.702  15.359  0.1330  0.2437 -0.0141
 8989TIP3    H148382   3.794   5.622  15.381 -0.5490  0.3197 -1.1154
 8989TIP3    H248383   3.930   5.688  15.392  0.1457 -1.1574 -0.6089
 8990TIP3   OH248384   0.892   3.189   3.466  0.6456  0.4948 -0.1522
 8990TIP3    H148385   0.902   3.109   3.415  1.2689  0.3339  0.2001
 8990TIP3    H248386   0.798   3.205   3.469  0.5837  0.4182 -1.1988
 8991TIP3   OH248387   1.861   3.243   1.113  0.8684 -0.3178 -0.2875
 8991TIP3    H148388   1.794   3.178   1.089 -0.2679  0.6372  0.1959
 8991TIP3    H248389   1.843   3.318   1.055  2.6254 -0.6654 -1.3608
 8992TIP3   OH248390   5.936   1.063  17.168 -0.7259  0.3568  0.1795
 8992TIP3    H148391   5.843   1.073  17.146 -0.7133  1.4270  0.5974
 8992TIP3    H248392   5.974   1.022  17.090 -0.9355  2.8306 -1.3130
 8993TIP3   OH248393   5.120   3.290  16.488 -0.0807  0.0921 -0.7181
 8993TIP3    H148394   5.103   3.210  16.538 -0.2436  0.6350  0.1127
 8993TIP3    H248395   5.053   3.290  16.420  0.4869 -0.9425 -1.3087
 8994TIP3   OH248396   5.869   3.321   4.326  0.1223  0.1499  0.2198
 8994TIP3    H148397   5.820   3.239   4.323 -0.1487  0.2792  0.8832
 8994TIP3    H248398   5.808   3.387   4.293  0.2349  0.1334 -0.0213
 8995TIP3   OH248399   5.704   6.048  14.197  0.0288 -0.0830 -0.1579
 8995TIP3    H148400   5.693   5.956  14.223 -0.6452 -0.2532 -0.9794
 8995TIP3    H248401   5.691   6.047  14.102 -0.7162  0.9817 -0.0742
 8996TIP3   OH248402   6.522   1.957   2.366 -0.3763 -0.1694  0.0258
 8996TIP3    H148403   6.501   1.868   2.392  1.6101 -0.8394 -0.4646
 8996TIP3    H248404   6.598   1.980   2.420 -0.4553  0.9737 -0.3310
 8997TIP3   OH248405   5.076   3.039  16.809 -0.4508  0.0771 -0.0778
 8997TIP3    H148406   4.998   2.989  16.833  0.7388 -3.2911 -2.5595
 8997TIP3    H248407   5.079   3.034  16.714  2.4849  0.5724 -0.0816
 8998TIP3   OH248408   4.980   1.378   3.186 -0.1799 -0.3749  0.0325
 8998TIP3    H148409   5.061   1.429   3.188 -1.2949  1.4585  1.1648
 8998TIP3    H248410   4.992   1.311   3.254  0.3556 -0.0674  0.2487
 8999TIP3   OH248411   0.123   0.575   5.997  0.2376 -0.2605  0.1577
 8999TIP3    H148412   0.211   0.558   5.962 -0.7298  0.5163 -2.9690
 8999TIP3    H248413   0.079   0.490   5.992 -0.5013  0.1958 -2.6802
 9000TIP3   OH248414   0.654   6.452  11.838  0.0424  0.2937 -0.7740
 9000TIP3    H148415   0.628   6.478  11.749 -0.9622  1.7317 -0.0837
 9000TIP3    H248416   0.661   6.356  11.833 -0.2110  0.3269 -2.3467
 9001TIP3   OH248417   6.215   5.704  11.801  0.5999 -0.0429 -0.2845
 9001TIP3    H148418   6.137   5.755  11.825  0.8885 -0.1922  1.0729
 9001TIP3    H248419   6.209   5.624  11.854  1.2273 -0.4626 -0.8224
 9002TIP3   OH248420   6.538   3.433   2.540 -0.2480 -0.1969 -0.1821
 9002TIP3    H148421   6.617   3.382   2.551 -0.6967 -1.8240 -3.2278
 9002TIP3    H248422   6.512   3.418   2.448 -3.5156  1.0530  0.3743
 9003TIP3   OH248423   0.970   2.974   3.335 -0.3265 -0.2296  0.1407
 9003TIP3    H148424   0.965   2.924   3.254  1.4512  0.7149 -0.6099
 9003TIP3    H248425   1.040   2.932   3.385  1.4100  1.5843 -0.6337
 9004TIP3   OH248426   1.643   6.749   1.144 -0.1123  0.4336 -0.3337
 9004TIP3    H148427   1.734   6.741   1.170  0.1305 -1.3833 -1.5142
 9004TIP3    H248428   1.598   6.781   1.222  1.3651  0.3556  0.5828
 9005TIP3   OH248429   3.721   3.419  13.982  0.2626  0.2947 -0.6514
 9005TIP3    H148430   3.785   3.367  13.933  1.8723  1.6277 -0.0487
 9005TIP3    H248431   3.727   3.507  13.945 -2.0647  0.2308 -1.3247
 9006TIP3   OH248432   4.030   3.807   4.385 -0.1497 -0.1585 -0.0204
 9006TIP3    H148433   4.077   3.805   4.302 -0.8876 -0.5596 -0.4424
 9006TIP3    H248434   4.068   3.736   4.436  0.5254  0.2949  0.1073
 9007TIP3   OH248435   1.389   5.269   1.924  0.5545 -0.9800  0.9128
 9007TIP3    H148436   1.310   5.243   1.971  0.0295 -0.4584  0.3448
 9007TIP3    H248437   1.357   5.329   1.857  1.3561 -1.3141  0.2288
 9008TIP3   OH248438   2.168   2.719   5.495 -0.5468  0.4366  0.6565
 9008TIP3    H148439   2.202   2.804   5.523 -2.6754  2.0196 -1.1292
 9008TIP3    H248440   2.079   2.716   5.531 -1.5647  0.3675 -1.6820
 9009TIP3   OH248441   3.348   6.186   4.090  0.1245  0.1960  0.4055
 9009TIP3    H148442   3.379   6.125   4.157 -1.7726 -0.1096  1.0722
 9009TIP3    H248443   3.322   6.264   4.138  1.4821  1.1335 -0.3273
 9010TIP3   OH248444   6.381   6.702  14.893  0.0076 -0.4092 -0.3721
 9010TIP3    H148445   6.355   6.621  14.849 -1.3813 -0.9939  1.4038
 9010TIP3    H248446   6.338   6.698  14.978 -1.5938  3.0174 -0.8539
 9011TIP3   OH248447   4.982   1.397   3.910 -0.6148  0.2246 -0.0039
 9011TIP3    H148448   5.039   1.429   3.840 -0.8938 -0.5729 -0.6132
 9011TIP3    H248449   4.897   1.385   3.868 -0.7233 -0.4842  0.4023
 9012TIP3   OH248450   6.371   3.465   2.752  0.1570  0.4867  0.2567
 9012TIP3    H148451   6.280   3.438   2.763  0.8021 -2.4128 -0.5431
 9012TIP3    H248452   6.391   3.445   2.660  1.5729  1.2000  0.3823
 9013TIP3   OH248453   3.165   5.825  13.465  0.0854 -0.2449 -0.1143
 9013TIP3    H148454   3.253   5.799  13.494 -0.2461  0.7960  2.0259
 9013TIP3    H248455   3.181   5.899  13.406  0.6746 -0.1415  0.1571
 9014TIP3   OH248456   4.768   5.239   5.602 -0.3161 -0.1569 -0.0768
 9014TIP3    H148457   4.842   5.177   5.600 -0.8074 -0.8220  1.0378
 9014TIP3    H248458   4.697   5.190   5.644 -1.9724 -0.1104 -2.6140
 9015TIP3   OH248459   2.376   5.753  11.778 -0.6214 -0.0273  0.3633
 9015TIP3    H148460   2.283   5.745  11.760 -0.7717  1.9220  0.0099
 9015TIP3    H248461   2.381   5.791  11.865 -0.2004  0.7314  0.0213
 9016TIP3   OH248462   2.453   0.777   4.749  0.5762  0.2203  0.3754
 9016TIP3    H148463   2.509   0.701   4.735  0.5278  0.1038  0.7977
 9016TIP3    H248464   2.432   0.774   4.842 -1.5264 -0.7197 -0.0630
 9017TIP3   OH248465   5.960   4.476   1.386 -0.3336 -0.3158 -0.5202
 9017TIP3    H148466   5.992   4.495   1.298 -1.7627 -1.0388 -1.2247
 9017TIP3    H248467   5.874   4.519   1.390  0.5073  1.3712  1.2227
 9018TIP3   OH248468   1.974   4.733  13.168  0.1213  0.0620  0.2788
 9018TIP3    H148469   2.021   4.816  13.178  2.3019 -1.1358  0.4401
 9018TIP3    H248470   1.938   4.737  13.079  0.5345  0.9849  0.1362
 9019TIP3   OH248471   5.740   5.705   3.930  0.0088  0.1888 -0.0045
 9019TIP3    H148472   5.798   5.688   3.855  0.8974  0.2455  0.6583
 9019TIP3    H248473   5.678   5.632   3.928  0.6718 -0.3910 -0.1916
 9020TIP3   OH248474   0.998   5.348  14.721 -0.5877  0.3427  0.6750
 9020TIP3    H148475   0.943   5.353  14.643  1.4120  0.2183 -0.8280
 9020TIP3    H248476   0.950   5.396  14.788 -1.5232  2.1064 -1.1697
 9021TIP3   OH248477   2.759   0.121  16.903 -0.1706 -0.4901 -0.6315
 9021TIP3    H148478   2.853   0.133  16.919  0.1285 -1.6684 -1.3911
 9021TIP3    H248479   2.716   0.176  16.969  1.0515  0.8782 -0.9312
 9022TIP3   OH248480   0.633   1.125  17.359 -0.2966 -0.6690 -0.1005
 9022TIP3    H148481   0.629   1.190  17.430  0.2388 -1.0528  0.2841
 9022TIP3    H248482   0.557   1.145  17.304  0.1229  0.5910 -0.2511
 9023TIP3   OH248483   6.381   2.960  15.874 -0.0068 -0.2320 -0.2967
 9023TIP3    H148484   6.326   2.908  15.932 -2.1022  3.6589  1.6031
 9023TIP3    H248485   6.466   2.965  15.919  0.1753 -1.7081 -0.4310
 9024TIP3   OH248486   5.385   3.633   5.516 -0.0375  0.3226  0.3937
 9024TIP3    H148487   5.402   3.726   5.530 -0.9562  0.5547  0.0322
 9024TIP3    H248488   5.468   3.590   5.537 -0.1771  1.0234  2.6281
 9025TIP3   OH248489   6.351   1.790  17.124  0.1342  0.0857  0.1426
 9025TIP3    H148490   6.298   1.727  17.173  0.8406  0.0657  0.9136
 9025TIP3    H248491   6.421   1.737  17.086 -0.1898  0.1652 -0.5732
 9026TIP3   OH248492   0.202   3.297   3.376 -0.3321  0.3426 -0.4625
 9026TIP3    H148493   0.180   3.273   3.286 -0.5219 -0.1385 -0.2895
 9026TIP3    H248494   0.256   3.224   3.408 -3.3784 -1.4585  1.0678
 9027TIP3   OH248495   1.999   3.168  15.631  0.5409  0.3779  0.0756
 9027TIP3    H148496   2.055   3.169  15.554 -0.7133 -2.0573 -0.9997
 9027TIP3    H248497   1.999   3.076  15.660  0.8986  1.1955  2.9631
 9028TIP3   OH248498   5.531   0.603  11.334 -0.0633 -0.6078 -0.2079
 9028TIP3    H148499   5.587   0.678  11.318  0.9861 -1.5371 -1.0713
 9028TIP3    H248500   5.450   0.622  11.287 -1.2754  1.5343  2.4668
 9029TIP3   OH248501   0.415   5.505  14.059 -0.4128  0.1759 -1.1056
 9029TIP3    H148502   0.471   5.432  14.030 -1.8267 -1.0866 -0.7661
 9029TIP3    H248503   0.433   5.514  14.152 -0.2937  0.2226 -1.1321
 9030TIP3   OH248504   1.095   4.149  16.488 -0.0744  0.0105  0.3922
 9030TIP3    H148505   1.102   4.235  16.529  1.1998 -0.5422  1.3779
 9030TIP3    H248506   1.030   4.102  16.540 -1.5990  0.6995 -0.8021
 9031TIP3   OH248507   1.071   4.406  15.068  0.2034 -0.4072  0.3732
 9031TIP3    H148508   1.116   4.412  14.983 -0.8296 -1.3804 -0.2647
 9031TIP3    H248509   1.122   4.464  15.125 -0.3238  2.0139 -1.4175
 9032TIP3   OH248510   1.347   5.789   4.881  0.2228  0.0359 -0.0350
 9032TIP3    H148511   1.284   5.815   4.814 -1.0608 -0.2740  1.0127
 9032TIP3    H248512   1.401   5.723   4.838 -1.1808 -0.8493 -0.5196
 9033TIP3   OH248513   6.243   4.958  13.311  0.0289 -0.2254  0.0873
 9033TIP3    H148514   6.279   4.870  13.301  1.1450  0.0919  1.0573
 9033TIP3    H248515   6.246   4.996  13.223  0.9061 -0.6491 -0.0719
 9034TIP3   OH248516   4.732   3.628  16.607 -0.1527 -1.1373  0.3299
 9034TIP3    H148517   4.675   3.567  16.560  1.0744  0.0303 -2.9668
 9034TIP3    H248518   4.803   3.574  16.641 -1.0572 -2.0165  0.8927
 9035TIP3   OH248519   2.715   0.624   3.179  0.0172  0.1962 -0.4914
 9035TIP3    H148520   2.741   0.601   3.268 -0.4173  0.6786 -0.2356
 9035TIP3    H248521   2.623   0.599   3.173 -0.8576  2.9058  0.2087
 9036TIP3   OH248522   3.925   5.226   1.520  0.2704 -0.1994 -0.1026
 9036TIP3    H148523   3.892   5.257   1.436  1.2222  1.6667  0.1484
 9036TIP3    H248524   3.847   5.223   1.577 -0.0185  0.9399 -0.4041
 9037TIP3   OH248525   0.481   5.239  11.329  0.3201 -0.0012  0.1871
 9037TIP3    H148526   0.390   5.257  11.354  0.4106  2.1604 -0.8104
 9037TIP3    H248527   0.476   5.212  11.238  0.7635  1.8671 -0.4384
 9038TIP3   OH248528   5.373   0.506   6.019 -0.7716  0.5663 -0.0579
 9038TIP3    H148529   5.371   0.601   6.009 -1.2517  0.7107  1.2256
 9038TIP3    H248530   5.319   0.473   5.947 -1.4513  1.3302  0.0894
 9039TIP3   OH248531   3.212   3.284   4.603 -0.7648 -0.1992 -0.3706
 9039TIP3    H148532   3.262   3.204   4.617  0.6933  0.7160 -0.0497
 9039TIP3    H248533   3.122   3.261   4.623 -0.6203 -2.1245 -1.7278
 9040TIP3   OH248534   6.317   6.278   0.503 -0.4062  0.0751  0.1085
 9040TIP3    H148535   6.394   6.332   0.519 -0.4328  0.0802  0.2199
 9040TIP3    H248536   6.247   6.340   0.484 -0.9602  0.2276  2.3157
 9041TIP3   OH248537   6.465   2.471  16.321  0.0573  0.2121  0.1938
 9041TIP3    H148538   6.489   2.525  16.246  0.2199  0.8939  0.7302
 9041TIP3    H248539   6.518   2.504  16.393 -1.1121  0.4926  0.9486
 9042TIP3   OH248540   0.988   5.171   2.853  0.3192 -0.0090 -0.2421
 9042TIP3    H148541   0.894   5.182   2.863  0.4257  0.0504  0.8228
 9042TIP3    H248542   0.997   5.101   2.788 -0.4713 -0.5194  0.1774
 9043TIP3   OH248543   0.101   1.795  13.901 -0.1302  0.0935  0.8447
 9043TIP3    H148544   0.041   1.749  13.960 -0.9874  0.0899  0.0051
 9043TIP3    H248545   0.127   1.873  13.949 -0.4739 -0.1234  1.3966
 9044TIP3   OH248546   0.333   0.552   0.386  1.1453  0.0132  0.1051
 9044TIP3    H148547   0.264   0.488   0.366  1.1057  0.0799  0.0290
 9044TIP3    H248548   0.286   0.634   0.400  1.3446  0.4659 -1.7183
 9045TIP3   OH248549   5.368   2.592   1.320  0.3202  0.6126  0.1436
 9045TIP3    H148550   5.353   2.542   1.240  3.4807 -0.6970  0.2279
 9045TIP3    H248551   5.456   2.626   1.311  1.0940 -0.1929  3.3163
 9046TIP3   OH248552   0.602   0.876  14.652 -0.0471  0.3956 -0.2313
 9046TIP3    H148553   0.539   0.828  14.598  1.4483  0.0945 -1.8239
 9046TIP3    H248554   0.632   0.812  14.716 -1.1009  0.4552  0.3469
 9047TIP3   OH248555   1.011   1.542   5.641  0.9210 -0.0428 -0.2913
 9047TIP3    H148556   1.087   1.600   5.641  0.3335  0.9243  2.8559
 9047TIP3    H248557   1.040   1.463   5.686  0.4014 -0.2103 -0.2382
 9048TIP3   OH248558   4.826   2.084  10.953  0.3322 -0.4803  0.1896
 9048TIP3    H148559   4.744   2.043  10.924  0.1711  0.0231 -0.0697
 9048TIP3    H248560   4.889   2.011  10.957 -0.0784 -0.8382  0.2157
 9049TIP3   OH248561   4.450   1.811   2.031  0.3096  0.0687  0.5390
 9049TIP3    H148562   4.507   1.745   2.069  1.7719  0.1598 -1.3515
 9049TIP3    H248563   4.391   1.836   2.102  2.2647 -0.4085  2.4249
 9050TIP3   OH248564   1.780   6.131  16.350  0.4704  0.1944  0.0291
 9050TIP3    H148565   1.818   6.046  16.370  0.7834 -0.0162 -1.4174
 9050TIP3    H248566   1.853   6.193  16.356  0.2066  0.4316  1.2779
 9051TIP3   OH248567   5.938   5.135  11.082  0.0711 -0.3083  0.1451
 9051TIP3    H148568   5.848   5.154  11.111  0.1254 -0.8753  0.7225
 9051TIP3    H248569   5.960   5.053  11.127  1.1134  0.1697  0.5277
 9052TIP3   OH248570   0.006   4.895  14.821 -0.4006  0.4214  0.4973
 9052TIP3    H148571   0.101   4.897  14.828 -0.5233  0.8436  2.6390
 9052TIP3    H248572  -0.025   4.915  14.909 -2.4835  0.5119 -0.2065
 9053TIP3   OH248573   5.061   6.499  11.527 -0.6143  0.7903 -0.3196
 9053TIP3    H148574   5.112   6.457  11.457  0.1915  1.6612 -0.2800
 9053TIP3    H248575   5.116   6.572  11.555 -1.3369  0.9845  0.6132
 9054TIP3   OH248576   3.907   3.664   0.117  0.0010 -0.4320  0.7536
 9054TIP3    H148577   3.830   3.644   0.065 -0.1343 -2.9520  1.7888
 9054TIP3    H248578   3.901   3.759   0.133 -2.1129 -0.3275 -0.3155
 9055TIP3   OH248579   5.324   5.246  15.368 -0.2741 -0.4106  0.0684
 9055TIP3    H148580   5.318   5.161  15.412  0.9101 -0.1201  0.8412
 9055TIP3    H248581   5.345   5.308  15.437  2.9907 -0.1288 -0.9808
 9056TIP3   OH248582   1.390   0.835  17.302 -0.0044  0.2174 -0.2090
 9056TIP3    H148583   1.408   0.919  17.260  0.2236 -0.1852 -0.9314
 9056TIP3    H248584   1.390   0.771  17.230 -1.5469 -0.2125  0.1291
 9057TIP3   OH248585   1.142   6.032   1.383 -0.4590  0.2891 -0.2946
 9057TIP3    H148586   1.078   6.096   1.351 -0.3720  0.1205 -0.8187
 9057TIP3    H248587   1.127   5.955   1.329  2.2035  1.2307 -2.6224
 9058TIP3   OH248588   0.694   5.658  14.085 -0.1321  0.3698  0.1320
 9058TIP3    H148589   0.687   5.753  14.089 -0.3022  0.3770 -0.2581
 9058TIP3    H248590   0.617   5.627  14.133  0.4777  0.4182  1.1650
 9059TIP3   OH248591   2.474   3.344  14.699  0.8577 -0.1415  0.0403
 9059TIP3    H148592   2.539   3.402  14.659  0.8786  0.5649  1.0612
 9059TIP3    H248593   2.450   3.284  14.629  2.0462  0.0629 -0.5786
 9060TIP3   OH248594   0.283   3.039  16.229 -0.2228  0.3062 -0.5202
 9060TIP3    H148595   0.242   3.084  16.156 -1.5041 -0.9728 -0.6261
 9060TIP3    H248596   0.377   3.048  16.213 -0.3814  3.2510 -0.2850
 9061TIP3   OH248597   0.546   1.746  13.545  0.5309  0.0113 -0.1789
 9061TIP3    H148598   0.524   1.787  13.461 -0.2366  0.4074  0.2086
 9061TIP3    H248599   0.477   1.775  13.605  1.5738  0.4614  0.8278
 9062TIP3   OH248600   2.051   2.318   4.490 -0.4435  0.4716 -0.4406
 9062TIP3    H148601   1.980   2.375   4.518  0.6416  0.6352  2.3370
 9062TIP3    H248602   2.039   2.238   4.541  1.2087  0.4434 -0.0151
 9063TIP3   OH248603   2.666   0.664   5.896  0.3237 -0.1528 -0.8496
 9063TIP3    H148604   2.724   0.589   5.883  0.5950 -0.7440  2.7565
 9063TIP3    H248605   2.718   0.739   5.868  0.8706 -1.0768 -2.4423
 9064TIP3   OH248606   4.053   3.622  14.477  0.3551 -0.2529  0.2995
 9064TIP3    H148607   3.972   3.645  14.431  0.4661  0.2801  0.3632
 9064TIP3    H248608   4.113   3.694  14.457  0.5416 -0.2269  0.9384
 9065TIP3   OH248609   2.337   5.164   1.695  0.3057  0.0699  0.1973
 9065TIP3    H148610   2.303   5.243   1.655  1.8094  1.0328  0.7555
 9065TIP3    H248611   2.341   5.100   1.623 -0.5175  0.6201 -0.3448
 9066TIP3   OH248612   6.242   0.914  14.896 -0.8610 -0.5357 -0.2371
 9066TIP3    H148613   6.167   0.858  14.911 -1.1804 -0.3277 -1.0042
 9066TIP3    H248614   6.219   0.966  14.819 -0.3214  0.2049  0.0803
 9067TIP3   OH248615   2.215   3.777   2.505  0.6031 -0.0187 -0.2322
 9067TIP3    H148616   2.260   3.838   2.447  0.2807  0.9831  0.5459
 9067TIP3    H248617   2.285   3.728   2.547  0.8895  0.2557 -0.3865
 9068TIP3   OH248618   6.250   1.429  11.663  0.1186  0.1543 -0.0050
 9068TIP3    H148619   6.227   1.498  11.601  0.3014  0.5325  0.3364
 9068TIP3    H248620   6.344   1.440  11.677 -0.3487  1.9135  2.4562
 9069TIP3   OH248621   2.607   5.881  15.326  0.5160 -0.4436 -0.6439
 9069TIP3    H148622   2.651   5.935  15.261  0.2453  0.8633  0.2375
 9069TIP3    H248623   2.540   5.937  15.363  0.0997 -1.4484  0.1774
 9070TIP3   OH248624   6.461   2.835   2.305 -0.2538 -0.2849  1.1986
 9070TIP3    H148625   6.490   2.923   2.328  0.1260 -0.2462  0.5953
 9070TIP3    H248626   6.389   2.817   2.365 -1.4087  1.0779  0.2979
 9071TIP3   OH248627   2.033   1.810  11.757  0.3653 -0.4255  0.5563
 9071TIP3    H148628   1.967   1.872  11.727 -0.0685 -1.0737  0.1474
 9071TIP3    H248629   2.094   1.863  11.808  0.5261  0.5202 -0.5611
 9072TIP3   OH248630   3.697   1.018   1.885  0.4389  0.2053  0.4256
 9072TIP3    H148631   3.725   1.089   1.827 -0.6046 -0.1677 -0.6016
 9072TIP3    H248632   3.621   0.980   1.840 -0.2935 -0.2297  1.9695
 9073TIP3   OH248633   4.600   4.329  12.426  0.1859 -0.4300 -0.1180
 9073TIP3    H148634   4.588   4.280  12.345  0.2529 -0.0112 -0.3846
 9073TIP3    H248635   4.693   4.352  12.427  0.3545 -1.0898  0.4605
 9074TIP3   OH248636   3.706   4.961  13.505  0.1072 -0.2497 -0.7230
 9074TIP3    H148637   3.716   5.019  13.429 -2.0671  0.7864 -0.3083
 9074TIP3    H248638   3.772   4.894  13.493  0.1996  0.1979 -3.2589
 9075TIP3   OH248639   5.653   2.866   2.973  0.0489  0.0954 -0.3830
 9075TIP3    H148640   5.709   2.943   2.974 -0.3049  0.3553 -0.0262
 9075TIP3    H248641   5.709   2.795   3.003  0.3145  0.2572 -0.4901
 9076TIP3   OH248642   5.419   6.099   3.572  0.9493  0.1373  0.6741
 9076TIP3    H148643   5.373   6.181   3.591  0.8512 -0.5175  3.7622
 9076TIP3    H248644   5.351   6.031   3.580  1.3949 -0.4257 -0.1159
 9077TIP3   OH248645   2.243   3.737  16.121  0.2596 -0.3935 -0.5264
 9077TIP3    H148646   2.190   3.672  16.074 -0.8999  0.3657 -0.2926
 9077TIP3    H248647   2.246   3.813  16.062 -0.5385  0.2738  0.2795
 9078TIP3   OH248648   6.750   4.772  11.419 -0.0607  0.1414 -0.1812
 9078TIP3    H148649   6.842   4.784  11.440  0.2091 -1.4844 -0.3426
 9078TIP3    H248650   6.708   4.757  11.503  0.1778 -1.2101 -0.2892
 9079TIP3   OH248651   6.163   4.631   1.701  0.0809 -0.3413 -0.3917
 9079TIP3    H148652   6.122   4.550   1.672  1.3776 -1.0524 -0.3285
 9079TIP3    H248653   6.218   4.658   1.627 -0.4565  0.5685 -0.4684
 9080TIP3   OH248654   6.570   2.569   1.198 -0.2907  0.4745 -0.1591
 9080TIP3    H148655   6.638   2.608   1.253  1.3405 -1.5603 -0.6395
 9080TIP3    H248656   6.547   2.487   1.242  0.3905 -0.7451 -1.9795
 9081TIP3   OH248657   6.702   5.650  16.403 -0.4134 -0.1249  0.0446
 9081TIP3    H148658   6.698   5.688  16.316 -0.4664 -0.8459 -0.2765
 9081TIP3    H248659   6.776   5.589  16.400  2.5153  2.9531  1.8045
 9082TIP3   OH248660   4.458   3.197   2.702  0.9259  0.1432 -0.2879
 9082TIP3    H148661   4.476   3.203   2.608  0.4508  0.5194 -0.3525
 9082TIP3    H248662   4.454   3.287   2.732 -2.8040  0.2243 -0.6408
 9083TIP3   OH248663   2.870   6.325   4.299  0.1714  0.1263 -0.2484
 9083TIP3    H148664   2.842   6.245   4.256  1.5417 -1.2646  1.3172
 9083TIP3    H248665   2.958   6.306   4.331 -0.0552  1.7132  1.5041
 9084TIP3   OH248666   0.747   2.237  16.816 -0.0459  0.4424 -0.3181
 9084TIP3    H148667   0.699   2.207  16.893  0.8569 -0.2573 -0.0040
 9084TIP3    H248668   0.681   2.243  16.748 -0.8407  0.9618  0.4762
 9085TIP3   OH248669   2.748   5.187   2.442 -0.9225  0.1860  0.4707
 9085TIP3    H148670   2.733   5.208   2.534  1.7600 -1.0682  1.2932
 9085TIP3    H248671   2.695   5.108   2.426 -2.3429  1.0867  0.5268
 9086TIP3   OH248672   6.088   4.577   2.696 -0.9940 -0.2953 -0.1667
 9086TIP3    H148673   6.017   4.567   2.759 -0.5507  0.3044  0.4404
 9086TIP3    H248674   6.152   4.632   2.740 -0.6342  0.0659 -1.1118
 9087TIP3   OH248675   2.442   3.992   2.604  0.1366 -0.0080 -0.0423
 9087TIP3    H148676   2.444   3.899   2.585 -1.3074  0.2643 -1.7786
 9087TIP3    H248677   2.427   4.034   2.520  0.0165  1.7540  0.8062
 9088TIP3   OH248678   3.860   2.505  16.338 -0.0519  0.0565 -0.2869
 9088TIP3    H148679   3.831   2.429  16.288 -0.3035 -0.7028  0.9538
 9088TIP3    H248680   3.944   2.530  16.299  0.7410 -1.7612  0.1843
 9089TIP3   OH248681   0.460   2.745  11.740 -0.4890  0.0203  0.0160
 9089TIP3    H148682   0.395   2.768  11.806  1.3654  2.4292  1.1494
 9089TIP3    H248683   0.450   2.811  11.672 -0.1979 -0.4690 -0.5092
 9090TIP3   OH248684   1.536   2.155   5.531  0.5487 -0.1970 -0.0331
 9090TIP3    H148685   1.456   2.176   5.483  0.5902  0.3672  0.1436
 9090TIP3    H248686   1.606   2.198   5.481  0.6460  0.0046  0.2786
 9091TIP3   OH248687   4.214   4.316   4.083  0.2139 -0.1647 -0.1683
 9091TIP3    H148688   4.217   4.411   4.091  0.3354 -0.2557  1.0996
 9091TIP3    H248689   4.159   4.288   4.156 -1.2979 -0.9623 -1.5642
 9092TIP3   OH248690   0.380   2.277  14.219 -0.2192  0.3352  0.0617
 9092TIP3    H148691   0.461   2.273  14.167  0.7218  2.1643  1.2701
 9092TIP3    H248692   0.314   2.309  14.157  0.5239  1.0091 -0.4040
 9093TIP3   OH248693   1.844   1.143   1.808 -0.1989 -0.8428  0.1244
 9093TIP3    H148694   1.849   1.183   1.895 -1.6785  0.3065 -0.2662
 9093TIP3    H248695   1.815   1.054   1.824 -0.2644 -0.7006  0.8379
 9094TIP3   OH248696   4.907   1.619  15.712  0.4090  0.6214 -0.4949
 9094TIP3    H148697   4.939   1.529  15.705 -1.2954 -0.0634 -0.1638
 9094TIP3    H248698   4.981   1.669  15.747  0.9580 -0.9417  0.6809
 9095TIP3   OH248699   0.331   1.871  11.797 -0.8673 -0.2472 -0.0811
 9095TIP3    H148700   0.414   1.894  11.837 -1.6450  2.2494  0.2377
 9095TIP3    H248701   0.291   1.954  11.774 -2.1854 -1.4409 -2.5718
 9096TIP3   OH248702   4.908   0.642   4.371  0.3692 -0.5977 -0.3660
 9096TIP3    H148703   4.875   0.732   4.376  0.2170 -0.7169  1.0900
 9096TIP3    H248704   4.860   0.604   4.297  0.1538  0.3967 -0.7614
 9097TIP3   OH248705   6.402   0.227   1.612  0.1811  0.0120 -0.7890
 9097TIP3    H148706   6.454   0.273   1.678 -0.4365  2.0436 -1.6410
 9097TIP3    H248707   6.326   0.193   1.660  0.5637  0.0238 -0.1728
 9098TIP3   OH248708   2.464   6.668   2.366  0.7296  0.3242  0.2839
 9098TIP3    H148709   2.446   6.575   2.375  0.6393  0.2722 -0.3368
 9098TIP3    H248710   2.555   6.673   2.336  0.1984  0.3300 -1.4344
 9099TIP3   OH248711   5.253   5.234  11.966  0.0814 -0.2435 -0.0968
 9099TIP3    H148712   5.264   5.161  11.906  0.5874  0.1570 -0.4985
 9099TIP3    H248713   5.300   5.307  11.925 -0.8021  0.4425  0.0687
 9100TIP3   OH248714   6.022   0.861  11.812  0.9620  0.2600  0.1737
 9100TIP3    H148715   5.992   0.833  11.726  1.2257  0.4307  0.0232
 9100TIP3    H248716   6.080   0.791  11.842 -1.0023 -0.9816  1.2789
 9101TIP3   OH248717   3.717   4.412  11.704  0.2863 -0.1958  0.1674
 9101TIP3    H148718   3.762   4.366  11.633  2.0791  0.0186  1.1218
 9101TIP3    H248719   3.714   4.348  11.775 -0.0284  0.1397  0.4575
 9102TIP3   OH248720   0.210   5.472  14.282 -0.2246 -0.7360  0.0666
 9102TIP3    H148721   0.296   5.488  14.245  0.5554 -1.2996  1.5809
 9102TIP3    H248722   0.161   5.553  14.264  0.4393 -0.6075 -1.2388
 9103TIP3   OH248723   3.141   6.230  17.266  0.4237 -0.0453  0.4206
 9103TIP3    H148724   3.081   6.170  17.222 -0.0854  1.4194 -0.9575
 9103TIP3    H248725   3.216   6.176  17.289 -0.4410 -1.4223  0.1378
 9104TIP3   OH248726   2.827   2.664  13.596  0.2383  0.4063  0.8055
 9104TIP3    H148727   2.746   2.661  13.647  0.0534 -0.6941  0.4894
 9104TIP3    H248728   2.797   2.682  13.506  0.4296  0.8642  0.8313
 9105TIP3   OH248729   5.575   3.760  12.710 -0.1168  0.1970  0.3008
 9105TIP3    H148730   5.570   3.801  12.623  1.2937 -2.1676 -1.0141
 9105TIP3    H248731   5.488   3.726  12.725  0.2552 -1.7846 -1.5506
 9106TIP3   OH248732   6.390   3.765  14.903 -0.2819 -0.1557  0.2173
 9106TIP3    H148733   6.298   3.774  14.879 -0.2553 -0.4684 -0.0017
 9106TIP3    H248734   6.403   3.671  14.917 -0.1586 -0.0427  0.9040
 9107TIP3   OH248735   0.677   5.042  16.377  0.3457 -0.6009  0.1366
 9107TIP3    H148736   0.680   5.106  16.306 -0.1485 -0.8097 -0.0739
 9107TIP3    H248737   0.694   5.093  16.456  2.1200 -0.5394 -0.2210
 9108TIP3   OH248738   0.234   0.831  13.579  0.0388  0.3920  0.0092
 9108TIP3    H148739   0.306   0.894  13.580 -0.7620  1.3700 -1.1387
 9108TIP3    H248740   0.210   0.824  13.486 -2.9141  1.9643  0.5253
 9109TIP3   OH248741   3.771   6.751  13.058  0.1716 -0.0236 -0.5224
 9109TIP3    H148742   3.743   6.818  13.121  0.4553  0.0838 -0.5074
 9109TIP3    H248743   3.727   6.671  13.086 -1.3582  0.4731 -1.4132
 9110TIP3   OH248744   6.431   5.280   3.689  0.7918 -0.3544  0.2821
 9110TIP3    H148745   6.475   5.195   3.692 -0.5056 -1.0516  0.4369
 9110TIP3    H248746   6.490   5.339   3.735  1.6657 -1.1886  0.2754
 9111TIP3   OH248747   1.335   0.186  13.135  1.1160  0.3098  0.5002
 9111TIP3    H148748   1.341   0.094  13.111  0.9199  0.1225  1.1615
 9111TIP3    H248749   1.242   0.201  13.152  0.2362  1.8145 -4.1627
 9112TIP3   OH248750   4.896   2.845  10.926  0.3742 -0.2668 -0.3596
 9112TIP3    H148751   4.863   2.872  10.840 -1.8502  2.4378  1.1786
 9112TIP3    H248752   4.986   2.878  10.928  0.1335  0.5238 -1.3134
 9113TIP3   OH248753   5.715   1.616  12.871 -0.4363 -0.1841  0.0855
 9113TIP3    H148754   5.692   1.533  12.830 -0.7741  0.5136 -1.1751
 9113TIP3    H248755   5.806   1.604  12.899 -1.0780 -1.6575  1.7619
 9114TIP3   OH248756   1.141   5.430  16.166  0.1821 -0.5653  0.3771
 9114TIP3    H148757   1.145   5.352  16.221 -0.2811 -0.7263  0.1861
 9114TIP3    H248758   1.050   5.434  16.137  0.3629 -0.3262 -0.1556
 9115TIP3   OH248759   2.287   6.203  16.078 -0.6147 -0.3066 -0.4774
 9115TIP3    H148760   2.364   6.223  16.025 -1.5198  0.3948 -1.5669
 9115TIP3    H248761   2.287   6.269  16.147 -0.1843 -0.3860 -0.3967
 9116TIP3   OH248762   0.653   5.870   0.978  0.1807  0.0440 -0.0992
 9116TIP3    H148763   0.565   5.890   0.945 -0.4566 -0.9515  0.9131
 9116TIP3    H248764   0.707   5.942   0.946 -1.0112  0.7200 -0.6849
 9117TIP3   OH248765   1.618   4.313  11.686  0.0941 -0.3049  0.0463
 9117TIP3    H148766   1.589   4.355  11.604  0.7894  0.1005 -0.0047
 9117TIP3    H248767   1.567   4.356  11.754  0.6023  0.4479 -0.0351
 9118TIP3   OH248768   1.803   0.520   5.723  0.3960  0.5925 -0.5262
 9118TIP3    H148769   1.824   0.472   5.803 -0.1301 -1.1939 -1.4200
 9118TIP3    H248770   1.783   0.609   5.753 -2.5254 -0.6675  1.6663
 9119TIP3   OH248771   3.782   5.275  16.504  0.3128 -0.1479  0.0350
 9119TIP3    H148772   3.718   5.290  16.434  1.4417 -0.8454 -1.1968
 9119TIP3    H248773   3.865   5.260  16.458  1.7570  2.2534  1.5815
 9120TIP3   OH248774   5.927   2.881  16.382  0.3523  0.0094  0.6533
 9120TIP3    H148775   6.012   2.840  16.398  0.3051  0.4016  1.9795
 9120TIP3    H248776   5.897   2.842  16.299  2.0584  0.2796 -0.1263
 9121TIP3   OH248777   2.359   2.231  12.086 -0.2426  0.1440  0.5102
 9121TIP3    H148778   2.293   2.232  12.017 -2.3808 -1.0969  2.3989
 9121TIP3    H248779   2.406   2.314  12.077  0.3706 -0.4485 -3.0683
 9122TIP3   OH248780   1.216   4.581  15.237 -0.1168 -0.1942 -0.3508
 9122TIP3    H148781   1.229   4.624  15.322 -1.6957 -1.1178  0.4205
 9122TIP3    H248782   1.293   4.526  15.226 -0.0092 -0.2675  0.6397
 9123TIP3   OH248783   4.084   1.798  14.043 -0.0226  0.2931  0.5525
 9123TIP3    H148784   4.102   1.706  14.060  1.3473 -0.0317 -2.0908
 9123TIP3    H248785   4.170   1.841  14.047  0.0225  0.6405 -2.1871
 9124TIP3   OH248786   3.929   3.304  14.430  0.7162  0.4669 -0.0810
 9124TIP3    H148787   3.841   3.312  14.468  1.2683 -1.0186  1.6582
 9124TIP3    H248788   3.942   3.386  14.383 -1.7213  0.5854 -0.6879
 9125TIP3   OH248789   3.820   5.051   1.849  0.1775 -0.0264 -0.7888
 9125TIP3    H148790   3.879   5.037   1.775  1.1045  0.8145 -0.2216
 9125TIP3    H248791   3.808   5.146   1.853  0.8672  0.0185  0.6841
 9126TIP3   OH248792   0.271   4.903  13.180 -0.6364  0.0107 -0.0535
 9126TIP3    H148793   0.226   4.921  13.097  0.8720  3.3026 -0.3334
 9126TIP3    H248794   0.236   4.970  13.240 -0.7755 -1.5127  1.6553
 9127TIP3   OH248795   3.553   4.184  14.796 -0.0081  0.5082  0.3910
 9127TIP3    H148796   3.473   4.232  14.817 -0.5959 -0.8949  1.5330
 9127TIP3    H248797   3.613   4.207  14.866 -0.2383 -0.2650  0.8544
 9128TIP3   OH248798   4.311   3.051   0.865 -0.2148 -0.5750  0.2880
 9128TIP3    H148799   4.391   3.004   0.889  0.2734  0.3668  0.5548
 9128TIP3    H248800   4.342   3.134   0.828 -1.0637  0.3263  1.4904
 9129TIP3   OH248801   0.247   1.097  14.070  0.8491 -0.2636  0.1271
 9129TIP3    H148802   0.339   1.125  14.074  0.9182 -0.4861  0.1074
 9129TIP3    H248803   0.197   1.177  14.088  0.8648  1.0476 -4.4230
 9130TIP3   OH248804   1.065   0.920  16.835  0.2380  0.1524  0.1020
 9130TIP3    H148805   1.071   0.997  16.892  1.2236  1.3218 -1.4661
 9130TIP3    H248806   0.986   0.935  16.783  0.1940 -0.1114  0.0962
 9131TIP3   OH248807   5.929   2.414   4.905  0.3961 -0.3894 -0.0292
 9131TIP3    H148808   6.004   2.373   4.950  1.7303  1.0698 -0.8090
 9131TIP3    H248809   5.889   2.469   4.972 -1.0018 -2.3372  0.8355
 9132TIP3   OH248810   3.395   2.191   2.759 -0.0464  0.2972 -0.2287
 9132TIP3    H148811   3.379   2.108   2.714 -0.1332 -0.2177  0.7400
 9132TIP3    H248812   3.327   2.250   2.724 -1.6188 -0.7527  0.9219
 9133TIP3   OH248813   3.509   5.224  16.629 -0.1921  0.3684 -0.7812
 9133TIP3    H148814   3.595   5.240  16.668 -0.5256  0.4312 -0.0556
 9133TIP3    H248815   3.461   5.177  16.696 -0.5033 -0.2945 -1.4511
 9134TIP3   OH248816   0.636   0.496  17.202 -0.0601  0.4893 -0.3103
 9134TIP3    H148817   0.625   0.499  17.298  0.9637  0.7163 -0.1874
 9134TIP3    H248818   0.722   0.535  17.187 -0.3166  0.6784 -1.3535
 9135TIP3   OH248819   0.987   4.421  17.018 -0.2142  0.0227  0.4433
 9135TIP3    H148820   1.078   4.445  16.997 -0.3192 -0.8300 -1.2379
 9135TIP3    H248821   0.978   4.438  17.111  1.7053  0.0669  0.6618
 9136TIP3   OH248822   6.191   4.347   4.744  0.0596 -0.2975 -0.0237
 9136TIP3    H148823   6.247   4.285   4.697  0.6912  0.3725 -0.1779
 9136TIP3    H248824   6.116   4.360   4.686  1.5240  1.6776 -1.6405
 9137TIP3   OH248825   5.946   2.702   2.406  0.0995 -0.5970  0.3108
 9137TIP3    H148826   5.851   2.711   2.404 -0.0554 -2.0814 -0.2110
 9137TIP3    H248827   5.977   2.775   2.353 -0.6774  0.4686  1.2701
 9138TIP3   OH248828   4.317   5.001  11.998  0.1031 -0.4871  0.0288
 9138TIP3    H148829   4.386   4.986  12.062  0.0766 -1.2136 -0.1011
 9138TIP3    H248830   4.257   4.927  12.009 -0.5521  0.0277  0.0020
 9139TIP3   OH248831   6.304   4.274   0.489 -0.2989  0.6009 -0.2952
 9139TIP3    H148832   6.337   4.284   0.579 -1.8687  1.7861  0.1928
 9139TIP3    H248833   6.257   4.355   0.471 -1.7003 -0.4092 -1.4505
 9140TIP3   OH248834   5.268   1.022  14.086  0.0629 -0.0693 -0.2095
 9140TIP3    H148835   5.349   1.074  14.085  1.0748 -1.5535 -2.1582
 9140TIP3    H248836   5.247   1.009  13.993 -1.0929 -1.7127  0.2531
 9141TIP3   OH248837   2.170   4.290  16.876 -0.6924  0.1413  0.2063
 9141TIP3    H148838   2.123   4.206  16.882  0.7706 -0.8654 -1.3927
 9141TIP3    H248839   2.249   4.269  16.826 -0.5179  2.5994 -0.6628
 9142TIP3   OH248840   0.698   2.924   5.065 -0.1319 -0.2482 -0.1663
 9142TIP3    H148841   0.611   2.885   5.068  0.6792 -2.2891 -0.8305
 9142TIP3    H248842   0.747   2.879   5.134 -0.1247  2.4820  1.7791
 9143TIP3   OH248843   3.504   1.146   3.156  0.0522 -0.2334 -0.4172
 9143TIP3    H148844   3.452   1.066   3.150 -0.0530 -0.2344  0.4572
 9143TIP3    H248845   3.464   1.205   3.091 -1.0061 -0.2621  0.1887
 9144TIP3   OH248846   3.983   2.512   2.311 -0.2275 -0.1375 -0.4034
 9144TIP3    H148847   3.983   2.418   2.330  0.5615 -0.1472 -0.4342
 9144TIP3    H248848   3.942   2.552   2.388 -0.9513 -0.5316 -0.5693
 9145TIP3   OH248849   5.875   3.757  12.199  0.7487 -0.6114  0.3211
 9145TIP3    H148850   5.862   3.722  12.288  2.7934 -0.3579  0.7635
 9145TIP3    H248851   5.963   3.795  12.201  0.7829 -0.4883 -1.7965
 9146TIP3   OH248852   0.477   4.426   6.680 -0.9800  0.1042 -0.6109
 9146TIP3    H148853   0.513   4.354   6.628 -1.6244 -0.4024 -0.3555
 9146TIP3    H248854   0.554   4.473   6.711 -0.5546 -0.4899 -0.7514
 9147TIP3   OH248855   5.058   2.570  15.862  0.3328 -0.5471 -0.3066
 9147TIP3    H148856   5.050   2.542  15.771  0.0012  0.0103 -0.4533
 9147TIP3    H248857   4.974   2.610  15.882  0.8205  0.4189 -0.1400
 9148TIP3   OH248858   4.146   4.240   2.808  0.0136 -0.1216  0.1417
 9148TIP3    H148859   4.101   4.321   2.832  1.6986  1.1336 -0.7398
 9148TIP3    H248860   4.147   4.189   2.889 -0.0309  1.2681  1.0538
 9149TIP3   OH248861   1.357   5.521   5.701 -0.2487  0.4679 -0.0587
 9149TIP3    H148862   1.447   5.553   5.695  0.2719 -0.6113  1.3345
 9149TIP3    H248863   1.315   5.553   5.621  1.6040  0.2388 -1.2019
 9150TIP3   OH248864   2.907   2.615  12.733 -0.0397 -0.5765  0.0328
 9150TIP3    H148865   2.946   2.695  12.769 -0.5170 -1.4500  2.7597
 9150TIP3    H248866   2.902   2.630  12.639  0.3988  2.3505  0.3996
 9151TIP3   OH248867   4.163   5.177  12.917  0.6935 -0.0656  0.0246
 9151TIP3    H148868   4.072   5.182  12.889  0.4525 -2.1570  0.2717
 9151TIP3    H248869   4.210   5.145  12.839  0.9573 -0.3727  0.3038
 9152TIP3   OH248870   2.397   6.048  15.446 -0.4235 -0.3462  0.1195
 9152TIP3    H148871   2.419   6.094  15.528  2.4804 -1.8407  0.3098
 9152TIP3    H248872   2.356   6.115  15.392 -0.1222  1.3784  1.8850
 9153TIP3   OH248873   5.827   1.388  14.852  0.2818  0.3951  0.6005
 9153TIP3    H148874   5.746   1.339  14.861 -0.0284  0.3179 -1.8707
 9153TIP3    H248875   5.805   1.476  14.882 -0.9859  0.5763 -0.7506
 9154TIP3   OH248876   5.276   1.712  14.051  0.4388  0.3389  0.2615
 9154TIP3    H148877   5.200   1.668  14.012 -0.5604  0.2462  2.1941
 9154TIP3    H248878   5.345   1.646  14.052 -0.5880 -0.7628  1.7559
 9155TIP3   OH248879   2.433   2.363  17.257 -0.2369 -0.4276  0.1574
 9155TIP3    H148880   2.438   2.429  17.188 -2.5008  0.2978  0.6202
 9155TIP3    H248881   2.446   2.412  17.338  0.2555 -0.9217  0.3839
 9156TIP3   OH248882   0.468   3.748   2.965 -0.0957  0.1477  0.1220
 9156TIP3    H148883   0.375   3.767   2.979  0.5612  3.1657  1.3503
 9156TIP3    H248884   0.504   3.830   2.932  2.1672 -0.9186 -0.2487
 9157TIP3   OH248885   2.783   2.896  14.834  0.2903  0.3002  0.1458
 9157TIP3    H148886   2.761   2.986  14.808 -2.2236 -0.0725  0.7344
 9157TIP3    H248887   2.828   2.906  14.918  0.0364  1.0011  0.2074
 9158TIP3   OH248888   5.350   6.646   3.282  0.3532 -0.0987 -0.7289
 9158TIP3    H148889   5.322   6.556   3.270  0.7068 -0.2916 -0.1311
 9158TIP3    H248890   5.436   6.640   3.324  0.3871  0.5142 -0.6905
 9159TIP3   OH248891   0.202   4.628  16.493 -0.1219 -0.4464 -0.2093
 9159TIP3    H148892   0.117   4.607  16.454 -0.5799 -1.6970  1.3582
 9159TIP3    H248893   0.181   4.652  16.584  1.0603  0.8386 -0.2473
 9160TIP3   OH248894   0.136   0.764   0.962  0.4797 -1.0443  0.0073
 9160TIP3    H148895   0.120   0.857   0.951 -2.4328 -1.4015  0.4017
 9160TIP3    H248896   0.189   0.757   1.041  0.1492  0.2424  0.3621
 9161TIP3   OH248897   4.373   2.399  11.784 -0.2877  0.0548 -0.0369
 9161TIP3    H148898   4.364   2.403  11.689 -1.8694  1.4918  0.1298
 9161TIP3    H248899   4.310   2.463  11.817 -1.6985 -2.2519  2.0679
 9162TIP3   OH248900   0.655   3.289   3.404 -0.5221  0.4260  0.4802
 9162TIP3    H148901   0.560   3.294   3.389 -0.3962 -1.5027 -1.5402
 9162TIP3    H248902   0.693   3.337   3.330  0.0876  0.3303  0.7288
 9163TIP3   OH248903   2.469   3.214   4.382  0.7087  0.5473 -0.0574
 9163TIP3    H148904   2.512   3.128   4.380  3.3284  1.7900 -0.2239
 9163TIP3    H248905   2.443   3.230   4.292 -1.5283 -0.8077  0.2625
 9164TIP3   OH248906   1.130   3.696  15.347  0.5076 -1.0753  0.0297
 9164TIP3    H148907   1.200   3.692  15.281  0.4546  0.4538 -0.1545
 9164TIP3    H248908   1.146   3.778  15.394  0.3126 -1.9398  1.6867
 9165TIP3   OH248909   0.627   4.755  13.147 -0.2070 -0.0438  0.0462
 9165TIP3    H148910   0.552   4.697  13.159  0.7619 -2.0059 -2.3361
 9165TIP3    H248911   0.600   4.813  13.076 -0.5128  1.2587  1.2048
 9166TIP3   OH248912   3.158   1.301   2.753  0.4379 -0.0326 -0.3949
 9166TIP3    H148913   3.221   1.246   2.706  0.9686 -0.7887  1.1598
 9166TIP3    H248914   3.134   1.250   2.830  1.2010  2.0169  1.2827
 9167TIP3   OH248915   0.355   5.021  16.466 -0.0412  0.8749 -0.2068
 9167TIP3    H148916   0.327   4.976  16.546  1.1921 -0.4173 -0.4481
 9167TIP3    H248917   0.377   4.950  16.405  2.0349  1.7486 -0.5849
 9168TIP3   OH248918   6.036   0.310   1.911 -0.7732  1.1824  0.7413
 9168TIP3    H148919   6.019   0.233   1.858 -0.9405  1.5674  0.2218
 9168TIP3    H248920   6.083   0.370   1.853 -1.1009  1.6750  0.9673
 9169TIP3   OH248921   0.887   4.656   2.277  0.4455  0.6900  0.1167
 9169TIP3    H148922   0.835   4.718   2.226 -0.9644 -0.1958  0.4202
 9169TIP3    H248923   0.844   4.572   2.263  0.8342  0.1976  1.6692
 9170TIP3   OH248924   5.233   2.682   4.410 -0.1786  0.8500 -0.3549
 9170TIP3    H148925   5.180   2.604   4.402  1.1786 -0.1988  0.4475
 9170TIP3    H248926   5.324   2.651   4.407  0.4097  2.4740 -0.8570
 9171TIP3   OH248927   2.948   6.337   3.570  0.1093  0.5556 -0.6847
 9171TIP3    H148928   2.952   6.394   3.493 -0.1006 -0.0546 -1.1568
 9171TIP3    H248929   2.868   6.364   3.616 -0.5167  0.0081 -1.4233
 9172TIP3   OH248930   1.650   3.684  13.533 -0.1389  0.1164 -0.4539
 9172TIP3    H148931   1.642   3.710  13.441 -1.8794  1.2788 -0.0181
 9172TIP3    H248932   1.721   3.737  13.567 -0.1982  0.4615 -0.8598
 9173TIP3   OH248933   0.348   0.205  13.634  0.3326  0.6010 -0.6174
 9173TIP3    H148934   0.321   0.158  13.556 -2.2541 -0.3435  0.7451
 9173TIP3    H248935   0.428   0.160  13.663 -0.5872 -1.2365 -0.8413
 9174TIP3   OH248936   2.938   6.581  15.964  0.6632  0.0673  0.0170
 9174TIP3    H148937   2.882   6.548  16.034  1.4204 -0.8142  0.2184
 9174TIP3    H248938   2.936   6.512  15.898 -2.0439  1.8778 -2.0375
 9175TIP3   OH248939   3.597   4.414  16.648 -0.2682  0.2336  0.2539
 9175TIP3    H148940   3.677   4.400  16.598 -0.4624 -2.6990  0.6220
 9175TIP3    H248941   3.624   4.470  16.721  0.6438  2.1068 -1.4075
 9176TIP3   OH248942   5.051   1.839   1.176 -0.7290 -0.4464 -0.6807
 9176TIP3    H148943   5.138   1.817   1.208 -0.2057 -1.6600 -2.6828
 9176TIP3    H248944   5.000   1.758   1.188 -1.1843 -0.1621 -0.6872
 9177TIP3   OH248945   4.774   1.550   5.390  0.4623  0.0473  0.1287
 9177TIP3    H148946   4.731   1.622   5.435  1.6798  1.2696 -0.5893
 9177TIP3    H248947   4.842   1.592   5.336  1.7576 -1.6856  0.3133
 9178TIP3   OH248948   1.285   6.542   3.931 -0.1106  0.4171 -0.0766
 9178TIP3    H148949   1.239   6.560   4.013  0.6775  2.8958 -0.1037
 9178TIP3    H248950   1.263   6.616   3.874  0.3313 -0.6415 -1.7051
 9179TIP3   OH248951   3.500   1.394   1.198  0.6516  0.6812 -0.1336
 9179TIP3    H148952   3.424   1.449   1.180 -0.9327 -0.6256  2.1012
 9179TIP3    H248953   3.511   1.343   1.117 -0.9106  0.8376 -0.4832
 9180TIP3   OH248954   2.009   1.892   0.562 -0.4012  0.1074 -0.4011
 9180TIP3    H148955   2.065   1.969   0.573 -0.7275  0.4016 -0.7881
 9180TIP3    H248956   2.027   1.861   0.473  0.3712 -0.7868  0.0448
 9181TIP3   OH248957   1.818   0.100   5.509 -0.5184 -0.1640 -0.0133
 9181TIP3    H148958   1.773   0.061   5.434  0.7712 -0.3009 -0.7479
 9181TIP3    H248959   1.848   0.025   5.560  3.6005 -0.4614 -2.3835
 9182TIP3   OH248960   5.242   6.437  14.347 -0.5665  0.1128  0.0793
 9182TIP3    H148961   5.309   6.482  14.295 -0.7550  0.2071 -0.0823
 9182TIP3    H248962   5.222   6.358  14.298  0.0987 -0.3854  0.5939
 9183TIP3   OH248963   5.522   4.059  12.591 -0.0209  0.3839 -0.1359
 9183TIP3    H148964   5.449   3.998  12.589 -0.0859  0.3982  1.0821
 9183TIP3    H248965   5.597   4.010  12.557 -0.4359  0.1656 -0.7502
 9184TIP3   OH248966   5.758   4.254   1.847  0.8182 -0.0544  0.2619
 9184TIP3    H148967   5.696   4.223   1.912 -0.3047 -0.3482 -0.9209
 9184TIP3    H248968   5.779   4.343   1.875  0.2847 -0.1443  0.9749
 9185TIP3   OH248969   1.253   4.536   5.691  0.1058 -0.0670  0.1003
 9185TIP3    H148970   1.337   4.513   5.731  0.0010  0.4668  0.6246
 9185TIP3    H248971   1.248   4.480   5.613  1.5633  0.8518 -0.6864
 9186TIP3   OH248972   1.026   6.249  13.455 -0.5101 -0.0245 -0.8044
 9186TIP3    H148973   1.018   6.314  13.386 -0.4899  0.5120 -0.3084
 9186TIP3    H248974   0.937   6.217  13.469 -0.3306 -1.1714 -2.0441
 9187TIP3   OH248975   0.625   2.939   0.794  0.3348  0.0040  0.2994
 9187TIP3    H148976   0.530   2.943   0.798  0.3350  0.4983 -0.1104
 9187TIP3    H248977   0.652   2.911   0.881 -0.1665  0.3305  0.5609
 9188TIP3   OH248978   5.149   5.769   2.005 -0.1437  0.7291  0.0582
 9188TIP3    H148979   5.236   5.800   1.978  0.0838 -1.1059 -1.5892
 9188TIP3    H248980   5.156   5.759   2.100  0.7669  2.5136  0.2301
 9189TIP3   OH248981   3.382   3.968   3.605  0.5615  0.6939  0.7153
 9189TIP3    H148982   3.387   4.048   3.552  1.3240 -0.6473 -1.3365
 9189TIP3    H248983   3.448   3.982   3.674  1.2680  1.5173 -0.0920
 9190TIP3   OH248984   4.364   0.814  14.464 -0.4125  0.2023 -0.6287
 9190TIP3    H148985   4.396   0.761  14.391  0.8818  1.0086 -0.6764
 9190TIP3    H248986   4.443   0.848  14.505 -1.1025 -0.2906  1.2098
 9191TIP3   OH248987   1.494   2.013   0.272  0.0909  0.5214  0.7617
 9191TIP3    H148988   1.581   1.974   0.264  0.6745  1.3255  2.7193
 9191TIP3    H248989   1.436   1.950   0.229  1.7048  0.4620 -1.5696
 9192TIP3   OH248990   2.344   1.888  14.478  0.7822  0.3718  0.5642
 9192TIP3    H148991   2.436   1.915  14.479  0.3843  1.8032  0.7928
 9192TIP3    H248992   2.300   1.955  14.425  0.0408 -0.9591 -0.6004
 9193TIP3   OH248993   0.185   5.785  13.104  0.3853  0.1918 -0.1148
 9193TIP3    H148994   0.211   5.717  13.042 -1.6329 -0.7750  0.0428
 9193TIP3    H248995   0.095   5.807  13.081  0.0073  0.7154  1.6734
 9194TIP3   OH248996   0.250   6.625  17.047 -0.0607 -0.1622 -0.2090
 9194TIP3    H148997   0.166   6.602  17.086  0.1957 -0.1651  0.3450
 9194TIP3    H248998   0.228   6.687  16.977 -0.6472 -1.1446 -0.9307
 9195TIP3   OH248999   0.307   6.683   1.525  0.1593  0.2505 -0.1145
 9195TIP3    H149000   0.303   6.778   1.534 -0.6608  0.2319 -0.1769
 9195TIP3    H249001   0.382   6.656   1.577  1.2415  1.0662 -1.2071
 9196TIP3   OH249002   4.849   0.010  11.834 -0.0729  0.0335 -0.1543
 9196TIP3    H149003   4.858   0.074  11.763  0.8072  1.9325  1.5697
 9196TIP3    H249004   4.882  -0.072  11.797 -0.0349  0.8555 -2.0509
 9197TIP3   OH249005   5.211   1.430  12.922 -0.5975  0.1734  0.1418
 9197TIP3    H149006   5.286   1.410  12.977 -1.8000 -0.6486  1.5713
 9197TIP3    H249007   5.234   1.395  12.836  0.0969 -1.3985  0.9207
 9198TIP3   OH249008   0.615   0.977  12.410  0.1624 -0.0867 -0.3431
 9198TIP3    H149009   0.640   0.913  12.343  1.6262 -0.0601  0.1285
 9198TIP3    H249010   0.535   0.942  12.449 -2.0757  1.0301 -3.5585
 9199TIP3   OH249011   6.189   0.423   6.389  0.3117 -0.5133 -0.3981
 9199TIP3    H149012   6.258   0.433   6.324  0.8954  0.2302  0.3169
 9199TIP3    H249013   6.177   0.510   6.426  0.8557 -1.1288  1.3422
 9200TIP3   OH249014   0.365   6.687  15.949 -0.2360  0.2653 -0.0521
 9200TIP3    H149015   0.373   6.612  16.008  1.8780  0.4908  0.0427
 9200TIP3    H249016   0.378   6.650  15.862  0.5645  0.4409 -0.0238
 9201TIP3   OH249017   6.273   4.924   3.838  0.2223 -0.0116 -0.3179
 9201TIP3    H149018   6.321   4.859   3.787  0.4654 -0.4757  0.4852
 9201TIP3    H249019   6.181   4.902   3.824  0.3050 -0.6685  0.0986
 9202TIP3   OH249020   2.602   6.191  14.669  0.0022  0.7221  0.0019
 9202TIP3    H149021   2.590   6.285  14.659 -0.9462  0.4346 -2.1205
 9202TIP3    H249022   2.687   6.173  14.630 -0.0610  0.6572 -0.1106
 9203TIP3   OH249023   0.627   3.577   0.679  0.2476  0.1882 -0.2388
 9203TIP3    H149024   0.665   3.550   0.595 -0.9799 -0.4900 -0.6034
 9203TIP3    H249025   0.535   3.597   0.658 -1.1167 -3.4317  1.4835
 9204TIP3   OH249026   2.654   2.494   5.164  0.2281 -0.0672  0.0771
 9204TIP3    H149027   2.602   2.573   5.182  1.0270  0.8548 -1.4184
 9204TIP3    H249028   2.605   2.449   5.095 -0.3814 -1.0695  1.1340
 9205TIP3   OH249029   4.352   1.238  13.275 -0.1763 -0.2932  0.1582
 9205TIP3    H149030   4.395   1.300  13.217 -1.0003  0.2939  0.1662
 9205TIP3    H249031   4.417   1.169  13.289  0.4512  0.1577 -0.4995
 9206TIP3   OH249032   5.657   5.693  13.760  0.2868 -0.1978 -0.6854
 9206TIP3    H149033   5.652   5.635  13.684  0.9571 -0.9879 -0.1453
 9206TIP3    H249034   5.738   5.668  13.805 -0.8416 -0.8029  1.1250
 9207TIP3   OH249035   4.385   2.820  16.733  0.2069  0.2406  0.2419
 9207TIP3    H149036   4.320   2.780  16.674 -2.1104  3.5795  0.1924
 9207TIP3    H249037   4.361   2.788  16.820  0.9250 -1.4112 -0.1339
 9208TIP3   OH249038   3.190   3.459  15.071  0.0970 -0.0175  0.1075
 9208TIP3    H149039   3.191   3.517  14.995  1.1341 -1.2675 -0.8797
 9208TIP3    H249040   3.276   3.417  15.070 -0.5783 -1.4916  0.8340
 9209TIP3   OH249041   5.399   6.109  15.308  0.2122  0.3914  0.1165
 9209TIP3    H149042   5.325   6.142  15.256 -0.2329 -1.3130 -0.4106
 9209TIP3    H249043   5.393   6.156  15.391 -0.9901  0.8572 -0.2098
 9210TIP3   OH249044   6.151   1.119   4.673  0.3506  0.0049 -0.2906
 9210TIP3    H149045   6.216   1.147   4.737  0.9222  0.1102 -0.9111
 9210TIP3    H249046   6.067   1.147   4.710  0.7528  0.8298  0.0070
 9211TIP3   OH249047   3.198   4.901   1.172  0.2525 -0.5182 -0.5159
 9211TIP3    H149048   3.202   4.887   1.266 -0.4200 -1.2739 -0.5858
 9211TIP3    H249049   3.290   4.903   1.144  0.4594 -2.4786 -0.1237
 9212TIP3   OH249050   3.425   5.125  16.873 -0.1287  0.3551  0.0592
 9212TIP3    H149051   3.360   5.118  16.943  0.1434  2.3707  0.5594
 9212TIP3    H249052   3.509   5.107  16.915  0.0966  2.0712  0.4353
 9213TIP3   OH249053   1.446   1.999  16.656 -0.0025  0.0783 -0.7845
 9213TIP3    H149054   1.354   1.982  16.677  0.2400  1.2926  1.6662
 9213TIP3    H249055   1.495   1.950  16.723  1.1009  0.3342 -1.3789
 9214TIP3   OH249056   5.506   5.792   2.225  0.0665  0.8525  0.1924
 9214TIP3    H149057   5.553   5.726   2.174 -0.5205  2.1410 -2.1743
 9214TIP3    H249058   5.566   5.815   2.296  0.5322 -1.6980  0.7029
 9215TIP3   OH249059   5.026   2.781   5.535 -0.0713  0.1323 -0.6392
 9215TIP3    H149060   4.995   2.859   5.488 -0.3267  0.1045 -0.5198
 9215TIP3    H249061   4.950   2.752   5.586  0.6693  1.1798  1.1492
 9216TIP3   OH249062   6.072   2.356  11.875 -0.5333 -0.4969 -0.3195
 9216TIP3    H149063   6.108   2.316  11.796  0.0318 -1.4123  0.3860
 9216TIP3    H249064   6.141   2.345  11.941 -1.7855 -1.6165  0.8571
 9217TIP3   OH249065   0.502   5.527   1.410  0.3638  0.1893 -0.1071
 9217TIP3    H149066   0.539   5.546   1.496  1.5327  0.1219 -0.5773
 9217TIP3    H249067   0.575   5.540   1.349 -0.6043  0.8849 -1.1664
 9218TIP3   OH249068   5.455   5.223  13.881  0.9980 -0.0016 -0.4966
 9218TIP3    H149069   5.483   5.160  13.947 -0.1490 -0.1775 -0.1584
 9218TIP3    H249070   5.473   5.308  13.920 -1.3728 -0.0576  0.8786
 9219TIP3   OH249071   0.534   3.137   1.262 -0.4865  0.0270 -0.4233
 9219TIP3    H149072   0.562   3.173   1.177 -0.3276  0.9098 -0.0106
 9219TIP3    H249073   0.442   3.161   1.269 -1.2703 -2.4041 -1.5359
 9220TIP3   OH249074   6.380   6.248   0.082  0.0685 -0.2304 -0.5444
 9220TIP3    H149075   6.375   6.264  -0.013 -0.8285  3.4361 -0.0186
 9220TIP3    H249076   6.288   6.252   0.111  0.5242  1.7233  0.8064
 9221TIP3   OH249077   4.942   0.395  13.196  0.6649  0.0599 -0.1381
 9221TIP3    H149078   4.852   0.394  13.163  0.3655 -1.5496  0.5978
 9221TIP3    H249079   4.996   0.400  13.117 -0.0554  0.9258 -0.5967
 9222TIP3   OH249080   3.690   6.710  16.233  0.7209  0.0088  0.0639
 9222TIP3    H149081   3.734   6.679  16.154  1.4156  3.4873 -1.0980
 9222TIP3    H249082   3.614   6.760  16.200  1.9748  2.9933  1.3048
 9223TIP3   OH249083   2.062   6.606  16.991 -0.3487 -0.1925  0.7348
 9223TIP3    H149084   2.071   6.515  16.962 -0.4437 -0.2539  0.8969
 9223TIP3    H249085   2.045   6.655  16.910  0.2781 -0.2373  0.5770
 9224TIP3   OH249086   3.014   6.367  13.171 -0.0795  0.5076  0.0497
 9224TIP3    H149087   2.940   6.426  13.182 -0.9968 -0.3461 -1.2378
 9224TIP3    H249088   3.044   6.383  13.082  0.7057  0.1904  0.2483
 9225TIP3   OH249089   2.741   1.094   2.195 -0.6345 -0.7538  0.2502
 9225TIP3    H149090   2.709   1.028   2.134 -0.6931  0.2057 -0.7893
 9225TIP3    H249091   2.836   1.086   2.192 -0.6601 -1.4431  0.8934
 9226TIP3   OH249092   2.189   6.324   0.920 -0.4941 -0.0676 -0.3657
 9226TIP3    H149093   2.140   6.330   0.838  0.3840 -0.1266 -0.9011
 9226TIP3    H249094   2.278   6.302   0.893 -0.5770 -1.9389  0.6904
 9227TIP3   OH249095   5.025   4.244  13.273 -0.3802 -0.0343 -0.4073
 9227TIP3    H149096   5.046   4.316  13.213  1.0752  0.5732  0.7749
 9227TIP3    H249097   5.025   4.166  13.217  1.2029  0.4897 -1.1844
 9228TIP3   OH249098   4.050   2.223   6.221  0.1494 -0.5234  0.0833
 9228TIP3    H149099   4.112   2.287   6.257  0.3489  0.1457 -1.4034
 9228TIP3    H249100   4.075   2.140   6.263  1.2925 -0.0436  0.3954
 9229TIP3   OH249101   4.743   3.968  14.175 -0.3557 -0.1093  0.0987
 9229TIP3    H149102   4.757   3.923  14.092 -1.9258  0.5073 -0.5489
 9229TIP3    H249103   4.788   4.052  14.165 -0.8871  0.1350 -0.3127
 9230TIP3   OH249104   6.525   1.466  11.718 -0.6684  0.3198  0.2222
 9230TIP3    H149105   6.578   1.424  11.786 -2.4216 -0.4745  1.1620
 9230TIP3    H249106   6.536   1.560  11.733 -0.5096  0.1535  1.1819
 9231TIP3   OH249107   5.036   0.160  11.538  0.0811  0.6496  0.1328
 9231TIP3    H149108   5.032   0.195  11.449  0.5302  1.7635  0.5283
 9231TIP3    H249109   5.014   0.235  11.594 -2.3073 -0.5399  0.8998
 9232TIP3   OH249110   5.363   2.000   6.161 -0.2545 -0.5348  0.3199
 9232TIP3    H149111   5.288   1.972   6.109 -0.3459 -0.0112  0.1564
 9232TIP3    H249112   5.328   2.069   6.218  0.0350 -0.4995  0.4599
 9233TIP3   OH249113   4.484   2.699   5.821 -0.3455 -0.0783 -0.3110
 9233TIP3    H149114   4.505   2.613   5.785  0.9751  0.1661 -0.1814
 9233TIP3    H249115   4.548   2.711   5.892 -2.8542 -0.5687  2.2075
 9234TIP3   OH249116   0.717   2.016  17.287 -0.9555 -0.4487 -0.2328
 9234TIP3    H149117   0.757   2.000  17.202  2.0647 -0.0866  0.9673
 9234TIP3    H249118   0.790   2.046  17.342 -1.9841 -3.6157  3.3208
 9235TIP3   OH249119   2.789   5.245  17.125  0.0644  0.2150  0.4250
 9235TIP3    H149120   2.777   5.150  17.131  0.9439 -0.0028 -0.8501
 9235TIP3    H249121   2.734   5.272  17.052 -0.3168  0.7313  0.8901
 9236TIP3   OH249122   4.693   0.306   3.284  0.0079 -0.1002 -0.1097
 9236TIP3    H149123   4.656   0.277   3.367  0.8880  1.7529  1.0054
 9236TIP3    H249124   4.787   0.292   3.294  0.3398  1.9089  0.0330
 9237TIP3   OH249125   2.004   1.680  14.479  0.1611  0.5012  0.4941
 9237TIP3    H149126   2.008   1.730  14.561  0.9054 -0.9226  1.3676
 9237TIP3    H249127   1.952   1.603  14.501 -1.1458  0.9348 -0.8848
 9238TIP3   OH249128   0.478   0.482  13.330 -0.2148 -0.1052  0.6222
 9238TIP3    H149129   0.392   0.508  13.364  0.1847  0.9563  0.8647
 9238TIP3    H249130   0.462   0.401  13.283 -1.1710 -0.4735  1.5512
 9239TIP3   OH249131   1.193   0.882   3.758  0.0894 -0.0084 -0.3531
 9239TIP3    H149132   1.226   0.902   3.846 -2.7522 -1.0412  1.0553
 9239TIP3    H249133   1.256   0.818   3.723 -0.1624 -1.7037  2.0715
 9240TIP3   OH249134   0.075   1.957   5.555 -0.4409  0.6143 -0.3812
 9240TIP3    H149135   0.074   1.913   5.470 -2.7501  0.6477 -0.4275
 9240TIP3    H249136  -0.010   1.937   5.594  0.4199  0.9068  1.7921
 9241TIP3   OH249137   4.091   4.071   3.020 -0.5379  0.1921 -0.6068
 9241TIP3    H149138   4.021   4.006   3.028  1.1566 -1.7094 -0.0878
 9241TIP3    H249139   4.167   4.029   3.062  0.6589  2.5560 -0.2293
 9242TIP3   OH249140   5.932   0.711  17.275 -0.5047  0.0941  1.0022
 9242TIP3    H149141   5.999   0.766  17.315 -0.2636 -0.3992  1.2943
 9242TIP3    H249142   5.863   0.706  17.341 -0.7872  0.5145  0.7444
 9243TIP3   OH249143   3.102   5.035   2.358  0.1672  0.0381 -0.4242
 9243TIP3    H149144   3.194   5.060   2.355  0.6117 -1.5474 -0.6681
 9243TIP3    H249145   3.102   4.940   2.349 -1.5102  0.0240 -0.6409
 9244TIP3   OH249146   5.093   3.537   1.617 -0.1633 -0.4544  0.0251
 9244TIP3    H149147   5.038   3.565   1.690  1.4221 -2.2334  2.0927
 9244TIP3    H249148   5.166   3.599   1.617 -0.4141 -0.1648 -0.3534
 9245TIP3   OH249149   3.847   2.884  11.589 -0.0910  0.1291 -0.4707
 9245TIP3    H149150   3.873   2.792  11.598  0.7466  0.3440 -0.5301
 9245TIP3    H249151   3.903   2.917  11.518 -0.1915  0.7527 -0.2637
 9246TIP3   OH249152   2.252   4.911  15.693 -0.3130 -0.1817 -0.2582
 9246TIP3    H149153   2.346   4.893  15.700 -0.3686 -0.4894 -0.2918
 9246TIP3    H249154   2.243   4.957  15.609 -0.0972  0.5104  0.0874
 9247TIP3   OH249155   2.819   4.758  12.901  0.2615 -0.5195  0.2984
 9247TIP3    H149156   2.790   4.803  12.822  0.9973 -0.7780 -0.1294
 9247TIP3    H249157   2.822   4.827  12.968  1.0506  0.0155 -0.2648
 9248TIP3   OH249158   0.520   3.023  11.296 -0.1916 -0.1504 -0.3376
 9248TIP3    H149159   0.606   3.019  11.254 -0.0256 -1.2744  0.0777
 9248TIP3    H249160   0.501   3.117  11.302  2.2239  0.3208  1.9921
 9249TIP3   OH249161   2.963   3.364   1.382 -0.0315 -0.0648 -0.9345
 9249TIP3    H149162   2.997   3.415   1.455  1.1557 -0.5211 -1.1417
 9249TIP3    H249163   2.869   3.357   1.399  0.2460 -0.2998  0.6353
 9250TIP3   OH249164   0.761   3.588  11.565 -0.3220  0.1385 -0.9275
 9250TIP3    H149165   0.781   3.618  11.653  2.3829 -0.4099 -1.2881
 9250TIP3    H249166   0.761   3.667  11.511 -0.9908  0.3485 -0.6344
 9251TIP3   OH249167   6.582   3.891  12.806  0.0574  0.0013 -0.2089
 9251TIP3    H149168   6.580   3.824  12.738  1.1991 -0.4705  0.1840
 9251TIP3    H249169   6.510   3.868  12.865  0.0661 -0.5250 -0.4025
 9252TIP3   OH249170   1.500   5.696  12.066 -0.2933  0.0619 -0.3527
 9252TIP3    H149171   1.467   5.742  12.144 -0.3653 -0.7132  0.0867
 9252TIP3    H249172   1.518   5.608  12.097  0.3510 -0.0632 -1.0590
 9253TIP3   OH249173   3.243   5.667  12.721 -0.5346 -0.4408 -0.0273
 9253TIP3    H149174   3.306   5.679  12.792 -1.8160 -1.4265  1.3342
 9253TIP3    H249175   3.295   5.632  12.649  0.2992 -2.5632  1.5130
 9254TIP3   OH249176   2.756   4.304   3.337 -0.8266 -0.6164  0.2035
 9254TIP3    H149177   2.707   4.224   3.352  0.0238 -1.2899 -0.4876
 9254TIP3    H249178   2.776   4.338   3.424 -2.3267 -0.4147  0.5040
 9255TIP3   OH249179   3.700   2.690  16.447 -0.0813  0.1515  0.1988
 9255TIP3    H149180   3.609   2.665  16.432 -0.5181  2.0596 -0.5629
 9255TIP3    H249181   3.751   2.618  16.409 -1.1887 -1.6757  1.9055
 9256TIP3   OH249182   1.143   0.674  11.333  0.2262 -0.2664 -0.0736
 9256TIP3    H149183   1.116   0.657  11.242  0.6773 -1.1138 -0.0579
 9256TIP3    H249184   1.123   0.593  11.380 -1.9062  0.8496  1.0669
 9257TIP3   OH249185   0.584   5.084  12.510 -0.3000  0.1835  0.1712
 9257TIP3    H149186   0.634   5.025  12.567  1.1696  0.4638 -0.7682
 9257TIP3    H249187   0.533   5.138  12.570 -1.3649 -1.7219  1.0865
 9258TIP3   OH249188   3.151   1.173   5.569  0.4064 -0.7829 -0.7236
 9258TIP3    H149189   3.113   1.094   5.531 -0.9228  0.1158 -1.3716
 9258TIP3    H249190   3.135   1.241   5.503  1.5933  0.0061 -0.2169
 9259TIP3   OH249191   6.466   2.283   6.749 -0.8523 -0.1528  0.0461
 9259TIP3    H149192   6.454   2.189   6.753 -0.3735 -0.4085 -2.6271
 9259TIP3    H249193   6.521   2.304   6.825 -1.6991 -1.8394  1.1824
 9260TIP3   OH249194   0.076   3.287   6.321  0.0488 -0.2794 -0.5015
 9260TIP3    H149195  -0.002   3.330   6.287  0.3013 -0.8147 -1.8512
 9260TIP3    H249196   0.144   3.355   6.321  0.1199 -0.3312 -1.4094
 9261TIP3   OH249197   5.103   2.231   5.456 -0.4673  0.2304  0.2360
 9261TIP3    H149198   5.062   2.150   5.427 -0.7932  0.7523 -0.8266
 9261TIP3    H249199   5.039   2.272   5.513  0.1635 -0.7898  1.7569
 9262TIP3   OH249200   4.659   6.396  11.593  0.1054  0.1440 -0.2760
 9262TIP3    H149201   4.605   6.322  11.622  1.6383 -1.4783 -1.3768
 9262TIP3    H249202   4.709   6.362  11.519  0.8915  2.3028 -0.8218
 9263TIP3   OH249203   5.589   3.287   3.923 -0.0994 -0.4500 -0.4826
 9263TIP3    H149204   5.681   3.286   3.950 -0.5134  0.0405  1.0396
 9263TIP3    H249205   5.549   3.214   3.969 -0.7390  0.1328 -0.0937
 9264TIP3   OH249206   1.984   0.703   4.215 -0.2162  0.9064  0.1131
 9264TIP3    H149207   1.915   0.659   4.264  1.5126 -0.0866  1.7714
 9264TIP3    H249208   2.041   0.742   4.281  1.6972  0.3216 -1.0909
 9265TIP3   OH249209   2.549   5.462  11.022  0.6312  0.0367 -0.2025
 9265TIP3    H149210   2.637   5.470  10.985  1.2517  1.0859  1.3909
 9265TIP3    H249211   2.497   5.527  10.975  0.5744 -0.8188 -1.3904
 9266TIP3   OH249212   1.987   3.954   2.660 -0.2054 -0.0577 -0.3845
 9266TIP3    H149213   2.040   3.888   2.705 -1.8764  0.0123  1.8783
 9266TIP3    H249214   1.919   3.903   2.615 -0.1366  0.0056 -0.5601
 9267TIP3   OH249215   5.793   3.854  15.989 -0.0757  0.6464  0.3229
 9267TIP3    H149216   5.862   3.787  15.989  0.1211  0.8438  0.8087
 9267TIP3    H249217   5.821   3.917  16.056  0.1886  1.6833 -0.7346
 9268TIP3   OH249218   5.989   2.843  14.495  0.3338 -0.0942  0.3392
 9268TIP3    H149219   6.001   2.762  14.544 -2.3305 -0.6545  0.1974
 9268TIP3    H249220   5.914   2.886  14.537 -1.5740 -0.2253 -2.6335
 9269TIP3   OH249221   5.790   0.031  13.105  0.2009 -0.1683 -0.0634
 9269TIP3    H149222   5.815  -0.048  13.057 -0.5521 -0.8225  0.5761
 9269TIP3    H249223   5.795   0.005  13.197 -1.9268 -0.1107  0.1358
 9270TIP3   OH249224   6.230   5.420  11.898  0.8697  0.0757 -0.2954
 9270TIP3    H149225   6.151   5.369  11.880  0.9837 -0.3632  0.4251
 9270TIP3    H249226   6.301   5.355  11.897  1.2268  0.4606 -0.9009
 9271TIP3   OH249227   5.972   0.963   2.595  0.4338 -0.6769  0.4453
 9271TIP3    H149228   5.950   0.923   2.679  2.7450 -1.4417  0.7446
 9271TIP3    H249229   5.949   1.055   2.605  0.5702 -0.7823  1.8721
 9272TIP3   OH249230   2.541   5.775   3.290 -0.0224 -0.7161  0.4717
 9272TIP3    H149231   2.586   5.858   3.275 -1.8988  0.1141 -1.0185
 9272TIP3    H249232   2.519   5.744   3.202  2.1749 -3.7759  0.8345
 9273TIP3   OH249233   5.550   6.256   2.960 -0.3884 -0.1448  0.1462
 9273TIP3    H149234   5.513   6.211   3.036  0.5317  0.9075  1.2663
 9273TIP3    H249235   5.639   6.221   2.952 -0.6775 -0.6974 -0.8533
 9274TIP3   OH249236   2.579   5.634   0.101 -0.1285 -0.2207  0.2561
 9274TIP3    H149237   2.584   5.591   0.015 -1.1194 -1.3547  0.7343
 9274TIP3    H249238   2.669   5.635   0.133  0.1936 -0.1321 -0.6285
 9275TIP3   OH249239   5.563   5.053  12.011 -0.3850  0.7347  0.4407
 9275TIP3    H149240   5.508   5.059  11.933 -1.0567 -2.4623  0.5463
 9275TIP3    H249241   5.583   4.960  12.020  0.7178  1.1312  3.3849
 9276TIP3   OH249242   1.220   3.303  16.597 -0.2234  0.2750  0.2213
 9276TIP3    H149243   1.314   3.293  16.614 -0.7212 -0.5648  3.0063
 9276TIP3    H249244   1.191   3.216  16.571 -0.2328  0.6120 -0.9941
 9277TIP3   OH249245   5.328   1.138   4.625 -0.1933  0.0442  0.0269
 9277TIP3    H149246   5.285   1.143   4.540  0.0333  0.5210 -0.0673
 9277TIP3    H249247   5.279   1.199   4.680 -0.8066 -0.8223  0.4559
 9278TIP3   OH249248   4.824   0.533   5.413  0.4068 -0.1319 -0.6859
 9278TIP3    H149249   4.746   0.588   5.409  1.4133  1.4216  0.1833
 9278TIP3    H249250   4.891   0.582   5.366  1.0811 -1.1112 -0.7913
 9279TIP3   OH249251   3.381   3.813   1.007  0.1074  0.4003  0.4479
 9279TIP3    H149252   3.390   3.810   0.912  0.0084 -2.0495  0.4413
 9279TIP3    H249253   3.351   3.725   1.031  0.3667  0.8732  2.7599
 9280TIP3   OH249254   4.512   0.141  13.848  0.0259 -0.4395 -0.0876
 9280TIP3    H149255   4.431   0.104  13.812 -0.4432  2.0752 -1.9034
 9280TIP3    H249256   4.492   0.155  13.941 -1.9265  0.7537 -0.6261
 9281TIP3   OH249257   3.923   1.445  11.482  0.3398  0.6250 -0.6944
 9281TIP3    H149258   3.846   1.489  11.519 -1.6865 -1.6449 -1.9270
 9281TIP3    H249259   3.941   1.373  11.542 -0.3336 -0.5502 -1.8546
 9282TIP3   OH249260   1.926   3.810  14.075 -0.2323 -0.3053 -0.0919
 9282TIP3    H149261   1.882   3.847  14.151 -1.1365  0.3447 -0.8998
 9282TIP3    H249262   2.020   3.824  14.091 -0.4987  1.3328  0.1424
 9283TIP3   OH249263   0.202   3.516  10.830 -0.0213 -0.3672  0.3626
 9283TIP3    H149264   0.268   3.581  10.807  1.1443 -1.5819  0.2151
 9283TIP3    H249265   0.235   3.433  10.796 -0.6320 -1.3621  2.0533
 9284TIP3   OH249266   2.221   1.224   5.341 -0.0485 -0.4892  0.1775
 9284TIP3    H149267   2.268   1.240   5.423 -2.7290  2.3527  1.3596
 9284TIP3    H249268   2.290   1.222   5.275  2.1627 -2.2070  2.3245
 9285TIP3   OH249269   6.335   4.522   6.777  0.5418  0.3378 -0.1094
 9285TIP3    H149270   6.317   4.610   6.746  1.5800  0.4447 -0.4437
 9285TIP3    H249271   6.344   4.469   6.697 -1.3097 -0.3474  0.0948
 9286TIP3   OH249272   4.468   5.043   0.140  0.4534  0.4064  0.3875
 9286TIP3    H149273   4.404   4.972   0.149 -1.4664  1.8748 -1.0471
 9286TIP3    H249274   4.456   5.096   0.218  0.1433  0.4880  0.2868
 9287TIP3   OH249275   3.500   5.800   6.767 -0.4123 -0.2800  0.0917
 9287TIP3    H149276   3.456   5.759   6.692 -2.1626  0.4705  0.6573
 9287TIP3    H249277   3.506   5.730   6.832  0.3175 -0.6990 -0.4143
 9288TIP3   OH249278   1.948   6.749   0.551  0.0045  0.4035 -0.1689
 9288TIP3    H149279   1.911   6.796   0.625  1.9274  0.3239  0.9298
 9288TIP3    H249280   1.905   6.664   0.553 -0.3511  0.5897  0.5498
 9289TIP3   OH249281   6.238   6.186   2.583  0.5402 -0.1945  0.7809
 9289TIP3    H149282   6.270   6.265   2.627 -0.4063  0.4404  0.3568
 9289TIP3    H249283   6.310   6.123   2.592  1.8630  1.1309  0.0028
 9290TIP3   OH249284   1.907   0.532  12.463 -0.0621  0.5495 -0.3849
 9290TIP3    H149285   1.930   0.601  12.526  0.0263 -0.8691  1.2106
 9290TIP3    H249286   1.974   0.465  12.477 -0.5298 -0.1475 -1.4436
 9291TIP3   OH249287   2.590   3.355  12.250 -0.3812  0.2576  0.3839
 9291TIP3    H149288   2.496   3.354  12.236 -0.1855  0.4353 -1.1832
 9291TIP3    H249289   2.616   3.446  12.232  0.5232 -0.5257 -3.0448
 9292TIP3   OH249290   0.375   3.159   3.858 -0.0388 -0.1133  0.4948
 9292TIP3    H149291   0.358   3.243   3.901 -0.5993  0.4840 -0.8172
 9292TIP3    H249292   0.454   3.174   3.807 -2.1432  0.9352 -2.7873
 9293TIP3   OH249293   1.099   0.249   3.120  0.1889 -0.5690 -0.3585
 9293TIP3    H149294   1.095   0.295   3.036  1.9081 -1.7593 -1.1341
 9293TIP3    H249295   1.008   0.240   3.146 -0.3418  0.5896 -1.6571
 9294TIP3   OH249296   2.011   1.706   1.835 -0.0649 -0.2151 -0.8492
 9294TIP3    H149297   2.078   1.732   1.899  0.8442 -0.2926 -1.7410
 9294TIP3    H249298   1.969   1.629   1.875  1.4969 -1.1810 -0.9713
 9295TIP3   OH249299   6.193   1.163   5.750  0.1495  0.7097 -0.3382
 9295TIP3    H149300   6.133   1.095   5.780  0.3205  0.6576 -0.1058
 9295TIP3    H249301   6.138   1.239   5.734  0.0011  0.6146 -0.2818
 9296TIP3   OH249302   2.642   2.820  11.573  0.5346 -0.9753  0.1187
 9296TIP3    H149303   2.585   2.823  11.496 -0.3166  0.6171  0.7504
 9296TIP3    H249304   2.592   2.865  11.641  1.5894 -1.6474  1.3999
 9297TIP3   OH249305   4.948   5.032  14.494 -0.0843 -0.3947 -0.0543
 9297TIP3    H149306   5.037   5.068  14.484 -0.7942  1.2573 -0.8218
 9297TIP3    H249307   4.935   4.979  14.416 -0.1158  0.1962 -0.4620
 9298TIP3   OH249308   1.657   6.683  13.827 -0.2792 -0.3909 -0.0088
 9298TIP3    H149309   1.639   6.758  13.884 -0.1339 -0.1367 -0.2945
 9298TIP3    H249310   1.681   6.612  13.888  1.9748  0.4569  0.1849
 9299TIP3   OH249311   1.093   2.796  16.750  0.6567  0.6147  0.2363
 9299TIP3    H149312   1.041   2.783  16.672 -0.3523 -0.7200  1.0884
 9299TIP3    H249313   1.030   2.804  16.821  1.4730  3.4608  0.7763
 9300TIP3   OH249314   2.763   0.094  14.509 -0.0912 -0.5901 -0.3177
 9300TIP3    H149315   2.748   0.048  14.426  1.0455  0.4216 -1.1348
 9300TIP3    H249316   2.845   0.058  14.542 -0.2650 -0.6052  0.1066
 9301TIP3   OH249317   4.448   6.612  15.058 -0.3489 -0.1313  0.1167
 9301TIP3    H149318   4.505   6.543  15.025  0.1670 -0.7526  2.1664
 9301TIP3    H249319   4.363   6.570  15.070 -0.3995 -0.0485  0.0515
 9302TIP3   OH249320   0.872   1.622   1.240  0.5618  0.7882  0.2807
 9302TIP3    H149321   0.815   1.660   1.307 -1.5256 -0.1222 -0.9008
 9302TIP3    H249322   0.905   1.541   1.280  0.3057  0.8556  0.6369
 9303TIP3   OH249323   1.274   6.074  17.017  0.4126 -0.1917 -0.2589
 9303TIP3    H149324   1.330   6.004  17.050  2.0119  0.2486 -1.8506
 9303TIP3    H249325   1.252   6.127  17.094  0.1991 -1.7185  0.7609
 9304TIP3   OH249326   1.389   1.551  12.580 -0.4061  0.3631 -0.0938
 9304TIP3    H149327   1.397   1.575  12.672 -0.1036  0.0500 -0.0362
 9304TIP3    H249328   1.306   1.504  12.575 -0.0510 -0.3021  0.1729
 9305TIP3   OH249329   1.213   0.227   5.489 -0.1907  0.4677  0.1030
 9305TIP3    H149330   1.284   0.261   5.545 -1.1864 -0.7671  2.2155
 9305TIP3    H249331   1.187   0.303   5.437  1.1390  1.5545  0.9168
 9306TIP3   OH249332   5.806   6.432   1.112  0.1430  0.2874  0.5407
 9306TIP3    H149333   5.896   6.420   1.143  0.1697  1.2407  0.8604
 9306TIP3    H249334   5.751   6.410   1.187  0.1542  0.9754  0.7533
 9307TIP3   OH249335   5.059   6.629  16.076 -0.1314  0.0242  0.7866
 9307TIP3    H149336   5.092   6.665  16.159 -0.1080 -0.5594  1.0352
 9307TIP3    H249337   5.108   6.676  16.009 -2.2408  2.6959  0.9560
 9308TIP3   OH249338   4.086   6.583  11.292 -0.3770  0.2901 -0.0055
 9308TIP3    H149339   4.015   6.608  11.232 -0.6429  1.5678  0.8141
 9308TIP3    H249340   4.041   6.544  11.367 -0.0959 -0.4403 -0.2084
 9309TIP3   OH249341   3.701   0.288   1.561  0.5834 -0.5043  0.0795
 9309TIP3    H149342   3.610   0.290   1.592  1.2936  0.8980  2.3169
 9309TIP3    H249343   3.751   0.255   1.636  1.9200 -1.4898 -1.2035
 9310TIP3   OH249344   6.207   1.697   1.465  0.1413  0.3421  0.1406
 9310TIP3    H149345   6.247   1.725   1.547  0.8642 -0.6109  0.1245
 9310TIP3    H249346   6.277   1.703   1.400 -0.2331  0.4091 -0.2607
 9311TIP3   OH249347   5.559   0.550  17.232  0.0492 -0.4049 -0.3151
 9311TIP3    H149348   5.545   0.459  17.257  1.3038 -0.7386 -0.7367
 9311TIP3    H249349   5.558   0.598  17.316  1.0835 -1.0637  0.1009
 9312TIP3   OH249350   0.802   1.083  11.112 -0.4823 -0.3868 -0.4433
 9312TIP3    H149351   0.821   0.995  11.079  0.5718  0.1776 -1.4368
 9312TIP3    H249352   0.706   1.088  11.115 -0.5435 -1.6433 -0.1493
 9313TIP3   OH249353   6.455   4.521   5.157  0.3068 -0.2319 -0.0554
 9313TIP3    H149354   6.427   4.517   5.065  2.4710 -0.8148 -0.7587
 9313TIP3    H249355   6.448   4.431   5.188  0.0095 -0.1166  0.2110
 9314TIP3   OH249356   0.462   5.684  16.253  0.4029 -0.3585 -0.2042
 9314TIP3    H149357   0.518   5.736  16.196  1.6237  0.1868  1.4158
 9314TIP3    H249358   0.420   5.621  16.194 -0.4437  1.8251 -2.0998
 9315TIP3   OH249359   3.449   1.456  12.115  1.1001 -0.0953 -0.3384
 9315TIP3    H149360   3.416   1.536  12.073  0.7406  1.1992  2.2352
 9315TIP3    H249361   3.526   1.485  12.163  0.1945 -0.9662  1.7350
 9316TIP3   OH249362   6.390   5.186   2.507  0.1865  0.5608  0.7356
 9316TIP3    H149363   6.297   5.201   2.490  0.3657  0.1521 -0.7714
 9316TIP3    H249364   6.418   5.263   2.556 -0.3921  2.0119 -1.0690
 9317TIP3   OH249365   4.153   3.291  14.241 -0.6418  0.0209  0.2533
 9317TIP3    H149366   4.091   3.316  14.310  0.3309  1.0054  0.7956
 9317TIP3    H249367   4.107   3.223  14.191 -1.7616  0.0211  1.2441
 9318TIP3   OH249368   5.873   3.000   1.662  0.9868 -0.0992 -0.0367
 9318TIP3    H149369   5.878   2.935   1.732  0.8957  0.2668  0.3114
 9318TIP3    H249370   5.950   3.055   1.675  1.3746 -0.4768 -0.6774
 9319TIP3   OH249371   4.226   5.221   2.477  0.2872  0.4239 -0.0955
 9319TIP3    H149372   4.142   5.176   2.489  0.9058 -0.5550  0.8036
 9319TIP3    H249373   4.217   5.302   2.527 -0.5334  0.9033 -0.9975
 9320TIP3   OH249374   1.406   2.824   2.128 -0.2120  0.2526  0.1639
 9320TIP3    H149375   1.358   2.742   2.127 -1.9797  1.2495  0.2528
 9320TIP3    H249376   1.484   2.805   2.180 -0.9271 -1.1679  0.7679
 9321TIP3   OH249377   2.259   0.368  14.351 -0.0584 -0.7481  0.5034
 9321TIP3    H149378   2.241   0.457  14.319 -1.3813 -0.5924  1.5859
 9321TIP3    H249379   2.352   0.368  14.370  0.0203  0.3221  0.2062
 9322TIP3   OH249380   5.022   1.249  12.591 -0.3564 -0.2902  0.0205
 9322TIP3    H149381   4.941   1.298  12.604 -0.6349 -0.3837 -1.2410
 9322TIP3    H249382   4.999   1.159  12.613 -1.4520 -0.8691 -3.0178
 9323TIP3   OH249383   0.766   2.461   4.470 -0.5375 -0.7095  0.6239
 9323TIP3    H149384   0.784   2.554   4.478  0.7679 -0.7835 -1.0118
 9323TIP3    H249385   0.673   2.456   4.447 -0.3268  0.2662 -0.5178
 9324TIP3   OH249386   4.121   1.948   4.726 -0.2376 -0.2961 -0.3129
 9324TIP3    H149387   4.172   2.028   4.717 -0.5500  0.0017  0.4640
 9324TIP3    H249388   4.054   1.969   4.791 -1.0843 -0.8069 -0.9823
 9325TIP3   OH249389   3.106   3.991  17.245  0.2327  0.2327  0.3876
 9325TIP3    H149390   3.128   3.906  17.284  0.2976  1.1285  2.4363
 9325TIP3    H249391   3.083   3.970  17.155  2.1952 -1.7188  0.2343
 9326TIP3   OH249392   4.254   5.659  13.951 -0.1271 -0.6262  0.7447
 9326TIP3    H149393   4.330   5.634  14.003  0.8507  0.9131  0.1474
 9326TIP3    H249394   4.286   5.729  13.894 -1.9302 -0.1221  0.2659
 9327TIP3   OH249395   0.988   6.742  15.713  0.3853  0.4840 -0.6768
 9327TIP3    H149396   1.073   6.720  15.750  0.5755  0.3740 -1.1782
 9327TIP3    H249397   1.003   6.824  15.667  0.9521 -0.9791 -3.2690
 9328TIP3   OH249398   6.136   1.184   3.435 -0.5483 -0.4054  0.4774
 9328TIP3    H149399   6.211   1.220   3.482 -0.9927 -0.9673  1.6355
 9328TIP3    H249400   6.061   1.205   3.489 -1.1323 -0.6578 -0.2141
 9329TIP3   OH249401   1.745   0.803  14.952  0.1665 -0.1124 -0.1508
 9329TIP3    H149402   1.712   0.778  14.865 -1.0570  3.0341 -0.6985
 9329TIP3    H249403   1.840   0.811  14.939 -0.1316  1.5760 -1.6075
 9330TIP3   OH249404   0.438   1.487   4.432  0.5953 -0.0563 -0.5184
 9330TIP3    H149405   0.437   1.460   4.340  0.4489 -1.7994 -0.0327
 9330TIP3    H249406   0.433   1.582   4.429 -0.3777 -0.1289 -2.2930
 9331TIP3   OH249407   1.775   5.786  12.394  0.1089 -0.2044 -0.2862
 9331TIP3    H149408   1.804   5.871  12.361 -0.9880  0.4354  0.3443
 9331TIP3    H249409   1.826   5.772  12.474 -0.8205  0.6172  0.4723
 9332TIP3   OH249410   1.408   0.757  15.517  0.1387  0.1451 -0.6405
 9332TIP3    H149411   1.434   0.774  15.427  1.0891  1.4309 -0.1562
 9332TIP3    H249412   1.484   0.782  15.569 -0.3523 -0.6855  0.5117
 9333TIP3   OH249413   6.646   1.659  14.028  0.0112 -0.2999  0.2094
 9333TIP3    H149414   6.574   1.612  14.070  0.4412  0.3427  1.7344
 9333TIP3    H249415   6.608   1.743  14.002  0.1868  0.0417  1.0196
 9334TIP3   OH249416   5.280   1.924   3.895  0.0208 -0.1590 -0.2776
 9334TIP3    H149417   5.283   1.831   3.919 -0.3120 -0.1241 -0.0948
 9334TIP3    H249418   5.302   1.970   3.976 -0.4250 -0.0624 -0.2073
 9335TIP3   OH249419   5.231   4.621  15.921  0.2797  0.8279  0.3466
 9335TIP3    H149420   5.233   4.659  15.833  3.1269  1.4380  0.5638
 9335TIP3    H249421   5.289   4.545  15.915 -3.0817 -1.9871  0.6476
 9336TIP3   OH249422   4.470   3.013  14.522 -0.1053 -0.2179 -0.2631
 9336TIP3    H149423   4.534   2.954  14.482  1.1423  0.2448  0.9444
 9336TIP3    H249424   4.441   3.069  14.451  0.8992 -0.4008 -0.8436
 9337TIP3   OH249425   5.515   2.177  11.935  0.3303 -0.4111 -0.1651
 9337TIP3    H149426   5.433   2.156  11.980  0.6194 -2.0441 -0.3252
 9337TIP3    H249427   5.501   2.264  11.898  0.0267  0.9908  2.8949
 9338TIP3   OH249428   1.516   4.022   3.686  0.4171  0.1525  0.2687
 9338TIP3    H149429   1.423   4.034   3.669 -0.1303 -0.6813  2.4053
 9338TIP3    H249430   1.530   3.928   3.675  1.2402  0.3772 -0.8714
 9339TIP3   OH249431   0.079   2.960  11.509 -0.0104 -0.0829  0.7739
 9339TIP3    H149432   0.045   2.988  11.425  0.6520  0.3860  0.6558
 9339TIP3    H249433   0.062   2.866  11.512  1.2698 -0.3831 -0.5154
 9340TIP3   OH249434   2.079   5.461   0.896 -0.8194  0.6154 -0.0100
 9340TIP3    H149435   2.101   5.405   0.971 -0.7948  1.0569  0.3213
 9340TIP3    H249436   2.019   5.408   0.843 -0.2330  0.0058 -0.0844
 9341TIP3   OH249437   1.868   1.543  17.124  0.2121 -0.4756 -0.1445
 9341TIP3    H149438   1.815   1.467  17.102 -0.5068 -0.1379  0.3490
 9341TIP3    H249439   1.832   1.573  17.208  1.4978 -0.5141  0.4301
 9342TIP3   OH249440   3.346   3.834   0.724  0.0939  0.3717 -0.3837
 9342TIP3    H149441   3.332   3.924   0.752  0.8828  0.3663  0.0281
 9342TIP3    H249442   3.273   3.817   0.664 -0.5115  1.0121  0.1494
 9343TIP3   OH249443   1.105   6.609  15.457 -0.5289 -0.0965 -0.1101
 9343TIP3    H149444   1.158   6.585  15.381  0.7938  0.2887  0.6651
 9343TIP3    H249445   1.050   6.681  15.426  0.1234  0.1693 -0.6643
 9344TIP3   OH249446   2.406   0.917   5.453  0.3228 -0.3947 -0.0959
 9344TIP3    H149447   2.390   1.006   5.486 -0.3803  0.6168 -2.8245
 9344TIP3    H249448   2.320   0.875   5.456  0.6035 -0.9344  0.9393
 9345TIP3   OH249449   2.851   2.498   4.918 -0.2515  0.8054 -0.4508
 9345TIP3    H149450   2.813   2.495   5.005  1.3275  1.3428  0.2908
 9345TIP3    H249451   2.825   2.415   4.877 -0.4865  0.2689  0.7546
 9346TIP3   OH249452   0.636   4.560  16.316  0.3204 -0.0349 -0.1967
 9346TIP3    H149453   0.553   4.544  16.361  1.3157 -0.2373  1.7028
 9346TIP3    H249454   0.639   4.654  16.304  0.2247  0.0910  0.6548
 9347TIP3   OH249455   1.928   4.076  14.496 -0.0026  0.0658 -0.2276
 9347TIP3    H149456   1.832   4.076  14.496 -0.0989 -2.5973  1.6513
 9347TIP3    H249457   1.951   4.118  14.413 -2.7961 -0.2235 -1.2713
 9348TIP3   OH249458   3.221   5.215  13.546  0.5449 -0.2184  0.0357
 9348TIP3    H149459   3.301   5.180  13.506 -0.6709 -0.8805 -1.9869
 9348TIP3    H249460   3.153   5.153  13.520 -1.0271  1.5537 -0.2602
 9349TIP3   OH249461   0.141   0.545   1.277  0.1462  0.4320 -0.3157
 9349TIP3    H149462   0.078   0.609   1.243  0.2766  0.9865  0.4593
 9349TIP3    H249463   0.103   0.514   1.359 -0.7158 -1.7651 -1.4673
 9350TIP3   OH249464   1.997   3.688  12.124  0.6819  0.0799  0.1040
 9350TIP3    H149465   1.970   3.746  12.194  0.3252  0.4294 -0.3186
 9350TIP3    H249466   2.093   3.695  12.122  0.9015 -1.5665  1.9466
 9351TIP3   OH249467   2.521   1.700  15.028 -0.0608  0.4242 -0.2732
 9351TIP3    H149468   2.535   1.628  14.966 -2.9866 -1.1948  0.7544
 9351TIP3    H249469   2.450   1.751  14.989 -1.3776 -0.1479  1.2638
 9352TIP3   OH249470   5.861   6.613  16.013  0.2619 -0.3415 -0.2021
 9352TIP3    H149471   5.821   6.594  15.928 -1.7552  0.0729  0.6021
 9352TIP3    H249472   5.796   6.586  16.077  0.6372  1.6938  1.1409
 9353TIP3   OH249473   0.221   1.520   2.386  0.5519 -0.4917  0.2243
 9353TIP3    H149474   0.241   1.472   2.467 -1.4359 -0.8739  0.5289
 9353TIP3    H249475   0.199   1.452   2.323 -0.6879 -0.0713  0.1915
 9354TIP3   OH249476   1.892   0.370   2.876 -0.0804  0.7193  0.5222
 9354TIP3    H149477   1.806   0.360   2.918 -0.3663  2.5967  0.4611
 9354TIP3    H249478   1.911   0.464   2.883  0.3854  0.9345 -2.5059
 9355TIP3   OH249479   5.513   0.535   3.647 -0.5407 -0.3617  0.0968
 9355TIP3    H149480   5.421   0.513   3.662 -0.9722  1.5625  0.5789
 9355TIP3    H249481   5.540   0.582   3.727  0.7383 -0.5440 -0.1998
 9356TIP3   OH249482   3.884   0.367   0.240 -0.1323  0.0753 -0.5847
 9356TIP3    H149483   3.951   0.428   0.209 -0.0930  0.3574  0.0300
 9356TIP3    H249484   3.890   0.371   0.336  0.8516 -1.9739 -0.4981
 9357TIP3   OH249485   3.702   0.491   4.026 -0.2825 -0.1608  0.2237
 9357TIP3    H149486   3.741   0.511   4.111 -1.5601  0.5946  0.6641
 9357TIP3    H249487   3.760   0.532   3.962 -0.4947  1.1873  0.8737
 9358TIP3   OH249488   0.298   1.397  16.672 -0.7074 -0.0279 -0.0184
 9358TIP3    H149489   0.229   1.403  16.738 -0.2107 -0.9343  0.6023
 9358TIP3    H249490   0.277   1.467  16.610 -1.3693  0.6344  0.9162
 9359TIP3   OH249491   2.896   6.212  13.878  0.0371  0.3223 -0.1965
 9359TIP3    H149492   2.893   6.158  13.798 -1.3742  0.3218 -0.1656
 9359TIP3    H249493   2.947   6.160  13.940 -0.6390 -0.6557 -0.4276
 9360TIP3   OH249494   4.516   6.260  12.295  0.0397 -0.5725 -0.4123
 9360TIP3    H149495   4.490   6.352  12.288  0.7349 -0.3491 -0.1884
 9360TIP3    H249496   4.443   6.217  12.338 -1.2623 -0.5717 -2.4728
 9361TIP3   OH249497   2.063   2.674   4.014 -0.5057 -0.0040 -0.0723
 9361TIP3    H149498   2.118   2.682   4.092 -2.6080  2.0940  1.3172
 9361TIP3    H249499   2.123   2.642   3.946  1.8094 -0.2235  1.9346
 9362TIP3   OH249500   0.250   4.763   1.691  0.0057 -0.0477 -0.3869
 9362TIP3    H149501   0.262   4.762   1.596 -1.8102  2.5702 -0.7527
 9362TIP3    H249502   0.161   4.733   1.704 -0.1426  0.6897  0.3667
 9363TIP3   OH249503   6.586   4.204   3.093 -0.3622  0.2086 -0.5351
 9363TIP3    H149504   6.533   4.125   3.077 -1.1404  0.4143  0.8359
 9363TIP3    H249505   6.669   4.186   3.050 -0.6219 -1.2541 -0.4923
 9364TIP3   OH249506   6.500   1.118  16.412  0.0533  0.1979 -0.0469
 9364TIP3    H149507   6.499   1.180  16.339 -1.2326  2.3080  1.6447
 9364TIP3    H249508   6.593   1.104  16.431  0.4271 -0.7418 -2.2920
 9365TIP3   OH249509   5.835   5.685  11.312 -0.8169 -0.2965  0.6172
 9365TIP3    H149510   5.839   5.606  11.258 -0.1452 -0.3655  0.7693
 9365TIP3    H249511   5.926   5.712  11.324 -0.7506 -1.4691  3.4576
 9366TIP3   OH249512   0.006   5.365   2.454  0.2488 -0.1211 -0.0319
 9366TIP3    H149513  -0.018   5.343   2.544  1.3978  1.6210  0.7442
 9366TIP3    H249514  -0.069   5.334   2.402 -2.1500  1.9890  1.8913
 9367TIP3   OH249515   5.855   1.517   5.212 -0.3984  0.0800  0.3247
 9367TIP3    H149516   5.820   1.543   5.298  0.1680  0.3860  0.4639
 9367TIP3    H249517   5.777   1.509   5.157 -0.6180  2.3155  0.2131
 9368TIP3   OH249518   0.228   5.281  15.657  0.0010  0.2644  0.2200
 9368TIP3    H149519   0.133   5.267  15.653  0.0144  0.1329  0.3523
 9368TIP3    H249520   0.242   5.328  15.739 -0.1776  2.2164 -0.8175
 9369TIP3   OH249521   4.046   5.834   0.725  0.4295 -0.5002  0.1099
 9369TIP3    H149522   3.954   5.851   0.744  0.6526  0.1936  0.6062
 9369TIP3    H249523   4.075   5.911   0.675  0.5987 -0.9737 -0.5428
 9370TIP3   OH249524   4.614   3.170   0.293 -0.1476  0.0085 -0.0830
 9370TIP3    H149525   4.556   3.197   0.222 -2.4083  1.1342  2.0332
 9370TIP3    H249526   4.578   3.087   0.324  1.2572 -0.8520 -0.6656
 9371TIP3   OH249527   5.886   1.794   2.378  0.1752  0.0889 -0.2503
 9371TIP3    H149528   5.974   1.821   2.351 -0.1209  0.1449 -1.2039
 9371TIP3    H249529   5.828   1.859   2.339 -0.3490 -0.4263 -0.3445
 9372TIP3   OH249530   0.847   5.592  13.503 -0.3192 -0.3983  0.2807
 9372TIP3    H149531   0.866   5.594  13.410  0.2207 -0.1226  0.3937
 9372TIP3    H249532   0.778   5.527  13.512 -1.4278  0.6189 -0.4966
 9373TIP3   OH249533   3.151   3.524   5.047  0.0181 -0.4009  0.1786
 9373TIP3    H149534   3.159   3.511   5.142  0.5517 -0.2597  0.1541
 9373TIP3    H249535   3.149   3.436   5.010 -2.3882 -0.5309  0.4835
 9374TIP3   OH249536   3.778   3.530  14.883  0.1909  0.2892 -0.6545
 9374TIP3    H149537   3.772   3.456  14.822 -0.3347  1.0608 -1.5662
 9374TIP3    H249538   3.687   3.556  14.898  0.3364  0.3564  0.1681
 9375TIP3   OH249539   6.707   1.486   6.283  0.9868  0.3291 -0.1077
 9375TIP3    H149540   6.746   1.569   6.311  1.5732  0.7461 -2.0490
 9375TIP3    H249541   6.729   1.424   6.353  0.4814  1.7862  1.4130
 9376TIP3   OH249542   4.294   0.012  17.218  0.2365 -0.2992 -0.2774
 9376TIP3    H149543   4.269  -0.080  17.213  0.4389 -0.3796  0.1436
 9376TIP3    H249544   4.375   0.012  17.269  1.3384 -0.0824 -1.9541
 9377TIP3   OH249545   4.070   0.804   3.699 -0.6692  0.3511  0.3329
 9377TIP3    H149546   3.996   0.825   3.642 -0.0972 -0.0617 -0.5955
 9377TIP3    H249547   4.141   0.858   3.666 -0.9706  2.1090  2.3610
 9378TIP3   OH249548   4.673   5.658   5.687 -0.2767  0.3538 -0.6622
 9378TIP3    H149549   4.609   5.602   5.731  0.8747  1.2614  2.4340
 9378TIP3    H249550   4.711   5.603   5.619 -1.0036 -1.7727  0.5659
 9379TIP3   OH249551   0.714   2.188  12.879 -0.5080  0.3632  0.0340
 9379TIP3    H149552   0.741   2.134  12.953 -0.6021 -0.4686 -0.5332
 9379TIP3    H249553   0.787   2.183  12.817 -1.2394 -0.5649 -0.7896
 9380TIP3   OH249554   5.853   4.546  16.785 -0.2082 -0.3256  0.2445
 9380TIP3    H149555   5.823   4.463  16.823 -3.9051  0.0607 -1.3843
 9380TIP3    H249556   5.861   4.605  16.860 -0.4616 -1.3545  1.1109
 9381TIP3   OH249557   4.884   1.280  16.059 -0.0615  0.1936 -0.0673
 9381TIP3    H149558   4.973   1.281  16.022  0.2471  0.6799  0.6705
 9381TIP3    H249559   4.831   1.327  15.995 -0.0578 -1.2011 -1.1368
 9382TIP3   OH249560   4.117   5.522  12.856  0.6242 -0.1202 -0.3591
 9382TIP3    H149561   4.175   5.531  12.781 -0.2277 -0.1765 -1.0337
 9382TIP3    H249562   4.176   5.500  12.929  1.4715  0.0905 -0.9627
 9383TIP3   OH249563   5.118   5.397   1.382  0.1270 -0.6501  0.7574
 9383TIP3    H149564   5.090   5.306   1.381 -0.1320 -0.5841 -0.6488
 9383TIP3    H249565   5.036   5.447   1.392  0.1388 -0.5585  0.4346
 9384TIP3   OH249566   0.211   0.005   2.544 -0.4219  0.0284  0.0725
 9384TIP3    H149567   0.276   0.036   2.606  1.0269 -2.9066  0.2331
 9384TIP3    H249568   0.128   0.008   2.591  0.3481 -0.3600  1.4940
 9385TIP3   OH249569   1.693   0.839  16.929  0.5550 -0.2409  0.1330
 9385TIP3    H149570   1.705   0.932  16.947  0.9816 -0.5084  1.3138
 9385TIP3    H249571   1.603   0.832  16.897  0.5548  0.5898 -0.0538
 9386TIP3   OH249572   0.113   0.983  11.565  0.4433 -0.1312  0.0269
 9386TIP3    H149573   0.206   0.967  11.578  0.0696 -1.1034  1.7274
 9386TIP3    H249574   0.108   1.077  11.547  1.7816 -0.1609 -0.6638
 9387TIP3   OH249575   5.084   1.482   6.577 -0.2170 -0.4171  0.3016
 9387TIP3    H149576   5.089   1.389   6.599 -0.7969  0.1558  3.2398
 9387TIP3    H249577   4.997   1.509   6.606  0.1178  1.1692 -0.0762
 9388TIP3   OH249578   5.742   5.175  15.381  0.1302 -0.2754  0.1339
 9388TIP3    H149579   5.690   5.205  15.307  0.1266 -2.4528 -0.8068
 9388TIP3    H249580   5.819   5.232  15.381  0.1511 -0.2609 -1.5929
 9389TIP3   OH249581   3.464   5.336  15.887 -0.3704  0.0121  0.2995
 9389TIP3    H149582   3.456   5.256  15.939  1.5642 -0.4274 -0.0125
 9389TIP3    H249583   3.557   5.343  15.868 -0.6859  1.6292 -0.8332
 9390TIP3   OH249584   0.891   2.773  16.976  0.0220 -0.2095  0.2380
 9390TIP3    H149585   0.880   2.727  17.060 -2.0711 -2.2392 -1.0291
 9390TIP3    H249586   0.810   2.822  16.966 -0.3867 -1.1424 -1.2252
 9391TIP3   OH249587   4.301   2.330  11.086 -0.2810 -0.1030  0.1546
 9391TIP3    H149588   4.217   2.287  11.070 -0.6674  0.9516 -0.8221
 9391TIP3    H249589   4.277   2.415  11.123  0.3587  0.1099  0.0884
 9392TIP3   OH249590   0.499   5.046  13.147  0.3440 -0.6572  0.0373
 9392TIP3    H149591   0.427   5.002  13.192  0.6733 -0.1387  1.0935
 9392TIP3    H249592   0.498   5.009  13.059 -1.1134 -0.7728  0.0767
 9393TIP3   OH249593   5.013   4.390  15.895 -0.0551  0.1360  0.1688
 9393TIP3    H149594   4.961   4.316  15.929 -1.0574  1.5401  1.8563
 9393TIP3    H249595   5.091   4.392  15.951  1.2351 -1.1280 -1.4911
 9394TIP3   OH249596   1.739   5.375   1.610  0.4604 -0.5768  0.0666
 9394TIP3    H149597   1.711   5.302   1.555  2.9785 -2.0330  0.5514
 9394TIP3    H249598   1.735   5.341   1.699 -0.9871  0.8556  0.5987
 9395TIP3   OH249599   1.288   3.721  10.534 -0.9106  0.1224 -0.8016
 9395TIP3    H149600   1.265   3.801  10.488 -0.9059 -0.6874 -2.2675
 9395TIP3    H249601   1.374   3.696  10.499 -0.6117 -0.1929  0.1012
 9396TIP3   OH249602   6.529   2.336   5.248  0.1110 -0.1124 -0.5761
 9396TIP3    H149603   6.443   2.347   5.290  0.4354 -1.8801  0.7040
 9396TIP3    H249604   6.555   2.424   5.222 -1.9706  0.5004 -0.7691
 9397TIP3   OH249605   6.526   3.818   3.375  0.2121  0.0152  0.1916
 9397TIP3    H149606   6.589   3.751   3.351  0.2906  0.2744 -0.3572
 9397TIP3    H249607   6.566   3.900   3.344  0.1024  0.3099  0.8151
 9398TIP3   OH249608   0.208   0.754   1.998  0.4053  0.3079  0.1442
 9398TIP3    H149609   0.183   0.679   1.943  0.2852  0.4397  0.0177
 9398TIP3    H249610   0.304   0.753   1.998  0.4038  0.1870  0.0968
 9399TIP3   OH249611   2.568   6.101  12.691  0.2815  0.1666 -0.2578
 9399TIP3    H149612   2.563   6.060  12.605  2.3457  1.3195 -1.0012
 9399TIP3    H249613   2.643   6.060  12.733 -0.1721  0.2495  0.6703
 9400TIP3   OH249614   1.903   2.840  17.244 -0.0395 -0.3725 -0.0409
 9400TIP3    H149615   1.958   2.893  17.303 -0.5929  0.4599 -0.2698
 9400TIP3    H249616   1.908   2.752  17.281  0.8201 -0.1545  0.3975
 9401TIP3   OH249617   5.531   4.479   1.452  1.1509 -0.1279  0.1990
 9401TIP3    H149618   5.540   4.460   1.546 -0.8022  2.6465  1.0886
 9401TIP3    H249619   5.447   4.440   1.428  1.2552 -0.1220 -0.1684
 9402TIP3   OH249620   5.332   1.653   3.907 -0.0228  0.3809  0.3711
 9402TIP3    H149621   5.397   1.679   3.843 -0.2637  1.5053  0.5595
 9402TIP3    H249622   5.278   1.588   3.862  0.3058  0.5624 -0.2920
 9403TIP3   OH249623   1.315   6.586  13.841 -0.5863  0.1952 -0.2141
 9403TIP3    H149624   1.356   6.556  13.922 -4.1446 -1.6573  1.1248
 9403TIP3    H249625   1.290   6.677  13.860 -0.5871  0.0699  0.4128
 9404TIP3   OH249626   3.065   6.456  14.137 -0.3615  0.3291 -0.2438
 9404TIP3    H149627   3.032   6.510  14.209  0.6361 -0.5800  0.9326
 9404TIP3    H249628   3.139   6.505  14.102 -0.3366  0.3850 -0.1121
 9405TIP3   OH249629   6.618   4.501  12.406 -0.1013  0.2975  0.9479
 9405TIP3    H149630   6.539   4.551  12.427  0.2978  0.4821  2.0851
 9405TIP3    H249631   6.596   4.455  12.325 -0.8217  1.5416  0.4062
 9406TIP3   OH249632   1.325   2.755   4.645 -0.8030  0.5811 -0.5349
 9406TIP3    H149633   1.255   2.760   4.580 -2.4694 -1.4511  0.9584
 9406TIP3    H249634   1.359   2.666   4.637 -1.8021 -0.1318  1.9600
 9407TIP3   OH249635   0.401   5.463  16.090 -0.0738 -0.4522 -0.3446
 9407TIP3    H149636   0.393   5.483  15.996 -1.8514  0.5185 -0.0198
 9407TIP3    H249637   0.341   5.390  16.103 -2.4504  1.5429  0.6047
 9408TIP3   OH249638   0.040   0.126  12.923  0.0875 -0.8609 -0.8122
 9408TIP3    H149639   0.103   0.128  12.851 -0.3932  1.8924 -1.2854
 9408TIP3    H249640  -0.045   0.135  12.880 -0.5635 -2.7942 -0.0684
 9409TIP3   OH249641   1.301   1.688  11.865  0.4141 -0.1556 -0.2147
 9409TIP3    H149642   1.335   1.649  11.784 -0.8245  0.0211 -0.8412
 9409TIP3    H249643   1.374   1.739  11.899  1.3748 -1.2856 -0.5149
 9410TIP3   OH249644   0.295   0.044   3.282  0.0971 -0.3303  0.2197
 9410TIP3    H149645   0.287   0.093   3.200 -2.0460  1.5412  1.4062
 9410TIP3    H249646   0.224   0.079   3.337  2.3576 -0.3896  3.4175
 9411TIP3   OH249647   4.217   4.408   5.406  0.4543  0.7576  0.1463
 9411TIP3    H149648   4.132   4.449   5.416  0.1032  0.1494 -0.3153
 9411TIP3    H249649   4.213   4.331   5.463  0.5657  0.5362 -0.1424
 9412TIP3   OH249650   5.790   6.724  12.377 -0.5672  0.3550 -0.2012
 9412TIP3    H149651   5.786   6.760  12.466  1.9115  1.0731 -0.3169
 9412TIP3    H249652   5.871   6.760  12.340 -1.4198 -0.0853 -2.6975
 9413TIP3   OH249653   6.117   0.908  17.030 -0.1861  0.0720  0.3007
 9413TIP3    H149654   6.116   0.879  16.939  0.1734  0.6562  0.1008
 9413TIP3    H249655   6.125   0.828  17.081 -0.7545 -0.2880 -0.1685
 9414TIP3   OH249656   6.544   0.075  12.814 -0.8402  0.1569 -0.3606
 9414TIP3    H149657   6.543  -0.017  12.790 -0.8206  0.4039 -1.3652
 9414TIP3    H249658   6.467   0.086  12.870 -1.1693 -0.3473 -0.7070
 9415TIP3   OH249659   2.067   1.933  14.373 -0.0855 -0.1484  0.2954
 9415TIP3    H149660   2.055   1.848  14.416  0.3031 -0.6606 -0.5756
 9415TIP3    H249661   2.059   1.997  14.443  0.5613 -0.9615  1.1334
 9416TIP3   OH249662   0.759   2.310   4.717  0.4659 -0.6417 -0.1347
 9416TIP3    H149663   0.695   2.239   4.710 -0.1419 -0.2187  0.9801
 9416TIP3    H249664   0.772   2.340   4.627 -1.2231 -0.4583 -0.3339
 9417TIP3   OH249665   0.043   5.366  12.951 -0.1799 -0.2756  0.4852
 9417TIP3    H149666   0.044   5.289  13.007 -0.0867 -0.3437  0.3896
 9417TIP3    H249667   0.134   5.394  12.947  0.2095 -1.6552 -1.5338
 9418TIP3   OH249668   6.651   1.495  16.476  0.0412  0.6402 -0.1626
 9418TIP3    H149669   6.723   1.528  16.423  0.4009 -1.0685 -0.7925
 9418TIP3    H249670   6.590   1.456  16.413 -2.7399  4.1178  0.0516
 9419TIP3   OH249671   1.175   5.744  11.843 -0.1560 -0.4595 -0.1008
 9419TIP3    H149672   1.221   5.671  11.884 -0.5637 -1.5178 -1.4902
 9419TIP3    H249673   1.244   5.795  11.801  0.2696  0.6399  1.8060
 9420TIP3   OH249674   1.841   5.043  11.732 -0.2981  0.2784 -0.3183
 9420TIP3    H149675   1.846   4.986  11.808 -0.7382  0.7419  0.0579
 9420TIP3    H249676   1.791   4.993  11.667  1.3726 -0.7469 -0.8834
 9421TIP3   OH249677   2.926   0.456  15.299 -0.1390  0.0630 -0.0563
 9421TIP3    H149678   2.838   0.436  15.267  0.0114  0.6993 -0.9144
 9421TIP3    H249679   2.912   0.500  15.383 -0.6599  0.3421 -0.2826
 9422TIP3   OH249680   0.999   5.283  12.879  0.4205 -0.2258  0.0670
 9422TIP3    H149681   0.917   5.281  12.927  0.0885  0.1380 -0.4668
 9422TIP3    H249682   0.999   5.368  12.835  1.8572  0.5040  1.3790
 9423TIP3   OH249683   0.910   1.345  15.666 -0.8621  0.2744 -0.3987
 9423TIP3    H149684   0.945   1.256  15.666  1.2563  1.0260  1.1196
 9423TIP3    H249685   0.926   1.377  15.577  1.6399  0.2555 -0.0339
 9424TIP3   OH249686   1.995   4.332  15.392 -0.0412 -0.2921  0.4027
 9424TIP3    H149687   1.925   4.267  15.403 -0.0856 -0.1842  0.7680
 9424TIP3    H249688   1.995   4.381  15.473  0.7627 -0.5836  0.5926
 9425TIP3   OH249689   2.608   3.449  13.768  0.0074 -0.2986 -0.3086
 9425TIP3    H149690   2.647   3.363  13.779  1.2395  0.4416  1.5472
 9425TIP3    H249691   2.679   3.505  13.739 -0.4187  0.4226  0.0117
 9426TIP3   OH249692   6.019   0.174   2.835 -0.3178 -0.3331 -0.7317
 9426TIP3    H149693   5.972   0.106   2.885 -0.6520  1.6541  1.8830
 9426TIP3    H249694   5.953   0.242   2.820  0.7485  0.8030 -0.4325
 9427TIP3   OH249695   4.197   6.439   3.845  0.6238 -0.6146 -0.0072
 9427TIP3    H149696   4.252   6.469   3.918 -1.7130  0.0449  1.5970
 9427TIP3    H249697   4.170   6.519   3.801  1.4224 -0.9719 -1.1721
 9428TIP3   OH249698   2.990   6.649   1.206 -0.2947  0.5145  0.1117
 9428TIP3    H149699   2.958   6.592   1.276  0.9829 -0.4381 -0.0420
 9428TIP3    H249700   3.065   6.695   1.245  1.4760 -1.2303 -1.0375
 9429TIP3   OH249701   0.045   1.363  13.804 -0.8767 -0.4520  0.2261
 9429TIP3    H149702   0.044   1.407  13.719 -1.7435 -1.6350 -0.3936
 9429TIP3    H249703  -0.031   1.305  13.803  0.1136 -1.8374  1.0932
 9430TIP3   OH249704   6.274   4.243   3.437 -0.0261  0.4730 -0.1300
 9430TIP3    H149705   6.350   4.273   3.387 -0.5337  1.9557 -0.0684
 9430TIP3    H249706   6.217   4.320   3.442 -2.3591 -1.0186 -1.6718
 9431TIP3   OH249707   3.969   5.920  14.507  0.5973  0.1499  0.2733
 9431TIP3    H149708   3.977   5.846  14.566  0.6129 -1.1963 -1.3368
 9431TIP3    H249709   4.049   5.971  14.520  1.6525 -1.3454 -0.1706
 9432TIP3   OH249710   1.171   5.087   0.053 -0.5441 -0.3465 -0.4119
 9432TIP3    H149711   1.193   5.017   0.114 -0.2384  1.2713  1.4239
 9432TIP3    H249712   1.245   5.148   0.059 -1.7034  1.1179 -0.4197
 9433TIP3   OH249713   4.168   4.789  12.134 -0.1928 -0.0750 -0.8774
 9433TIP3    H149714   4.158   4.696  12.114  0.1906 -0.0638 -1.1340
 9433TIP3    H249715   4.211   4.792  12.219 -1.2492 -0.1254 -0.3262
 9434TIP3   OH249716   3.771   0.203  16.723  0.2388  0.0246  0.8381
 9434TIP3    H149717   3.749   0.161  16.640 -0.4365  0.8304  0.6025
 9434TIP3    H249718   3.832   0.273  16.699 -1.2454  1.3378  0.7932
 9435TIP3   OH249719   1.783   2.807  12.650 -0.1603  0.5592 -0.4886
 9435TIP3    H149720   1.859   2.824  12.595 -0.4755 -0.4481 -1.2734
 9435TIP3    H249721   1.753   2.720  12.624 -0.9836  0.5146  0.5152
 9436TIP3   OH249722   4.350   1.252  15.816  0.2718 -0.0919 -0.0278
 9436TIP3    H149723   4.434   1.286  15.786  0.1690 -0.1176 -0.3472
 9436TIP3    H249724   4.316   1.203  15.741 -0.3540  0.5090 -0.1402
 9437TIP3   OH249725   4.869   0.409  11.462  0.1570  0.1736 -0.2403
 9437TIP3    H149726   4.900   0.337  11.407 -1.5567  0.0337 -1.0977
 9437TIP3    H249727   4.844   0.477  11.400 -0.8896  0.3989  0.3998
 9438TIP3   OH249728   0.723   4.871   0.517 -0.0624  1.4985  0.4326
 9438TIP3    H149729   0.666   4.805   0.476 -0.8696  0.6430  2.7637
 9438TIP3    H249730   0.810   4.851   0.485 -0.1889 -1.1475  1.5097
 9439TIP3   OH249731   4.158   2.160  11.436 -0.5388  0.4645  0.6553
 9439TIP3    H149732   4.152   2.101  11.360  0.0376  0.7689  0.3633
 9439TIP3    H249733   4.231   2.125  11.487 -1.3838 -0.1777  1.4752
 9440TIP3   OH249734   0.147   0.907   6.040  0.3700  0.4525  0.0521
 9440TIP3    H149735   0.085   0.840   6.068  1.5860  0.0631  1.9757
 9440TIP3    H249736   0.219   0.858   6.000  0.4964  0.7304 -0.0673
 9441TIP3   OH249737   2.296   6.595  14.270 -0.0003  0.1238 -0.4557
 9441TIP3    H149738   2.279   6.587  14.177 -0.0514 -0.4347 -0.4013
 9441TIP3    H249739   2.213   6.571  14.312 -0.1173  0.8299 -0.2787
 9442TIP3   OH249740   1.019   6.558  17.204  0.1468  0.1446 -0.3392
 9442TIP3    H149741   1.108   6.581  17.229 -0.5317  0.6376  1.8789
 9442TIP3    H249742   0.970   6.640  17.209 -0.7427 -0.3941  0.0649
 9443TIP3   OH249743   5.513   5.266  15.599  0.1615  0.0093  0.1465
 9443TIP3    H149744   5.529   5.356  15.626 -0.2791  0.1298  0.0050
 9443TIP3    H249745   5.576   5.250  15.529  0.5135  0.0727  0.4451
 9444TIP3   OH249746   0.058   4.878   6.184 -0.1351 -0.1109  0.4781
 9444TIP3    H149747   0.058   4.974   6.188 -3.0182 -0.0680  1.2142
 9444TIP3    H249748   0.067   4.850   6.275 -0.2632 -0.5337  0.3623
 9445TIP3   OH249749   0.297   0.686   3.447  0.3602 -0.0311  0.3139
 9445TIP3    H149750   0.285   0.668   3.540  0.8240  3.6109  1.2310
 9445TIP3    H249751   0.209   0.684   3.410 -0.0492  0.2262  1.2458
 9446TIP3   OH249752   6.267   3.291   4.078  0.0757  0.4527 -0.0929
 9446TIP3    H149753   6.300   3.274   4.166 -0.9565  0.8709  0.3889
 9446TIP3    H249754   6.345   3.316   4.028  0.6497  0.3985  0.7454
 9447TIP3   OH249755   3.388   4.027   1.184 -0.3607 -0.1346 -0.2949
 9447TIP3    H149756   3.388   3.969   1.108 -1.7109  0.3203 -0.6643
 9447TIP3    H249757   3.446   4.099   1.159 -1.2546  0.3119 -1.1559
 9448TIP3   OH249758   4.504   5.062   1.744  0.2612 -0.0141  0.2914
 9448TIP3    H149759   4.429   5.013   1.779 -0.3065 -0.7962 -1.8412
 9448TIP3    H249760   4.470   5.150   1.727 -1.7102 -1.3665 -4.6517
 9449TIP3   OH249761   3.822   3.582   0.595 -0.0874  0.2966 -0.0686
 9449TIP3    H149762   3.734   3.588   0.633 -0.8195 -0.3029 -1.5754
 9449TIP3    H249763   3.853   3.495   0.620  0.0717  0.4890  0.4213
 9450TIP3   OH249764   4.453   5.337   1.648 -0.6476 -0.1415  0.4170
 9450TIP3    H149765   4.453   5.402   1.719 -1.2620 -0.0439  0.3367
 9450TIP3    H249766   4.368   5.348   1.606  0.1272  0.5687 -1.0525
 9451TIP3   OH249767   6.507   6.027  10.450  0.4299 -0.6598 -0.5112
 9451TIP3    H149768   6.431   6.052  10.502  0.2157 -1.0990 -0.6138
 9451TIP3    H249769   6.475   5.961  10.389  0.8479 -0.7058 -0.6871
 9452TIP3   OH249770   4.318   1.920  13.983  0.0078  0.2889  0.1789
 9452TIP3    H149771   4.266   1.920  13.902 -0.0157 -1.8771  0.1341
 9452TIP3    H249772   4.278   1.987  14.038 -2.4017 -0.7958 -0.1359
 9453TIP3   OH249773   4.033   5.145   5.005 -0.1599  0.2835 -0.3783
 9453TIP3    H149774   3.964   5.085   4.975  0.7547 -0.2633 -1.4550
 9453TIP3    H249775   4.103   5.087   5.036  0.0770  0.8291  0.1332
 9454TIP3   OH249776   5.367   6.126   0.147 -0.9034  0.6079 -0.1343
 9454TIP3    H149777   5.398   6.035   0.146 -0.8650  0.6233 -0.6137
 9454TIP3    H249778   5.417   6.167   0.218 -0.6172  0.3591 -0.1880
 9455TIP3   OH249779   1.647   6.142   3.473  0.3705  0.0690 -0.2534
 9455TIP3    H149780   1.686   6.223   3.505  0.5376 -0.1822  0.2010
 9455TIP3    H249781   1.579   6.122   3.538  1.5438 -1.1102  0.6611
 9456TIP3   OH249782   6.227   0.598   2.911  0.0397 -1.1873 -0.1379
 9456TIP3    H149783   6.299   0.650   2.877  0.3874 -2.0728 -0.7726
 9456TIP3    H249784   6.250   0.583   3.003 -0.5836  0.6478  0.3706
 9457TIP3   OH249785   2.401   1.235   5.144  0.2339  0.0868 -0.8225
 9457TIP3    H149786   2.476   1.190   5.107  0.7887  0.2264  0.1093
 9457TIP3    H249787   2.370   1.293   5.073  1.1799  0.2496 -1.1140
 9458TIP3   OH249788   2.852   5.776   1.951  0.0990 -0.0363  0.0764
 9458TIP3    H149789   2.855   5.684   1.978  0.6321 -0.3555 -1.0372
 9458TIP3    H249790   2.925   5.817   1.997 -1.6117  0.4301  2.5835
 9459TIP3   OH249791   1.785   6.137  11.284 -0.4412 -0.2146  0.3110
 9459TIP3    H149792   1.850   6.204  11.265 -0.4806 -0.3468 -0.3005
 9459TIP3    H249793   1.709   6.186  11.317 -0.4651  0.0451 -0.1203
 9460TIP3   OH249794   2.669   0.252  17.115 -0.2462  0.0386 -0.1971
 9460TIP3    H149795   2.718   0.232  17.195  0.0878  1.5949  0.0131
 9460TIP3    H249796   2.578   0.261  17.146 -0.5452 -1.8242 -0.4254
 9461TIP3   OH249797   5.073   5.671   5.257 -0.0809 -0.0816  0.0912
 9461TIP3    H149798   5.089   5.684   5.351 -0.4598 -1.8919  0.4486
 9461TIP3    H249799   5.158   5.683   5.216 -0.2623  2.8472  0.3416
 9462TIP3   OH249800   1.425   3.172  13.299  0.2808 -0.1881 -0.3744
 9462TIP3    H149801   1.408   3.119  13.376  0.0279  0.2511 -0.1230
 9462TIP3    H249802   1.487   3.238  13.328  0.0957  0.0507 -0.5138
 9463TIP3   OH249803   1.582   2.749   0.050  0.3665  0.4287 -0.0677
 9463TIP3    H149804   1.599   2.831   0.003  1.0474 -0.1680 -0.8863
 9463TIP3    H249805   1.669   2.712   0.066  0.0174 -0.9502 -1.2105
 9464TIP3   OH249806   4.267   6.016  14.861 -0.1576 -0.2267  0.3658
 9464TIP3    H149807   4.173   6.035  14.864 -0.8264 -2.9447 -0.6072
 9464TIP3    H249808   4.273   5.922  14.877  2.3591 -0.2314 -0.2429
 9465TIP3   OH249809   5.867   2.207  14.730  0.3769 -0.0517  0.2059
 9465TIP3    H149810   5.912   2.289  14.709  0.4028 -0.5067 -1.7406
 9465TIP3    H249811   5.877   2.197  14.824  2.6099  0.8659  0.1225
 9466TIP3   OH249812   2.584   0.313  11.771  0.8406  0.0946  0.3009
 9466TIP3    H149813   2.558   0.223  11.754 -2.1165  0.7881  0.4893
 9466TIP3    H249814   2.501   0.359  11.786  2.0588  3.2279 -1.5456
 9467TIP3   OH249815   0.646   5.559  12.598 -0.3000  0.2536  0.0594
 9467TIP3    H149816   0.601   5.498  12.540  0.6064 -1.3432  0.9582
 9467TIP3    H249817   0.606   5.545  12.684  0.3117  0.4877  0.3910
 9468TIP3   OH249818   1.568   5.606  16.388  0.0136  0.3122  0.1757
 9468TIP3    H149819   1.503   5.585  16.455  0.4215  1.6443  1.0241
 9468TIP3    H249820   1.601   5.693  16.412  3.2149 -0.8833  0.7017
 9469TIP3   OH249821   1.881   4.853   2.418 -0.0725 -0.4389 -0.0535
 9469TIP3    H149822   1.824   4.887   2.349 -0.3203 -0.6834  0.0274
 9469TIP3    H249823   1.894   4.761   2.395 -0.4142 -0.6020  0.3988
 9470TIP3   OH249824   1.196   1.649  10.518  0.3504  0.0689 -0.1553
 9470TIP3    H149825   1.158   1.562  10.511 -0.6761  0.4599  0.5057
 9470TIP3    H249826   1.276   1.636  10.569 -0.1761 -0.3794  0.5705
 9471TIP3   OH249827   2.233   5.798  14.304 -0.0234 -0.2370 -0.0128
 9471TIP3    H149828   2.169   5.767  14.241  0.0939  1.0303 -0.7736
 9471TIP3    H249829   2.201   5.884  14.332  0.2140 -0.5330  1.2410
 9472TIP3   OH249830   1.062   2.058  15.718 -0.2794 -0.6545 -0.4356
 9472TIP3    H149831   1.138   2.017  15.677  1.1515  2.2902 -1.0090
 9472TIP3    H249832   1.060   2.022  15.806  2.7333  0.1659  0.0841
 9473TIP3   OH249833   5.597   6.176   5.248 -0.5126  0.0817  0.1125
 9473TIP3    H149834   5.690   6.180   5.224 -0.5035  1.0784  0.2685
 9473TIP3    H249835   5.597   6.182   5.344 -0.7425  0.1008  0.1119
 9474TIP3   OH249836   1.666   0.305  12.138  0.1383 -0.3200 -0.0349
 9474TIP3    H149837   1.667   0.343  12.051  0.5961  0.6174  0.3707
 9474TIP3    H249838   1.573   0.295  12.159  0.0212 -1.4436 -0.9932
 9475TIP3   OH249839   0.297   1.965  13.415  0.0199  0.3425 -0.0491
 9475TIP3    H149840   0.341   1.998  13.493  0.6151  0.9549 -0.6249
 9475TIP3    H249841   0.366   1.961  13.349 -1.0253  2.7198 -1.3992
 9476TIP3   OH249842   0.113   3.012  11.769 -0.0080 -0.2960 -0.5232
 9476TIP3    H149843   0.023   3.024  11.798 -0.1106 -0.9511 -0.5422
 9476TIP3    H249844   0.107   3.008  11.674  0.0149 -0.4971 -0.5180
 9477TIP3   OH249845   2.848   0.949   4.551 -0.5074 -0.5169 -0.3098
 9477TIP3    H149846   2.765   0.962   4.597 -0.8758 -1.1370 -0.7823
 9477TIP3    H249847   2.826   0.960   4.459  0.1297  0.2294 -0.3845
 9478TIP3   OH249848   2.550   6.609   3.453 -0.0734 -0.0594  0.6438
 9478TIP3    H149849   2.465   6.651   3.439  1.8174  3.5548 -1.3927
 9478TIP3    H249850   2.560   6.549   3.380 -0.5537  0.1180  0.4331
 9479TIP3   OH249851   3.397   1.690   3.067 -0.2666  0.2323  0.1302
 9479TIP3    H149852   3.449   1.623   3.022 -0.9062  0.6596 -1.3117
 9479TIP3    H249853   3.337   1.722   3.000 -1.0089  1.1804  1.2139
 9480TIP3   OH249854   0.748   6.083  14.068 -0.2630 -0.5362  0.1927
 9480TIP3    H149855   0.791   6.018  14.013 -0.8111 -0.4749 -0.3079
 9480TIP3    H249856   0.672   6.111  14.018  0.1736  0.7794  0.2371
 9481TIP3   OH249857   1.378   3.524   1.013  0.6331  0.0899 -0.5995
 9481TIP3    H149858   1.316   3.461   0.977  1.2171 -1.8559  1.5219
 9481TIP3    H249859   1.333   3.608   1.008 -2.2796 -1.2447  0.9298
 9482TIP3   OH249860   2.044   4.416  14.362  0.3543 -0.1197  0.1294
 9482TIP3    H149861   2.110   4.390  14.427  0.7487 -0.6503 -0.4762
 9482TIP3    H249862   2.034   4.511  14.376  0.8376 -0.1263  0.5985
 9483TIP3   OH249863   4.503   4.366  15.479  0.0088  0.2808 -0.4270
 9483TIP3    H149864   4.451   4.295  15.441 -0.2655  0.7986 -1.0375
 9483TIP3    H249865   4.583   4.323  15.508 -0.0800 -0.2575 -0.9364
 9484TIP3   OH249866   4.839   4.766   0.331 -0.3583  0.2709 -0.1862
 9484TIP3    H149867   4.796   4.794   0.250 -0.0002 -0.1534 -0.5304
 9484TIP3    H249868   4.822   4.837   0.393 -2.2206 -0.2342 -0.0639
 9485TIP3   OH249869   6.588   3.654  15.995  0.5723 -0.1215 -0.1480
 9485TIP3    H149870   6.522   3.605  16.043  1.3277  0.1708  1.2240
 9485TIP3    H249871   6.542   3.685  15.917 -0.2057 -2.0597 -0.5102
 9486TIP3   OH249872   1.525   0.832  14.190 -0.3670  0.7669  0.1202
 9486TIP3    H149873   1.456   0.766  14.190  1.7684 -1.6285 -0.0340
 9486TIP3    H249874   1.546   0.845  14.098  0.9208 -0.3068  0.2373
 9487TIP3   OH249875   6.566   5.741   4.109 -0.7086 -0.7478  0.4744
 9487TIP3    H149876   6.544   5.834   4.099  0.3578 -0.4510  0.7470
 9487TIP3    H249877   6.575   5.729   4.204  3.8901  0.1014  0.3746
 9488TIP3   OH249878   4.637   4.577   2.567  0.1200  0.0431  0.1191
 9488TIP3    H149879   4.662   4.507   2.627  0.1853  0.5960  0.7413
 9488TIP3    H249880   4.668   4.657   2.609 -0.2938  0.4860 -0.4059
 9489TIP3   OH249881   0.400   4.797  13.416 -0.1187  0.0906  0.0732
 9489TIP3    H149882   0.358   4.805  13.331  0.5308  0.8022 -0.1864
 9489TIP3    H249883   0.458   4.721  13.407 -0.8685 -0.5246  0.2468
 9490TIP3   OH249884   6.279   5.584   5.115 -0.1051  0.1624 -0.0708
 9490TIP3    H149885   6.185   5.566   5.119 -0.0426 -0.6883 -1.6839
 9490TIP3    H249886   6.292   5.655   5.177 -1.7522  0.0575  0.4516
 9491TIP3   OH249887   5.254   1.303  14.592  0.0543 -0.0759 -0.6620
 9491TIP3    H149888   5.195   1.374  14.616 -1.0416 -0.6862 -1.4404
 9491TIP3    H249889   5.226   1.278  14.504  2.0607  0.1837 -1.4150
 9492TIP3   OH249890   5.820   3.815  12.834  0.0543  0.5815 -0.3376
 9492TIP3    H149891   5.782   3.776  12.755 -1.9446  0.2873  0.7031
 9492TIP3    H249892   5.751   3.871  12.869 -0.4988 -1.8513  3.0021
 9493TIP3   OH249893   4.094   6.449   0.823 -0.2684  0.3168 -0.1547
 9493TIP3    H149894   4.189   6.462   0.817 -0.1834 -0.1974 -0.0064
 9493TIP3    H249895   4.077   6.441   0.917 -0.4492  0.3382 -0.1852
 9494TIP3   OH249896   2.843   0.200   0.479  0.5490  0.0402 -0.1101
 9494TIP3    H149897   2.913   0.170   0.536 -0.5046 -0.4313  0.9806
 9494TIP3    H249898   2.768   0.147   0.503  0.4098 -1.2534 -2.9829
 9495TIP3   OH249899   2.877   4.399   1.301 -0.8796  0.0166  0.0484
 9495TIP3    H149900   2.872   4.456   1.377  0.5341 -0.9731  0.9390
 9495TIP3    H249901   2.814   4.435   1.239 -0.2590  2.3450  0.6833
 9496TIP3   OH249902   5.695   5.772   0.392  0.3066  0.0783  0.1312
 9496TIP3    H149903   5.738   5.742   0.473  1.0373 -1.7002 -0.8549
 9496TIP3    H249904   5.767   5.789   0.331 -0.2541  0.9042 -0.3077
 9497TIP3   OH249905   4.213   0.552   6.275  0.1367  0.2532  0.0500
 9497TIP3    H149906   4.136   0.503   6.304  0.1220  0.0135 -0.3848
 9497TIP3    H249907   4.234   0.610   6.348 -1.0940  1.0845 -0.2377
 9498TIP3   OH249908   3.349   4.575  14.763 -0.2665 -0.4953  0.3544
 9498TIP3    H149909   3.343   4.490  14.719 -2.6824 -1.0125  1.4725
 9498TIP3    H249910   3.263   4.615  14.749  0.0272  0.7299  1.8159
 9499TIP3   OH249911   2.101   5.418   0.405  0.6344 -0.0676  1.0122
 9499TIP3    H149912   2.077   5.432   0.496 -2.8764  0.8169  0.0948
 9499TIP3    H249913   2.105   5.506   0.367 -1.1957 -0.5048 -0.3416
 9500TIP3   OH249914   6.546   4.531   0.749 -0.2922  0.2555  0.2830
 9500TIP3    H149915   6.521   4.617   0.715  0.2623  1.4014  2.5745
 9500TIP3    H249916   6.641   4.528   0.740 -0.4756 -1.1683 -1.9320
 9501TIP3   OH249917   1.329   0.437  11.295  0.3283  0.6209 -0.3495
 9501TIP3    H149918   1.290   0.433  11.208  2.0542  1.6828 -1.2487
 9501TIP3    H249919   1.413   0.392  11.286 -0.6433 -1.8333  1.5680
 9502TIP3   OH249920   4.469   5.129  13.831  0.6331  0.1021  0.1108
 9502TIP3    H149921   4.540   5.124  13.895  0.0925  1.7215  0.8783
 9502TIP3    H249922   4.444   5.221  13.829 -0.7494 -0.2548 -0.9234
 9503TIP3   OH249923   6.101   0.852  16.256 -0.2945  0.7373 -0.8082
 9503TIP3    H149924   6.166   0.791  16.292 -0.5313  0.8082 -0.2600
 9503TIP3    H249925   6.142   0.938  16.263 -0.6481  0.8509  0.0403
 9504TIP3   OH249926   3.457   2.944  15.534  0.0462  0.0481  0.2928
 9504TIP3    H149927   3.440   2.859  15.574 -0.0338 -0.1877 -0.2381
 9504TIP3    H249928   3.456   2.927  15.440  2.3681  0.1675  0.1849
 9505TIP3   OH249929   1.438   3.377  15.166  0.1765  0.1946  0.2451
 9505TIP3    H149930   1.501   3.449  15.165  0.3201  0.1150  1.6342
 9505TIP3    H249931   1.430   3.353  15.258  0.8717 -2.2190 -0.2482
 9506TIP3   OH249932   1.367   0.240   1.538 -0.2607 -0.2582  0.3370
 9506TIP3    H149933   1.363   0.310   1.603 -0.3561 -0.4127  0.4976
 9506TIP3    H249934   1.290   0.187   1.556 -0.2992 -0.2910  0.0849
 9507TIP3   OH249935   2.356   1.981  15.706 -0.0150  0.0670 -0.2901
 9507TIP3    H149936   2.334   1.890  15.728  1.6107 -0.2139  0.3300
 9507TIP3    H249937   2.272   2.021  15.682 -0.6617 -1.7995 -1.3810
 9508TIP3   OH249938   0.414   1.788   5.003  0.0041  0.4667  0.2313
 9508TIP3    H149939   0.456   1.782   5.089 -0.0815  0.4728  0.2746
 9508TIP3    H249940   0.348   1.856   5.014  0.8936  1.4261 -0.2232
 9509TIP3   OH249941   3.168   3.688   4.227  0.0352  0.1465  0.1108
 9509TIP3    H149942   3.114   3.612   4.245 -0.0030  0.1924  0.1890
 9509TIP3    H249943   3.156   3.705   4.133  0.4389 -0.2521 -0.0187
 9510TIP3   OH249944   1.642   0.305   0.004  0.0493 -0.2338  0.0392
 9510TIP3    H149945   1.558   0.313   0.049  0.4493 -0.6220  0.8917
 9510TIP3    H249946   1.662   0.394  -0.024  1.1478  0.6942  3.2576
 9511TIP3   OH249947   1.782   5.878   2.601  0.1305 -0.3532  0.0357
 9511TIP3    H149948   1.817   5.801   2.646 -1.6777 -0.2434  1.7622
 9511TIP3    H249949   1.687   5.868   2.607 -0.1402  1.5204 -0.5849
 9512TIP3   OH249950   4.000   4.639   0.945  0.5623 -0.6102  0.5520
 9512TIP3    H149951   4.016   4.661   1.037  1.1200 -0.0622  0.3275
 9512TIP3    H249952   4.016   4.720   0.898  0.0957 -0.8442 -0.0169
 9513TIP3   OH249953   2.791   3.097   4.770 -0.7079 -0.0797 -0.3321
 9513TIP3    H149954   2.794   3.066   4.679 -4.3471 -2.9932  0.2890
 9513TIP3    H249955   2.881   3.090   4.801  0.3368 -0.6317 -3.2008
 9514TIP3   OH249956   1.965   1.111   4.211 -0.2230  0.0994  0.0534
 9514TIP3    H149957   1.946   1.030   4.163 -1.2463  1.0436 -1.1824
 9514TIP3    H249958   1.931   1.095   4.299 -0.0543 -0.9510 -0.0577
 9515TIP3   OH249959   2.514   4.302  12.465 -0.5485  0.1412  0.4835
 9515TIP3    H149960   2.475   4.215  12.473  2.0207 -1.2158 -0.5156
 9515TIP3    H249961   2.578   4.306  12.537 -0.1832  0.9420  0.1245
 9516TIP3   OH249962   3.104   6.271   1.687 -0.0225 -0.0485  0.0117
 9516TIP3    H149963   3.068   6.201   1.742 -0.5679  1.1469  1.2356
 9516TIP3    H249964   3.055   6.264   1.605 -0.3524 -0.8376  0.2599
 9517TIP3   OH249965   2.851   3.932  11.414  0.0391  0.1842 -0.5918
 9517TIP3    H149966   2.940   3.965  11.428  1.2004 -2.5052 -1.1687
 9517TIP3    H249967   2.822   3.974  11.333  2.3031 -1.6658 -2.4917
 9518TIP3   OH249968   0.408   1.453   1.194 -0.3292 -0.6534  0.6781
 9518TIP3    H149969   0.337   1.516   1.209  0.0023  0.1673 -0.9456
 9518TIP3    H249970   0.479   1.505   1.158 -0.4705 -2.0736 -1.9150
 9519TIP3   OH249971   4.558   1.242   2.052  0.3758  0.3366 -0.0713
 9519TIP3    H149972   4.554   1.219   2.145  2.0458  0.4229  0.0582
 9519TIP3    H249973   4.495   1.185   2.010 -1.7263  1.5120  1.3171
 9520TIP3   OH249974   2.003   4.232   4.240 -0.1779 -0.1045  0.2347
 9520TIP3    H149975   2.085   4.194   4.208  0.8890  2.0415  0.1820
 9520TIP3    H249976   1.937   4.165   4.223  1.6179 -2.1340  0.7556
 9521TIP3   OH249977   0.183   0.006  14.876 -0.5128 -0.8613 -0.5611
 9521TIP3    H149978   0.097  -0.026  14.906 -0.4809  0.9388  1.7210
 9521TIP3    H249979   0.164   0.087  14.830 -0.0320 -0.4170  0.0138
 9522TIP3   OH249980   3.422   0.231  11.348  0.3990  0.4701 -0.2723
 9522TIP3    H149981   3.418   0.151  11.401 -0.6134  0.4674 -0.3362
 9522TIP3    H249982   3.340   0.231  11.298  1.6986  0.0012 -2.5493
 9523TIP3   OH249983   2.917   3.198   3.860  0.3802  0.4960  0.3214
 9523TIP3    H149984   2.882   3.171   3.776 -0.4049 -0.1157  0.8314
 9523TIP3    H249985   2.898   3.292   3.865  0.0994  0.4591 -0.0265
 9524TIP3   OH249986   3.834   2.237  13.410  0.0772 -0.5807 -0.1701
 9524TIP3    H149987   3.775   2.279  13.472 -0.3357 -0.3398 -0.7200
 9524TIP3    H249988   3.778   2.177  13.361  0.3696 -0.6533 -0.4154
 9525TIP3   OH249989   3.592   0.920  12.040  0.4189  0.5209 -0.9779
 9525TIP3    H149990   3.547   0.935  11.957 -0.7421 -0.5485 -0.5684
 9525TIP3    H249991   3.538   0.966  12.105  0.9560  0.7979 -0.7228
 9526TIP3   OH249992   6.735   6.469   4.698  0.0022  0.1355 -1.0450
 9526TIP3    H149993   6.734   6.510   4.612  0.4235  1.0166 -0.6379
 9526TIP3    H249994   6.674   6.521   4.751  0.9377  0.5812 -0.3829
 9527TIP3   OH249995   4.438   1.230  11.630 -0.4306 -0.0032  0.0148
 9527TIP3    H149996   4.483   1.304  11.589  0.3351 -0.7443 -0.5112
 9527TIP3    H249997   4.496   1.202  11.701 -0.8639  0.0920  0.4117
 9528TIP3   OH249998   5.223   4.042  11.713  0.6982  0.3508 -0.1672
 9528TIP3    H149999   5.215   4.003  11.800 -0.8171  0.9967  0.0115
 9528TIP3    H250000   5.263   3.973  11.660  1.7264 -0.0172  1.0381
 9529TIP3   OH250001   3.384   2.262  16.423  0.5024  0.4465 -0.1916
 9529TIP3    H150002   3.308   2.296  16.471  1.1205  1.8598 -0.1558
 9529TIP3    H250003   3.397   2.174  16.458 -0.6431  0.4679  0.3489
 9530TIP3   OH250004   1.166   5.985  10.912 -0.4857  0.1078  0.1924
 9530TIP3    H150005   1.198   5.956  10.997  3.0748  1.0757 -0.6587
 9530TIP3    H250006   1.170   5.906  10.857  1.4532  0.3874 -0.1182
 9531TIP3   OH250007   6.341   1.973  16.444 -0.0082 -0.4903 -0.1938
 9531TIP3    H150008   6.358   1.899  16.502 -1.6879  0.5576  1.7664
 9531TIP3    H250009   6.414   2.033  16.460 -0.1085 -0.5064  0.3361
 9532TIP3   OH250010   6.248   3.238  14.365 -0.1889  0.0917 -0.4406
 9532TIP3    H150011   6.182   3.176  14.334  0.8660 -1.4635  0.2994
 9532TIP3    H250012   6.208   3.277  14.443 -1.8937  2.3186 -2.2855
 9533TIP3   OH250013   3.187   1.567   3.426 -0.4443 -0.2733 -0.2128
 9533TIP3    H150014   3.211   1.506   3.495 -0.3443  0.2959  0.2674
 9533TIP3    H250015   3.121   1.623   3.466 -0.7411 -0.2459 -0.7345
 9534TIP3   OH250016   0.984   4.404  14.019 -0.3745  0.1800  0.7811
 9534TIP3    H150017   0.987   4.386  13.925 -2.1840 -0.6357  0.8210
 9534TIP3    H250018   0.961   4.497  14.025  1.0114  0.5579  0.4501
 9535TIP3   OH250019   3.105   5.040   0.765 -0.5310  0.0829 -0.0483
 9535TIP3    H150020   3.072   4.958   0.801 -2.0186  0.1412 -1.1927
 9535TIP3    H250021   3.082   5.037   0.672 -4.2300  3.3694  0.4772
 9536TIP3   OH250022   1.442   4.743   0.733  0.3761 -0.2949 -0.0431
 9536TIP3    H150023   1.527   4.754   0.691  1.3166 -1.4083  1.4454
 9536TIP3    H250024   1.402   4.669   0.687  0.4714 -0.1570 -0.3495
 9537TIP3   OH250025   2.868   3.907  13.951 -0.1723  0.3463  0.0119
 9537TIP3    H150026   2.835   3.997  13.961 -0.1769  0.3988 -0.4254
 9537TIP3    H250027   2.942   3.915  13.891 -0.1436  0.0645  0.0070
 9538TIP3   OH250028   3.340   6.565  15.986  0.1216  0.0495  0.0778
 9538TIP3    H150029   3.255   6.538  16.020 -1.3749  4.3921  0.4010
 9538TIP3    H250030   3.397   6.489  15.999 -3.0178 -2.1639  2.2266
 9539TIP3   OH250031   3.630   1.120   4.593  0.3180  0.1441  0.0080
 9539TIP3    H150032   3.651   1.134   4.685 -2.2667 -0.9683  0.8715
 9539TIP3    H250033   3.535   1.134   4.588  0.3312 -0.1579 -2.4384
 9540TIP3   OH250034   4.453   2.608  13.806  0.6300 -0.0043  0.5961
 9540TIP3    H150035   4.483   2.698  13.814  0.4495  0.0386  0.8009
 9540TIP3    H250036   4.532   2.558  13.786  0.8747  0.0675  1.3816
 9541TIP3   OH250037   2.232   3.357  12.927 -0.0818  0.5837  0.1267
 9541TIP3    H150038   2.228   3.288  12.862 -0.7297 -1.1892  1.9447
 9541TIP3    H250039   2.279   3.319  13.001 -3.1639  0.8441  2.4558
 9542TIP3   OH250040   1.043   4.817  11.288 -0.0798 -0.0505 -0.1591
 9542TIP3    H150041   1.123   4.764  11.280  0.6110  0.9677 -0.2625
 9542TIP3    H250042   0.973   4.759  11.261  1.0226  0.1206 -3.9908
 9543TIP3   OH250043   2.491   3.911  16.779  0.1599 -0.0907 -0.4686
 9543TIP3    H150044   2.549   3.876  16.711  1.1168  0.3226  0.1006
 9543TIP3    H250045   2.416   3.852  16.780  0.7917 -0.9268 -0.9133
 9544TIP3   OH250046   1.750   3.398   4.439  0.4297  0.1967 -0.2471
 9544TIP3    H150047   1.812   3.335   4.403 -2.0292 -2.3815 -0.2541
 9544TIP3    H250048   1.696   3.425   4.365 -0.6811 -0.3432  0.3386
 9545TIP3   OH250049   2.836   2.567   3.206  0.9578  0.6010 -0.0536
 9545TIP3    H150050   2.840   2.636   3.273  1.6441  1.8221 -1.2946
 9545TIP3    H250051   2.834   2.486   3.256 -1.3283  1.5019  1.5177
 9546TIP3   OH250052   4.882   5.568   1.470  0.4982 -0.0231 -0.3593
 9546TIP3    H150053   4.816   5.624   1.510  1.5618  0.1880  1.1945
 9546TIP3    H250054   4.858   5.565   1.378  0.2621  2.7865 -0.4679
 9547TIP3   OH250055   6.227   4.201   0.990 -0.3774  0.3619 -0.7830
 9547TIP3    H150056   6.229   4.113   1.027  0.5974 -0.9735 -3.7298
 9547TIP3    H250057   6.248   4.259   1.064 -0.1909 -1.9284  1.0544
 9548TIP3   OH250058   4.169   6.295   6.496 -0.0434 -0.4457  0.9408
 9548TIP3    H150059   4.141   6.386   6.508 -0.3121 -0.4317  0.2949
 9548TIP3    H250060   4.097   6.243   6.532 -1.0860 -0.4120 -0.9173
 9549TIP3   OH250061   0.356   6.690   2.260 -0.3520  0.5913 -0.0630
 9549TIP3    H150062   0.390   6.652   2.341  0.4204 -0.0034 -0.6513
 9549TIP3    H250063   0.356   6.617   2.197 -0.0688  1.2574 -0.8534
 9550TIP3   OH250064   0.620   4.872  13.631 -0.1788  0.4488 -0.0948
 9550TIP3    H150065   0.700   4.888  13.581  0.6343  0.6703  1.2206
 9550TIP3    H250066   0.561   4.828  13.570  1.0984 -0.0842 -0.9809
 9551TIP3   OH250067   6.320   0.999   2.158  0.2269  0.1254 -0.0660
 9551TIP3    H150068   6.385   0.932   2.174 -0.2765 -0.8695 -1.8518
 9551TIP3    H250069   6.261   0.994   2.233  1.1222 -0.2646  0.6284
 9552TIP3   OH250070   0.466   1.912   3.839 -0.4988  0.1776 -0.0236
 9552TIP3    H150071   0.475   1.975   3.767 -1.1393 -0.7962 -0.9817
 9552TIP3    H250072   0.378   1.927   3.874 -0.1175  0.7806  0.7011
 9553TIP3   OH250073   0.722   5.561  17.030 -1.1829  0.4431 -0.1769
 9553TIP3    H150074   0.792   5.521  16.978 -1.5754 -0.6853  0.1574
 9553TIP3    H250075   0.739   5.532  17.119 -0.7481  2.0536  0.3017
 9554TIP3   OH250076   0.131   0.684   4.604  0.0248  0.1316 -0.3873
 9554TIP3    H150077   0.170   0.596   4.606  0.0401 -0.0026 -3.0691
 9554TIP3    H250078   0.205   0.743   4.617  0.4294 -0.2187 -1.0469
 9555TIP3   OH250079   3.569   0.349  17.180 -0.5900  0.5567 -0.3762
 9555TIP3    H150080   3.652   0.307  17.202 -1.5164 -0.3644  1.6710
 9555TIP3    H250081   3.588   0.442  17.176  0.5183  0.3618  0.1721
 9556TIP3   OH250082   4.055   4.123  15.543 -0.3660 -0.3807 -0.1496
 9556TIP3    H150083   4.027   4.213  15.560  0.0128 -0.4279  0.7987
 9556TIP3    H250084   3.988   4.069  15.584  0.5663 -0.4983  1.2998
 9557TIP3   OH250085   6.622   4.906   5.987  0.5517 -0.1019 -0.2581
 9557TIP3    H150086   6.712   4.913   6.019  0.5408 -1.4227  0.1437
 9557TIP3    H250087   6.570   4.885   6.065  0.1165 -0.6790 -0.6907
 9558TIP3   OH250088   5.925   1.015   5.210 -0.3184 -0.6008 -0.1389
 9558TIP3    H150089   5.857   0.954   5.238  0.0235 -0.3834  1.2334
 9558TIP3    H250090   5.903   1.097   5.254 -0.3985  0.0866 -1.4366
 9559TIP3   OH250091   5.566   5.740   1.584  0.0627 -0.0510  0.1909
 9559TIP3    H150092   5.489   5.710   1.631  0.1768 -1.4689 -0.4777
 9559TIP3    H250093   5.606   5.660   1.548  2.4317  0.5024  1.3657
 9560TIP3   OH250094   2.912   6.145  17.111 -0.0942 -0.0533 -0.6473
 9560TIP3    H150095   2.829   6.144  17.064  0.2023 -1.1380 -1.1743
 9560TIP3    H250096   2.888   6.169  17.201 -1.3287 -2.4987 -0.2275
 9561TIP3   OH250097   3.626   3.438   1.670 -0.0232 -0.0324  0.2882
 9561TIP3    H150098   3.549   3.459   1.618 -0.4205  0.8989  1.2254
 9561TIP3    H250099   3.591   3.392   1.746  0.1930  1.3925  1.2887
 9562TIP3   OH250100   1.291   3.869   2.499  0.4173  0.3618  0.0483
 9562TIP3    H150101   1.297   3.824   2.583 -0.6608  0.0227 -0.0410
 9562TIP3    H250102   1.201   3.854   2.470  0.7002  0.6791 -1.0502
 9563TIP3   OH250103   0.518   5.046  14.213  0.3750  0.2257  0.2258
 9563TIP3    H150104   0.445   5.081  14.264  0.8194  0.4009  0.7522
 9563TIP3    H250105   0.561   4.984  14.272  1.1873  0.7934  0.2486
 9564TIP3   OH250106   1.254   0.482  11.607  0.1411  0.2672  0.1100
 9564TIP3    H150107   1.271   0.449  11.519  0.8423 -0.3630  0.4660
 9564TIP3    H250108   1.304   0.563  11.613  2.0929 -0.8932  0.6955
 9565TIP3   OH250109   0.842   0.026  17.183 -0.7211  0.2420 -0.1840
 9565TIP3    H150110   0.886   0.109  17.199 -1.7033  0.6483  0.5329
 9565TIP3    H250111   0.785   0.043  17.108 -1.3166  0.3798  0.2940
 9566TIP3   OH250112   3.201   5.799   0.735  0.1693 -0.4694  0.0708
 9566TIP3    H150113   3.145   5.830   0.664  0.0887  0.2385  0.4381
 9566TIP3    H250114   3.167   5.841   0.814  0.3270 -1.1608  0.5171
 9567TIP3   OH250115   1.144   6.556  13.281 -0.4649  0.4169  0.3753
 9567TIP3    H150116   1.200   6.604  13.219 -0.2096  0.7467  0.8525
 9567TIP3    H250117   1.170   6.465  13.270  1.0320  0.6885  1.4355
 9568TIP3   OH250118   5.383   1.353  12.206  0.2352  0.0650  0.3252
 9568TIP3    H150119   5.432   1.425  12.245  0.3401 -0.5712  1.4195
 9568TIP3    H250120   5.325   1.323  12.276  0.3478 -1.0463 -0.0364
 9569TIP3   OH250121   1.731   0.098   2.983 -0.1945  0.1318  0.6762
 9569TIP3    H150122   1.637   0.097   2.965  0.0565 -0.7402 -0.7188
 9569TIP3    H250123   1.738   0.060   3.071 -1.0946 -0.5051  0.4891
 9570TIP3   OH250124   2.216   4.851  16.913  0.5716  0.0975 -0.2785
 9570TIP3    H150125   2.197   4.838  16.821  1.0429  0.1136 -0.3777
 9570TIP3    H250126   2.205   4.946  16.927 -1.1581 -0.1174  0.0664
 9571TIP3   OH250127   5.511   6.735   0.183 -0.6279 -0.2211 -0.4571
 9571TIP3    H150128   5.499   6.745   0.088 -3.3785  1.1986 -0.0694
 9571TIP3    H250129   5.437   6.682   0.211 -0.1800 -0.1251  0.9734
 9572TIP3   OH250130   4.065   6.745   1.854 -0.5978 -0.0514 -0.2401
 9572TIP3    H150131   4.128   6.816   1.869 -0.4514  0.1386 -1.6749
 9572TIP3    H250132   4.119   6.671   1.827 -0.8441 -0.4224  0.2726
 9573TIP3   OH250133   5.859   3.862   0.833  0.0753 -0.2196  0.5176
 9573TIP3    H150134   5.774   3.902   0.814 -0.4550 -0.0037  2.9955
 9573TIP3    H250135   5.838   3.783   0.882  1.2502 -1.8715 -1.4630
 9574TIP3   OH250136   4.293   4.018  16.333  0.5367  0.1017 -0.3006
 9574TIP3    H150137   4.334   4.010  16.247 -0.1403  1.2638 -0.7452
 9574TIP3    H250138   4.313   3.935  16.376  1.1212 -0.3892 -1.4682
 9575TIP3   OH250139   1.600   2.306  15.188  0.5407 -0.5144 -0.1195
 9575TIP3    H150140   1.694   2.317  15.174  0.2214  0.8099 -1.5488
 9575TIP3    H250141   1.560   2.366  15.125 -1.2930 -1.9578 -0.3986
 9576TIP3   OH250142   1.912   5.542   5.543 -0.6535 -0.0761 -0.3648
 9576TIP3    H150143   1.963   5.619   5.567 -1.4903  0.2157  0.5064
 9576TIP3    H250144   1.972   5.490   5.489  0.5872  0.2259  0.6696
 9577TIP3   OH250145   5.892   3.521  16.257 -0.2742 -0.1790  0.1306
 9577TIP3    H150146   5.938   3.594  16.298 -1.1149  1.0920 -1.1075
 9577TIP3    H250147   5.961   3.473  16.210 -0.0037  1.0376 -0.7614
 9578TIP3   OH250148   1.996   6.320  12.025  0.3304 -0.2151  0.5928
 9578TIP3    H150149   1.993   6.361  12.111  0.3543 -0.9127  0.9308
 9578TIP3    H250150   2.084   6.282  12.020  0.2049 -0.4813  0.4030
 9579TIP3   OH250151   5.592   5.059  15.855  0.1226 -0.4957 -0.2376
 9579TIP3    H150152   5.563   4.967  15.857 -2.3668  0.1161 -2.2580
 9579TIP3    H250153   5.525   5.103  15.802  1.6797  2.3532  0.0130
 9580TIP3   OH250154   2.851   4.809  11.932 -0.7553  0.0513  0.3559
 9580TIP3    H150155   2.879   4.723  11.961 -1.9501 -0.7863 -0.8775
 9580TIP3    H250156   2.906   4.828  11.855 -0.6183  0.3156  0.5156
 9581TIP3   OH250157   1.541   0.026   2.543 -0.6192  0.0907 -0.2021
 9581TIP3    H150158   1.599  -0.049   2.561 -0.0095  0.5701 -0.1468
 9581TIP3    H250159   1.467   0.014   2.603 -0.6471 -0.5909 -0.3550
 9582TIP3   OH250160   0.740   3.518  13.974 -0.3018 -0.3515 -0.1772
 9582TIP3    H150161   0.650   3.484  13.971 -0.0187 -1.0296 -1.5224
 9582TIP3    H250162   0.786   3.472  13.904  1.0260  0.2260  0.2774
 9583TIP3   OH250163   1.476   4.529  13.496 -0.4553 -0.1082 -0.0148
 9583TIP3    H150164   1.398   4.559  13.543  0.4090  2.3278  0.0341
 9583TIP3    H250165   1.448   4.450  13.451 -2.4706 -0.2426  1.3313
 9584TIP3   OH250166   1.291   4.050  11.977 -0.1571 -0.0958 -0.1513
 9584TIP3    H150167   1.303   3.984  11.908 -0.4460 -2.4571  1.9305
 9584TIP3    H250168   1.297   4.001  12.059  0.1002  2.5881  1.5519
 9585TIP3   OH250169   6.714   4.436   1.591 -0.5334  0.0544 -0.1980
 9585TIP3    H150170   6.782   4.487   1.636 -0.6158  0.7525 -0.8470
 9585TIP3    H250171   6.635   4.449   1.644 -0.2278 -0.5681  0.4272
 9586TIP3   OH250172   5.341   5.023  10.831  0.5736 -0.5061  0.5894
 9586TIP3    H150173   5.301   5.027  10.919 -2.0785  1.0490 -0.5502
 9586TIP3    H250174   5.407   5.092  10.832  0.4882 -0.4226  1.3288
 9587TIP3   OH250175   4.218   3.873  12.574  0.1105 -0.2616 -0.3761
 9587TIP3    H150176   4.203   3.800  12.635 -1.7194  1.7975  1.8286
 9587TIP3    H250177   4.308   3.860  12.544  1.0215 -1.6399  2.5223
 9588TIP3   OH250178   0.895   0.163   6.526 -0.2032  0.1432  0.1208
 9588TIP3    H150179   0.897   0.208   6.611  0.3740  2.1471 -0.8964
 9588TIP3    H250180   0.985   0.168   6.494 -0.4995 -0.1890 -0.7996
 9589TIP3   OH250181   2.610   2.673   1.319  0.4165  0.5314  0.0481
 9589TIP3    H150182   2.644   2.629   1.241  0.3925  2.0842 -0.8789
 9589TIP3    H250183   2.674   2.652   1.388  1.8735  1.2232 -1.0303
 9590TIP3   OH250184   1.422   3.807   0.721  1.0068  0.4382 -0.4548
 9590TIP3    H150185   1.391   3.891   0.757  1.0945 -0.0849  0.8885
 9590TIP3    H250186   1.507   3.828   0.683  1.6597  0.7283  1.0796
 9591TIP3   OH250187   6.128   1.498  12.080 -0.4078 -0.0508 -0.6046
 9591TIP3    H150188   6.065   1.457  12.020 -1.2393  1.4414 -0.7965
 9591TIP3    H250189   6.145   1.431  12.146  0.0175 -1.4945 -2.1194
 9592TIP3   OH250190   0.451   4.428   0.517  0.6788  0.3128  0.1598
 9592TIP3    H150191   0.385   4.447   0.584  0.2269 -0.5440 -0.0219
 9592TIP3    H250192   0.520   4.381   0.564 -0.4828 -1.9615 -0.2514
 9593TIP3   OH250193   4.629   2.948   5.680 -0.3068  0.1393  0.4588
 9593TIP3    H150194   4.555   3.000   5.713 -1.1115 -1.0783  0.6436
 9593TIP3    H250195   4.600   2.916   5.595 -0.2675 -0.8981  0.8276
 9594TIP3   OH250196   5.234   3.197  10.635 -0.3559  0.5514  0.2155
 9594TIP3    H150197   5.300   3.146  10.683  0.5680  0.7934 -0.7611
 9594TIP3    H250198   5.160   3.201  10.695  0.3392 -0.1249  1.1678
 9595TIP3   OH250199   3.133   5.464  14.890  0.6435 -0.1753  0.1126
 9595TIP3    H150200   3.221   5.473  14.853  0.7498 -0.9625  0.1590
 9595TIP3    H250201   3.132   5.376  14.928 -1.2727 -1.6454 -2.9497
 9596TIP3   OH250202   2.823   0.445   1.449  0.2206  0.4949  0.4068
 9596TIP3    H150203   2.913   0.478   1.444 -0.0607  1.3040  0.4608
 9596TIP3    H250204   2.793   0.445   1.358  0.5244 -0.5261  0.2945
 9597TIP3   OH250205   0.152   6.204  11.616  0.3182 -0.0045 -0.2039
 9597TIP3    H150206   0.084   6.170  11.558  0.6575 -2.7565  0.8917
 9597TIP3    H250207   0.105   6.257  11.680 -0.2414  1.6188 -1.8476
 9598TIP3   OH250208   2.164   1.597  12.315 -0.2966 -0.3023 -0.1129
 9598TIP3    H150209   2.210   1.618  12.234 -1.9603 -0.4874 -1.1670
 9598TIP3    H250210   2.228   1.611  12.385  0.9663  0.5448 -1.4069
 9599TIP3   OH250211   4.383   4.117   2.747  0.2337  0.1821  0.2594
 9599TIP3    H150212   4.342   4.031   2.760  0.0578 -0.3924 -3.1437
 9599TIP3    H250213   4.312   4.180   2.762 -0.4676 -0.4755 -0.2226
 9600TIP3   OH250214   0.849   3.512  13.536  0.3054  0.6082  0.3995
 9600TIP3    H150215   0.870   3.572  13.464  0.8921  0.6382  0.5949
 9600TIP3    H250216   0.912   3.533  13.604  0.6218 -0.3499  0.4145
 9601TIP3   OH250217   0.836   0.344   0.932 -0.5687 -0.2626  0.0471
 9601TIP3    H150218   0.797   0.431   0.940 -1.8058 -0.8539  0.6656
 9601TIP3    H250219   0.820   0.303   1.017  1.7059 -0.4314  0.4566
 9602TIP3   OH250220   5.775   4.153   3.825  0.1501 -0.2664  0.3180
 9602TIP3    H150221   5.685   4.122   3.831  0.2630 -0.4563  1.1743
 9602TIP3    H250222   5.788   4.173   3.733 -1.4094  1.6959  0.4756
 9603TIP3   OH250223   1.974   1.205   3.151  0.1072 -0.3713  0.0496
 9603TIP3    H150224   1.948   1.183   3.061  0.1070 -1.8073  0.3773
 9603TIP3    H250225   1.924   1.144   3.206  2.4665 -1.7104  0.8393
 9604TIP3   OH250226   3.863   4.329   5.262 -0.1284  0.3018 -0.1775
 9604TIP3    H150227   3.867   4.332   5.358  0.3681 -0.8129 -0.1501
 9604TIP3    H250228   3.902   4.412   5.234  2.6096 -0.6015  0.5665
 9605TIP3   OH250229   2.951   2.126  13.513  0.1989  0.1636 -0.7691
 9605TIP3    H150230   3.007   2.201  13.530  1.6471 -1.3425  1.6374
 9605TIP3    H250231   2.870   2.164  13.478  1.5060  2.6605 -1.2645
 9606TIP3   OH250232   0.656   6.115  13.053  0.0122  0.0072 -0.5124
 9606TIP3    H150233   0.702   6.050  13.000 -0.7061  0.4587 -1.7275
 9606TIP3    H250234   0.615   6.173  12.989 -0.7046  0.6996  0.5501
 9607TIP3   OH250235   6.538   6.697   4.682 -0.3214 -0.0523 -0.2786
 9607TIP3    H150236   6.477   6.769   4.697 -0.4179 -0.4574  1.4565
 9607TIP3    H250237   6.529   6.677   4.588 -1.6159  0.9856 -0.4038
 9608TIP3   OH250238   6.239   0.187   0.021  0.6198  0.2618 -0.6518
 9608TIP3    H150239   6.306   0.217   0.083  1.4240  0.6055 -1.6719
 9608TIP3    H250240   6.287   0.167  -0.059 -0.4305 -0.0350 -1.2247
 9609TIP3   OH250241   4.044   4.711   2.519  0.2048 -0.0586  0.0317
 9609TIP3    H150242   4.032   4.762   2.599 -1.1290 -0.6208  0.2113
 9609TIP3    H250243   4.133   4.676   2.526  0.6032  1.0202  0.5918
 9610TIP3   OH250244   6.609   6.407  17.120  0.2058 -0.0542 -0.2675
 9610TIP3    H150245   6.632   6.367  17.036 -1.0002  0.8441 -1.0520
 9610TIP3    H250246   6.631   6.340  17.185 -0.7137 -1.5619 -1.4422
 9611TIP3   OH250247   2.242   6.694  13.673 -0.6757 -0.6657  0.3480
 9611TIP3    H150248   2.215   6.781  13.644 -0.7243 -0.5311  0.8016
 9611TIP3    H250249   2.309   6.710  13.739 -0.4855 -0.9795  0.2364
 9612TIP3   OH250250   6.194   1.499   6.751  0.5429  0.1399  0.1131
 9612TIP3    H150251   6.245   1.421   6.729  0.5513  0.4204 -0.8981
 9612TIP3    H250252   6.227   1.567   6.692  0.2930  0.8216  0.7452
 9613TIP3   OH250253   5.042   3.519  13.805  0.4857 -0.4162  0.0335
 9613TIP3    H150254   4.973   3.463  13.769  1.5532 -0.8437 -1.4265
 9613TIP3    H250255   5.039   3.503  13.899  1.0192 -3.2715 -0.3641
 9614TIP3   OH250256   4.199   3.398   4.083 -0.2559  0.4442  0.3966
 9614TIP3    H150257   4.166   3.435   4.164 -0.1766  0.1373  0.5733
 9614TIP3    H250258   4.133   3.334   4.057  0.1531 -0.1209  0.7161
 9615TIP3   OH250259   1.506   1.599   4.730 -0.5243  0.3009 -0.0203
 9615TIP3    H150260   1.565   1.633   4.797  0.4297  0.0565 -0.7071
 9615TIP3    H250261   1.526   1.505   4.726 -0.8191  0.2496 -0.3887
 9616TIP3   OH250262   6.345   1.401  15.258  0.8302 -0.2379 -0.7530
 9616TIP3    H150263   6.357   1.417  15.352  0.2383 -0.2772 -0.6631
 9616TIP3    H250264   6.324   1.308  15.252 -3.4642  0.4749 -0.4039
 9617TIP3   OH250265   1.961   0.182   0.378  0.1116  0.1427 -0.1360
 9617TIP3    H150266   1.881   0.226   0.405 -0.2657  0.3282 -1.4830
 9617TIP3    H250267   1.970   0.109   0.439 -0.2356  1.0088  0.9882
 9618TIP3   OH250268   4.753   6.667   4.125 -0.0764  0.3683 -0.1559
 9618TIP3    H150269   4.718   6.756   4.124 -0.4364  0.2377  0.3457
 9618TIP3    H250270   4.779   6.653   4.216  1.7253  0.6245 -0.6072
 9619TIP3   OH250271   1.933   3.488   0.978 -0.1400  0.1857  0.1657
 9619TIP3    H150272   1.934   3.581   1.001  1.2792  0.0444  0.8214
 9619TIP3    H250273   1.909   3.486   0.886  1.9317  1.4061 -0.4822
 9620TIP3   OH250274   0.438   3.013   2.902  0.3901 -0.0826 -0.0127
 9620TIP3    H150275   0.500   3.085   2.915  0.6765  0.1789 -2.4665
 9620TIP3    H250276   0.376   3.022   2.975  0.9360  2.0887  0.2621
 9621TIP3   OH250277   1.321   5.268   5.469  0.2824 -0.0945  0.3150
 9621TIP3    H150278   1.273   5.185   5.471 -3.6206  1.8816 -0.7475
 9621TIP3    H250279   1.321   5.297   5.561  0.2531 -0.5280  0.4555
 9622TIP3   OH250280   2.173   5.178  17.143 -0.4109 -0.7560 -0.2532
 9622TIP3    H150281   2.220   5.204  17.222 -1.1561 -0.9803  0.2640
 9622TIP3    H250282   2.094   5.135  17.174 -0.4732 -1.2963 -1.1200
 9623TIP3   OH250283   3.480   6.510   4.051 -0.1768  1.0424  0.5011
 9623TIP3    H150284   3.390   6.538   4.070 -0.4308  0.1735  0.6031
 9623TIP3    H250285   3.531   6.540   4.126 -0.5187  0.8524  0.8106
 9624TIP3   OH250286   5.800   6.357  14.519 -0.4828 -0.4773 -0.6177
 9624TIP3    H150287   5.871   6.321  14.465  0.1373  1.4148 -1.1411
 9624TIP3    H250288   5.720   6.341  14.468  0.0505  0.9218 -1.9799
 9625TIP3   OH250289   2.064   4.197  11.362 -0.3419  0.0769  0.2558
 9625TIP3    H150290   2.078   4.287  11.331 -2.4352  0.5679  0.5698
 9625TIP3    H250291   1.993   4.205  11.426  1.2681 -1.4645  2.3520
 9626TIP3   OH250292   2.737   1.443  11.364 -0.3613 -0.7523  0.4019
 9626TIP3    H150293   2.647   1.426  11.336 -0.5123 -0.0918  0.4725
 9626TIP3    H250294   2.791   1.407  11.293 -0.5480 -3.7812  1.6487
 9627TIP3   OH250295   1.301   2.233  15.930 -0.7343  0.2290 -0.2413
 9627TIP3    H150296   1.307   2.205  15.839 -0.5981 -2.7706  0.5860
 9627TIP3    H250297   1.221   2.285  15.935 -2.4149 -2.0748 -1.5439
 9628TIP3   OH250298   3.981   6.694  11.818  0.3044 -0.0930 -0.0191
 9628TIP3    H150299   4.076   6.704  11.827  0.4326 -0.8737 -0.3840
 9628TIP3    H250300   3.955   6.647  11.897  0.3535 -0.5830 -0.2847
 9629TIP3   OH250301   4.002   0.094   2.454  0.4994  0.0623 -0.0622
 9629TIP3    H150302   4.040   0.181   2.440  0.5933  0.1291  0.5736
 9629TIP3    H250303   3.989   0.089   2.548 -0.6965 -0.1287 -0.2290
 9630TIP3   OH250304   2.686   5.152  13.243  0.3052 -0.4238  0.3926
 9630TIP3    H150305   2.725   5.072  13.207  0.8977  0.3908 -0.8543
 9630TIP3    H250306   2.653   5.198  13.167  0.2752  0.6830  1.0610
 9631TIP3   OH250307   5.862   1.033   6.795 -0.3222  0.4595 -0.5705
 9631TIP3    H150308   5.923   1.107   6.791  0.9625 -0.3351  2.0253
 9631TIP3    H250309   5.914   0.961   6.829 -1.9611 -1.2294 -1.4422
 9632TIP3   OH250310   4.988   4.777   3.215 -0.3593  0.8450 -0.0369
 9632TIP3    H150311   5.074   4.751   3.250 -0.6202 -0.8501 -0.5533
 9632TIP3    H250312   4.953   4.697   3.176 -2.5081  1.3217  0.7784
 9633TIP3   OH250313   4.659   3.303   3.751  0.4015  0.1966  0.1649
 9633TIP3    H150314   4.742   3.324   3.708  0.3492  0.6457  0.2788
 9633TIP3    H250315   4.676   3.313   3.844  0.4102 -0.4013  0.2263
 9634TIP3   OH250316   5.703   4.984  13.292  0.5100 -0.4975 -1.1739
 9634TIP3    H150317   5.673   4.905  13.247 -0.1846 -0.8778 -0.0799
 9634TIP3    H250318   5.788   4.959  13.330  0.4019 -0.6562 -1.0314
 9635TIP3   OH250319   3.147   4.534  13.044  0.5251  0.3873  0.0437
 9635TIP3    H150320   3.115   4.557  13.132  0.5301 -0.4597  0.2770
 9635TIP3    H250321   3.067   4.518  12.993  0.5209 -1.9993  0.7020
 9636TIP3   OH250322   0.671   1.480  12.434  0.2469  0.2205 -0.3249
 9636TIP3    H150323   0.671   1.392  12.396 -0.6490 -0.2752  0.7641
 9636TIP3    H250324   0.615   1.532  12.376 -0.7371 -0.4068  0.0412
 9637TIP3   OH250325   5.656   0.770  11.168 -0.3244 -0.0108  0.7288
 9637TIP3    H150326   5.741   0.762  11.126 -0.7571  1.1989 -0.4767
 9637TIP3    H250327   5.604   0.822  11.106 -2.7796 -2.8569  0.1360
 9638TIP3   OH250328   2.973   2.915   2.673 -0.5777  0.0273  0.2551
 9638TIP3    H150329   3.014   2.965   2.743 -0.2036  0.0969 -0.0150
 9638TIP3    H250330   2.970   2.975   2.598 -1.1151  0.0048  0.2554
 9639TIP3   OH250331   0.225   3.354   0.367 -0.1354  0.0162  0.1516
 9639TIP3    H150332   0.275   3.317   0.439  0.5005 -0.3054 -0.4430
 9639TIP3    H250333   0.277   3.335   0.289 -0.7542  0.4538 -0.3829
 9640TIP3   OH250334   6.139   0.929   1.101 -0.2650 -0.4491  0.3553
 9640TIP3    H150335   6.084   0.860   1.137 -0.6028  1.0106  2.9020
 9640TIP3    H250336   6.080   1.005   1.095  0.7490  0.3449  0.2551
 9641TIP3   OH250337   0.791   6.128   0.930 -0.7293  0.2274 -0.6522
 9641TIP3    H150338   0.869   6.138   0.875 -0.4799  1.4466 -0.1102
 9641TIP3    H250339   0.738   6.206   0.911 -0.5097  0.8188  1.0180
 9642TIP3   OH250340   1.351   4.988  11.649 -0.5267  0.5409 -0.1809
 9642TIP3    H150341   1.370   4.935  11.726  1.0657 -0.2766 -1.0682
 9642TIP3    H250342   1.340   4.924  11.578 -1.9752  1.2723 -0.6387
 9643TIP3   OH250343   2.592   4.897  11.833  0.0584 -0.5062 -0.1421
 9643TIP3    H150344   2.657   4.837  11.869 -0.3209 -1.7019 -1.3635
 9643TIP3    H250345   2.643   4.974  11.806  0.7107 -0.7334  0.3938
 9644TIP3   OH250346   1.538   4.854   4.055 -0.2061 -0.2911 -0.5123
 9644TIP3    H150347   1.564   4.885   4.142  0.4584  0.5859 -1.0129
 9644TIP3    H250348   1.571   4.764   4.051 -1.8725 -1.0438  0.8349
 9645TIP3   OH250349   5.121   6.081  14.627  0.2004  0.5441 -1.2517
 9645TIP3    H150350   5.175   6.126  14.561 -0.1325  0.6501 -1.4552
 9645TIP3    H250351   5.184   6.038  14.684  0.4809 -1.6803 -3.0998
 9646TIP3   OH250352   4.084   6.019  12.399  0.4289 -0.5219  0.1101
 9646TIP3    H150353   4.132   6.075  12.338 -1.2854  0.4635 -0.4023
 9646TIP3    H250354   4.080   6.070  12.480 -0.4460 -0.2218 -0.1108
 9647TIP3   OH250355   2.046   2.881  15.647 -0.1332 -0.2390 -0.7604
 9647TIP3    H150356   2.125   2.859  15.696 -0.0479 -1.3615 -1.3686
 9647TIP3    H250357   1.976   2.835  15.693 -0.5286  1.1304  0.0551
 9648TIP3   OH250358   5.820   0.471   3.708  0.1427  0.0768 -0.3528
 9648TIP3    H150359   5.775   0.553   3.688  0.1774 -0.1501 -1.4483
 9648TIP3    H250360   5.909   0.497   3.730 -0.1446  0.4161  0.4267
 9649TIP3   OH250361   0.338   5.286  14.481 -0.9699 -0.1915 -0.1212
 9649TIP3    H150362   0.303   5.326  14.561  1.0573 -1.0202  1.2760
 9649TIP3    H250363   0.279   5.315  14.411 -0.6067  3.7868  1.0184
 9650TIP3   OH250364   4.895   4.176   2.388  0.4186  0.4665 -0.3247
 9650TIP3    H150365   4.918   4.089   2.420  0.7466  0.1592 -1.3597
 9650TIP3    H250366   4.891   4.230   2.467 -0.1361 -0.5533  0.3714
 9651TIP3   OH250367   3.177   3.097  15.960  0.0314  0.3798 -1.0000
 9651TIP3    H150368   3.160   3.017  15.911  0.5265 -1.3228  1.4269
 9651TIP3    H250369   3.271   3.095  15.977  0.1180  1.7118 -1.2494
 9652TIP3   OH250370   1.499   5.112   2.580 -0.4361  0.4668 -0.7573
 9652TIP3    H150371   1.408   5.083   2.588 -0.2072 -0.4148 -1.3310
 9652TIP3    H250372   1.548   5.054   2.638  0.0190 -0.3125 -1.8976
 9653TIP3   OH250373   2.738   6.731  15.614 -0.1534 -0.2205 -0.0146
 9653TIP3    H150374   2.665   6.761  15.560 -0.5801 -1.3085 -0.0797
 9653TIP3    H250375   2.814   6.777  15.579 -0.4544 -0.7397 -1.4231
 9654TIP3   OH250376   3.320   6.691  12.786 -0.3394 -0.2462 -0.6315
 9654TIP3    H150377   3.342   6.663  12.875 -1.1974 -1.1274 -0.6781
 9654TIP3    H250378   3.332   6.786  12.787 -0.0472 -0.2819  0.3372
 9655TIP3   OH250379   0.819   2.099  15.616  0.2335  1.0181 -0.2001
 9655TIP3    H150380   0.900   2.095  15.668  0.3948  0.1621 -0.5017
 9655TIP3    H250381   0.849   2.094  15.525 -0.0429  2.6351 -0.4032
 9656TIP3   OH250382   1.375   2.059   0.933 -0.4793 -0.6673  0.0331
 9656TIP3    H150383   1.308   2.040   0.999 -0.7707  2.2537  0.7089
 9656TIP3    H250384   1.337   2.130   0.881 -1.0609 -3.9165 -4.5863
 9657TIP3   OH250385   5.379   6.413   2.275 -0.3603 -0.4730 -0.1619
 9657TIP3    H150386   5.379   6.337   2.216 -0.7991 -0.8886  0.3560
 9657TIP3    H250387   5.346   6.378   2.358 -0.6939  0.3153  0.0453
 9658TIP3   OH250388   6.030   1.241   4.257  0.1754  0.4166 -0.2419
 9658TIP3    H150389   5.948   1.193   4.268 -0.0244  0.7869 -0.0667
 9658TIP3    H250390   6.099   1.176   4.269 -0.0658  0.4098  1.2721
 9659TIP3   OH250391   1.326   5.474  16.456  0.3607 -0.0814  0.5273
 9659TIP3    H150392   1.290   5.390  16.428  1.8278 -0.6956  0.4144
 9659TIP3    H250393   1.251   5.534  16.454 -0.3547 -0.9621 -1.1479
 9660TIP3   OH250394   0.502   0.743  15.059  0.3034 -0.8195 -0.3492
 9660TIP3    H150395   0.539   0.655  15.060  1.7167 -0.3114 -2.0196
 9660TIP3    H250396   0.540   0.786  15.136  0.0300 -1.4926  0.1704
 9661TIP3   OH250397   3.014   5.474   6.306 -0.2404  0.0256 -0.0743
 9661TIP3    H150398   3.098   5.482   6.351 -0.5682 -1.9633  1.0627
 9661TIP3    H250399   2.957   5.537   6.350  0.4035  0.7127 -0.2103
 9662TIP3   OH250400   1.511   0.596  11.691  0.2591  0.2674  0.3675
 9662TIP3    H150401   1.527   0.628  11.602  0.0311  2.6930  1.1408
 9662TIP3    H250402   1.586   0.628  11.742 -0.5715  0.5672  1.4264
 9663TIP3   OH250403   5.005   5.936  10.923 -0.5452 -0.5703  0.0655
 9663TIP3    H150404   4.950   5.955  10.847 -0.1767 -0.7019 -0.2370
 9663TIP3    H250405   4.999   6.016  10.976 -1.0238 -0.5815  0.0367
 9664TIP3   OH250406   4.757   6.724  16.956  0.4152 -0.4385 -0.5534
 9664TIP3    H150407   4.824   6.746  16.892  0.6231  2.2905  0.4854
 9664TIP3    H250408   4.676   6.757  16.918  0.5429  1.2167  0.5119
 9665TIP3   OH250409   1.112   1.884   3.131 -0.6230 -0.0264 -0.3487
 9665TIP3    H150410   1.136   1.873   3.223  0.7712 -0.9496 -0.7779
 9665TIP3    H250411   1.018   1.867   3.129 -0.6600 -0.0998  0.8899
 9666TIP3   OH250412   1.605   2.613  14.770 -0.2669 -0.1160 -0.0557
 9666TIP3    H150413   1.609   2.520  14.749 -1.8690 -0.3378  0.5455
 9666TIP3    H250414   1.602   2.657  14.685 -0.5547 -0.6711 -0.3347
 9667TIP3   OH250415   6.505   4.340   3.307  0.5473 -0.2115  0.3837
 9667TIP3    H150416   6.520   4.433   3.294  0.1065 -0.0464  0.9813
 9667TIP3    H250417   6.524   4.300   3.223 -1.4013  0.6814 -0.5493
 9668TIP3   OH250418   0.149   5.342   4.413  0.5020 -0.0965  0.2885
 9668TIP3    H150419   0.232   5.330   4.460  1.8713  2.3017 -1.2446
 9668TIP3    H250420   0.100   5.404   4.467  0.5192 -0.1117  0.3218
 9669TIP3   OH250421   3.279   2.155  15.250 -0.1269 -0.0345 -0.1707
 9669TIP3    H150422   3.207   2.098  15.278  0.1070  0.1271  0.7822
 9669TIP3    H250423   3.238   2.218  15.191 -0.5737 -0.5700 -0.4436
 9670TIP3   OH250424   4.858   4.593   1.189 -0.1561 -0.6872  0.0481
 9670TIP3    H150425   4.927   4.604   1.255  0.9259 -1.1703 -0.9688
 9670TIP3    H250426   4.875   4.507   1.150  0.4077  0.3560 -2.1557
 9671TIP3   OH250427   5.810   1.211   3.332 -0.0533 -0.2427  0.6332
 9671TIP3    H150428   5.867   1.203   3.408  1.6076  0.3174 -0.5183
 9671TIP3    H250429   5.844   1.286   3.283 -0.5641 -1.0801 -1.0858
 9672TIP3   OH250430   5.264   3.002  17.190 -0.1733 -0.2260 -0.0062
 9672TIP3    H150431   5.255   3.024  17.282  0.4751  1.3698 -0.3034
 9672TIP3    H250432   5.174   2.981  17.162 -0.9129  2.2748  0.2800
 9673TIP3   OH250433   4.032   1.747   5.191  0.4421  0.2848  0.5252
 9673TIP3    H150434   3.995   1.775   5.107  1.4242  1.1054  0.3459
 9673TIP3    H250435   4.052   1.654   5.178 -0.9753 -0.0284  0.4384
 9674TIP3   OH250436   2.491   3.330  11.130 -0.1716 -0.0915  0.2307
 9674TIP3    H150437   2.520   3.282  11.052  2.6760  1.3073  0.3089
 9674TIP3    H250438   2.431   3.396  11.096 -1.0731 -1.1706 -0.3671
 9675TIP3   OH250439   4.791   6.344   2.915  0.4513 -0.5382 -0.6898
 9675TIP3    H150440   4.831   6.431   2.922  1.0124 -0.8272 -0.2442
 9675TIP3    H250441   4.805   6.304   3.001 -0.2248 -0.8916 -0.7415
 9676TIP3   OH250442   0.592   6.543  11.587  0.3091 -0.5828 -0.2702
 9676TIP3    H150443   0.659   6.525  11.521  0.8063  1.0092 -0.2318
 9676TIP3    H250444   0.509   6.519  11.545  0.5102  1.3598 -1.9059
 9677TIP3   OH250445   2.374   1.181   4.844  0.5083  0.0943  0.1906
 9677TIP3    H150446   2.463   1.157   4.821 -0.1824 -1.6038 -0.9078
 9677TIP3    H250447   2.327   1.098   4.848 -1.4813  1.0519 -1.3750
 9678TIP3   OH250448   5.358   1.126  16.526  0.3292 -0.0325  0.5725
 9678TIP3    H150449   5.350   1.122  16.431  2.4161  0.9424  0.3169
 9678TIP3    H250450   5.370   1.035  16.553 -0.8030 -0.3720 -0.0138
 9679TIP3   OH250451   5.418   1.403   2.791  0.4138 -0.4982  0.0252
 9679TIP3    H150452   5.355   1.403   2.863 -0.9834  0.1581 -1.1287
 9679TIP3    H250453   5.466   1.320   2.800 -1.6243 -1.7375  0.1261
 9680TIP3   OH250454   0.433   4.303   1.799 -0.0683  0.5164  0.6186
 9680TIP3    H150455   0.361   4.360   1.826  1.5402  2.4879  0.9524
 9680TIP3    H250456   0.445   4.322   1.706 -0.7431 -0.7560  0.2357
 9681TIP3   OH250457   5.069   1.956  11.585 -0.1036 -0.0821 -0.2271
 9681TIP3    H150458   5.058   1.915  11.671  0.1107 -0.7991 -0.5386
 9681TIP3    H250459   5.034   1.893  11.523 -0.8717  0.7135 -0.6264
 9682TIP3   OH250460   6.443   2.929  14.006  0.4300  0.2066 -0.1716
 9682TIP3    H150461   6.431   2.947  14.099 -0.1269 -1.2999  0.0770
 9682TIP3    H250462   6.355   2.919  13.971  0.6538  0.1146 -0.7317
 9683TIP3   OH250463   5.313   2.285   2.963 -0.1330 -0.1021  0.0711
 9683TIP3    H150464   5.271   2.295   3.048 -1.6708  2.2135 -0.8680
 9683TIP3    H250465   5.388   2.344   2.966  0.1486 -0.4453 -0.0173
 9684TIP3   OH250466   0.104   5.242  15.107  0.6297 -0.5767 -0.5486
 9684TIP3    H150467   0.037   5.237  15.174 -0.6951 -2.0554 -1.8882
 9684TIP3    H250468   0.133   5.334  15.108 -0.8872 -0.0747  0.5649
 9685TIP3   OH250469   1.486   1.888  14.639  0.2257  0.1083  0.7521
 9685TIP3    H150470   1.392   1.887  14.658  0.3020 -3.3675  1.6423
 9685TIP3    H250471   1.498   1.965  14.583 -3.1290  0.6583  0.5668
 9686TIP3   OH250472   4.753   5.744   4.140 -0.0445  0.1633  0.0736
 9686TIP3    H150473   4.693   5.676   4.171 -2.8941  3.6066  3.1837
 9686TIP3    H250474   4.836   5.725   4.183 -1.0724 -0.8530  1.7231
 9687TIP3   OH250475   1.087   5.633   3.113 -0.3427  0.0522 -0.2424
 9687TIP3    H150476   1.178   5.658   3.096 -0.2578 -0.6439 -0.8740
 9687TIP3    H250477   1.039   5.664   3.036 -0.3007 -1.3126 -0.8515
 9688TIP3   OH250478   2.702   0.678  15.221 -0.0522  0.7162  0.8063
 9688TIP3    H150479   2.727   0.602  15.273  0.8920  2.0631  2.4586
 9688TIP3    H250480   2.780   0.734  15.222 -0.4867  1.4108 -0.9504
 9689TIP3   OH250481   4.228   1.131   5.637  0.2431  0.0053  0.4144
 9689TIP3    H150482   4.167   1.092   5.574  2.2991  0.4157 -1.9773
 9689TIP3    H250483   4.261   1.210   5.594  0.9030  0.9476  2.5094
 9690TIP3   OH250484   1.427   5.546   1.690  0.1273  0.2121 -0.5107
 9690TIP3    H150485   1.453   5.465   1.647 -0.6749 -1.0506  1.2507
 9690TIP3    H250486   1.508   5.576   1.733  0.8550  1.3239 -2.5501
 9691TIP3   OH250487   0.602   2.813   1.266  0.0235  0.3777 -0.0849
 9691TIP3    H150488   0.615   2.874   1.339 -0.4814 -0.1066  0.4267
 9691TIP3    H250489   0.627   2.863   1.188 -0.2452  1.1890  0.3328
 9692TIP3   OH250490   1.161   5.792   0.500 -0.4985  1.2701  0.3083
 9692TIP3    H150491   1.162   5.698   0.484  0.7026  1.4469 -0.7640
 9692TIP3    H250492   1.086   5.824   0.448 -1.2490  0.8591  1.1093
 9693TIP3   OH250493   5.729   1.702  16.655  0.6254 -0.5643 -0.2420
 9693TIP3    H150494   5.767   1.762  16.719  0.5416 -0.9214  0.1481
 9693TIP3    H250495   5.770   1.618  16.675 -1.0023 -1.1715  0.7740
 9694TIP3   OH250496   1.179   3.202  13.453 -0.8956  0.1718  0.4687
 9694TIP3    H150497   1.206   3.115  13.422  0.3069  0.5588  0.4007
 9694TIP3    H250498   1.146   3.187  13.541  1.4491 -0.0457  1.3646
 9695TIP3   OH250499   4.112   1.597   4.397 -0.0411 -0.5551  0.4854
 9695TIP3    H150500   4.048   1.634   4.459  0.2473 -0.5559  0.7882
 9695TIP3    H250501   4.088   1.505   4.391 -0.4378 -0.4297  0.1368
 9696TIP3   OH250502   3.429   1.145   6.379 -0.2776 -1.0878 -0.6414
 9696TIP3    H150503   3.420   1.215   6.444  0.8325 -0.2831 -1.3252
 9696TIP3    H250504   3.361   1.082   6.402 -0.1470 -0.6505  1.0825
 9697TIP3   OH250505   3.627   3.758   1.347 -0.0450 -0.7273  0.0096
 9697TIP3    H150506   3.631   3.703   1.268  0.8424  0.0807 -0.5230
 9697TIP3    H250507   3.699   3.727   1.402  0.7727  0.2216 -0.5125
 9698TIP3   OH250508   6.142   5.888  14.697 -0.6829 -0.0975  0.6542
 9698TIP3    H150509   6.225   5.911  14.739 -0.6279  0.5435  0.2033
 9698TIP3    H250510   6.093   5.970  14.693 -0.7608 -0.1822 -0.3623
 9699TIP3   OH250511   6.203   6.200  15.723  0.2159 -0.1283 -0.2659
 9699TIP3    H150512   6.192   6.110  15.692 -1.1150  0.3040 -1.1231
 9699TIP3    H250513   6.114   6.235  15.728  0.7436  1.3083 -0.4547
 9700TIP3   OH250514   1.559   0.934   6.612  0.2655 -0.1696  0.4530
 9700TIP3    H150515   1.565   1.011   6.668  0.7583  0.2777 -0.2034
 9700TIP3    H250516   1.480   0.948   6.560  0.3177 -0.1394  0.3817
 9701TIP3   OH250517   2.099   1.724   0.962 -0.1505 -0.6265  0.2919
 9701TIP3    H150518   2.024   1.707   0.906  0.1931 -2.2994  0.2923
 9701TIP3    H250519   2.129   1.638   0.990 -0.1144  0.1227  2.8260
 9702TIP3   OH250520   2.236   5.546   0.697 -0.1777 -0.4337  1.2067
 9702TIP3    H150521   2.178   5.548   0.774  0.8496 -0.7425  2.0098
 9702TIP3    H250522   2.259   5.454   0.687 -0.3283 -0.4017  0.4892
 9703TIP3   OH250523   4.031   2.855  11.356  0.2410  0.2692  0.1689
 9703TIP3    H150524   3.966   2.796  11.319 -0.6551  1.8356 -0.8447
 9703TIP3    H250525   4.111   2.835  11.307  0.6893 -1.8700  1.6261
 9704TIP3   OH250526   3.899   1.033  11.351 -0.2295 -0.0619 -0.4040
 9704TIP3    H150527   3.976   1.089  11.357  0.3764 -0.8427 -0.7844
 9704TIP3    H250528   3.926   0.950  11.390 -0.3951 -0.8445 -1.8986
 9705TIP3   OH250529   3.786   3.962  12.265  0.5834  1.0518 -0.6385
 9705TIP3    H150530   3.860   3.988  12.320 -0.4024 -0.1533  1.4246
 9705TIP3    H250531   3.716   4.022  12.290 -0.4304 -0.6585  0.9705
 9706TIP3   OH250532   5.011   5.698  10.700  0.2710  0.0693 -0.3962
 9706TIP3    H150533   5.105   5.678  10.702  0.3122  0.1288 -1.2981
 9706TIP3    H250534   5.008   5.793  10.685  0.0675  0.0118 -0.7231
 9707TIP3   OH250535   2.522   3.032   1.593  0.0750 -0.2594  0.1933
 9707TIP3    H150536   2.611   3.016   1.625  0.1961  0.0508  0.0194
 9707TIP3    H250537   2.521   2.996   1.504 -0.0263 -0.4187  0.2583
 9708TIP3   OH250538   2.628   6.393   1.457 -0.1322 -0.3183 -0.4087
 9708TIP3    H150539   2.557   6.382   1.520  0.4079 -0.2752  0.2062
 9708TIP3    H250540   2.662   6.305   1.444  0.4627 -0.1832  0.1876
 9709TIP3   OH250541   4.066   2.510   3.774  0.5274 -0.7103 -0.6614
 9709TIP3    H150542   4.088   2.536   3.685 -1.3545  1.5596 -0.5674
 9709TIP3    H250543   4.101   2.579   3.830 -1.3970 -0.1665 -0.0296
 9710TIP3   OH250544   1.934   4.837  15.658  0.4446 -0.0066 -0.0641
 9710TIP3    H150545   2.006   4.795  15.612  1.1987  3.4217 -2.3950
 9710TIP3    H250546   1.972   4.871  15.738  0.7993 -0.3147 -0.1016
 9711TIP3   OH250547   1.624   3.309   3.850 -0.0104 -0.4614  0.1985
 9711TIP3    H150548   1.569   3.310   3.929 -0.4593 -1.0440 -0.0974
 9711TIP3    H250549   1.568   3.342   3.781 -0.8499 -3.3631 -0.6214
 9712TIP3   OH250550   3.325   5.778  15.208  0.1262 -0.2013 -0.0960
 9712TIP3    H150551   3.279   5.697  15.188  0.8165 -0.0016 -2.8360
 9712TIP3    H250552   3.417   5.756  15.198  0.3618  0.7405 -0.0636
 9713TIP3   OH250553   3.089   1.971  17.050  0.2144  0.1594 -0.3929
 9713TIP3    H150554   3.097   2.064  17.068 -1.4093  0.4966 -1.1729
 9713TIP3    H250555   3.169   1.932  17.084  1.2614  1.9334 -0.7338
 9714TIP3   OH250556   1.317   0.689   0.367 -0.0755  0.1270  0.2779
 9714TIP3    H150557   1.307   0.775   0.409 -0.9481 -0.1098  0.5723
 9714TIP3    H250558   1.269   0.696   0.285 -1.3308 -0.4978  0.9324
 9715TIP3   OH250559   1.749   2.685  13.463  0.2943  0.4729 -0.4294
 9715TIP3    H150560   1.737   2.774  13.496  1.3067  1.8443 -3.3912
 9715TIP3    H250561   1.827   2.654  13.508  1.6410  2.2476 -1.3975
 9716TIP3   OH250562   1.443   5.135  12.210  0.2886  0.4676  0.4149
 9716TIP3    H150563   1.370   5.196  12.222  0.5862  0.9405 -0.1039
 9716TIP3    H250564   1.515   5.174  12.260  0.3883  0.3762  0.3431
 9717TIP3   OH250565   6.337   6.513  16.688 -0.5622 -0.1812  0.1569
 9717TIP3    H150566   6.251   6.528  16.648 -0.2767  1.5127  0.1279
 9717TIP3    H250567   6.395   6.573  16.643  0.5990 -1.0913  0.4024
 9718TIP3   OH250568   4.383   2.263   1.009  0.2248  0.6504 -0.0499
 9718TIP3    H150569   4.351   2.185   1.053 -1.6394  1.9732  1.1085
 9718TIP3    H250570   4.311   2.325   1.014  1.4447  2.2966 -1.3781
 9719TIP3   OH250571   4.486   3.134  11.660 -0.5883 -0.1725  0.2789
 9719TIP3    H150572   4.459   3.099  11.745 -2.5561  2.3017  0.7909
 9719TIP3    H250573   4.420   3.103  11.599 -1.6260  1.4323  0.5117
 9720TIP3   OH250574   1.239   1.009  15.605  0.3354  0.1974 -0.6964
 9720TIP3    H150575   1.275   1.098  15.601 -1.5991  0.9796 -2.0756
 9720TIP3    H250576   1.307   0.958  15.651  1.6314  2.2876 -0.1345
 9721TIP3   OH250577   4.773   5.209  12.872  0.1034 -0.2114  0.3262
 9721TIP3    H150578   4.753   5.302  12.882 -0.0252 -0.2761  0.6928
 9721TIP3    H250579   4.719   5.166  12.939 -0.8485 -0.6726 -0.7069
 9722TIP3   OH250580   4.574   4.704  15.169  0.4230  0.1404 -0.1924
 9722TIP3    H150581   4.486   4.670  15.185  1.3605 -1.8955  1.1004
 9722TIP3    H250582   4.620   4.630  15.127  1.2192  1.5672 -1.9877
 9723TIP3   OH250583   3.419   0.914  15.398  0.1239  0.3321 -0.0862
 9723TIP3    H150584   3.340   0.897  15.449  1.0722  1.0016  1.6815
 9723TIP3    H250585   3.436   0.832  15.352 -0.1817 -0.6538  1.4942
 9724TIP3   OH250586   3.672   5.587  12.648  0.7670 -0.8240 -0.2276
 9724TIP3    H150587   3.693   5.592  12.555  1.5662 -1.3962 -0.0902
 9724TIP3    H250588   3.744   5.633  12.692  0.4559 -0.6587  0.1209
 9725TIP3   OH250589   4.944   0.840   4.099  0.1572  0.5268 -0.0422
 9725TIP3    H150590   5.036   0.833   4.125  0.0536 -1.3549 -0.0993
 9725TIP3    H250591   4.947   0.862   4.006  0.5551 -0.5175 -0.2829
 9726TIP3   OH250592   2.301   2.921  13.890 -0.1379 -0.0376  0.3704
 9726TIP3    H150593   2.265   2.914  13.802  1.8902  1.9388 -0.7402
 9726TIP3    H250594   2.248   2.989  13.933 -0.6189 -0.4380  0.4240
 9727TIP3   OH250595   4.474   6.009   2.394 -0.0820  0.3858 -0.1331
 9727TIP3    H150596   4.467   5.929   2.341  0.0685  0.3439 -0.0902
 9727TIP3    H250597   4.475   6.080   2.330  1.4681  0.2652 -0.2694
 9728TIP3   OH250598   2.730   0.591  14.491 -0.1754  0.0943  0.6311
 9728TIP3    H150599   2.771   0.600  14.576  0.4004 -0.6023  0.4421
 9728TIP3    H250600   2.801   0.565  14.433 -1.0714 -2.4384  0.5541
 9729TIP3   OH250601   5.101   4.219   2.070  0.2958  0.4224  0.3977
 9729TIP3    H150602   5.076   4.295   2.018 -1.3610 -0.2700  0.0924
 9729TIP3    H250603   5.129   4.154   2.005  0.3804  0.3095  0.5461
 9730TIP3   OH250604   1.099   4.849  13.763  0.6642 -0.0838  0.3311
 9730TIP3    H150605   1.038   4.798  13.817  1.6944  0.6496  2.2985
 9730TIP3    H250606   1.043   4.888  13.695 -1.0061  0.2046  1.7954
 9731TIP3   OH250607   0.900   2.126   3.780 -0.7352 -0.0020 -0.7953
 9731TIP3    H150608   0.900   2.070   3.858 -1.3155  1.4310  0.2599
 9731TIP3    H250609   0.836   2.194   3.798  0.4995  1.4782 -1.6990
 9732TIP3   OH250610   1.238   2.818  15.642  0.6240  0.2153  0.4070
 9732TIP3    H150611   1.145   2.822  15.666  1.1964  0.3996  2.8281
 9732TIP3    H250612   1.281   2.876  15.705  2.5926 -1.2742  0.4980
 9733TIP3   OH250613   0.319   4.282  11.249  0.4957  0.1623 -0.3399
 9733TIP3    H150614   0.398   4.231  11.272  0.3923  1.0167  2.2815
 9733TIP3    H250615   0.337   4.316  11.161  2.4360 -0.8142 -0.3769
 9734TIP3   OH250616   6.336   1.981   5.331 -0.3701 -0.1652 -0.4188
 9734TIP3    H150617   6.244   1.968   5.311 -0.2295 -1.0907 -0.5005
 9734TIP3    H250618   6.337   2.058   5.389 -1.2640 -0.5679  0.1592
 9735TIP3   OH250619   1.493   4.954  14.139 -0.1709 -0.3065  0.4446
 9735TIP3    H150620   1.468   5.041  14.171 -0.1201 -0.3556  0.6130
 9735TIP3    H250621   1.428   4.935  14.071  0.4269  0.3103 -0.3254
 9736TIP3   OH250622   1.143   3.270   3.282 -0.4498  0.1843  0.1925
 9736TIP3    H150623   1.068   3.266   3.342  1.3056 -0.1709  2.5078
 9736TIP3    H250624   1.153   3.181   3.249 -0.8761  0.1714  0.0985
 9737TIP3   OH250625   3.641   1.409  16.206  0.2564  0.0732 -0.1475
 9737TIP3    H150626   3.595   1.479  16.253  0.3666  0.1873 -0.2091
 9737TIP3    H250627   3.590   1.330  16.225  0.0736  0.1879 -0.1603
 9738TIP3   OH250628   6.249   4.279   0.748 -0.1997  0.2896 -0.2055
 9738TIP3    H150629   6.211   4.194   0.724  0.6454 -0.1168 -0.1522
 9738TIP3    H250630   6.243   4.282   0.844 -2.3124  1.3101 -0.3074
 9739TIP3   OH250631   6.623   1.586  14.844 -0.0277  0.2437 -0.1140
 9739TIP3    H150632   6.529   1.602  14.851  0.0355 -0.0217  1.8694
 9739TIP3    H250633   6.659   1.665  14.805 -0.9105  0.9050  0.3933
 9740TIP3   OH250634   2.827   4.164  17.175 -0.3069  0.2301 -0.1195
 9740TIP3    H150635   2.751   4.219  17.195  0.5947  1.4053  0.1587
 9740TIP3    H250636   2.844   4.181  17.082  2.0164  3.1476  0.6930
 9741TIP3   OH250637   5.856   2.005   3.242  0.2614 -0.2862 -0.3605
 9741TIP3    H150638   5.933   1.951   3.261  0.2128 -0.0726  0.4825
 9741TIP3    H250639   5.892   2.091   3.219  0.2824 -0.1371  0.2018
 9742TIP3   OH250640   0.303   4.416   1.488  0.5598  0.0349 -0.4305
 9742TIP3    H150641   0.244   4.485   1.457  0.7957  0.3823 -0.1072
 9742TIP3    H250642   0.390   4.455   1.482  0.6299  0.0343  0.4732
 9743TIP3   OH250643   3.172   3.490   6.094 -0.2908  0.2627  0.9743
 9743TIP3    H150644   3.266   3.498   6.111 -0.3864 -0.0054  1.6506
 9743TIP3    H250645   3.166   3.486   5.998  0.5681 -1.6232  0.9540
 9744TIP3   OH250646   5.138   4.842  15.439 -0.0726  0.1287  0.0253
 9744TIP3    H150647   5.134   4.747  15.431  0.3160  0.0376  0.7967
 9744TIP3    H250648   5.228   4.864  15.413  0.5863  0.0261  2.0567
 9745TIP3   OH250649   1.777   0.346   5.940 -0.4951  0.0534 -0.3250
 9745TIP3    H150650   1.707   0.290   5.904 -0.5720 -0.7756  1.0460
 9745TIP3    H250651   1.854   0.290   5.942 -0.2575  0.3854 -0.1000
 9746TIP3   OH250652   3.388   5.514  14.819  0.4754  0.2083 -0.2455
 9746TIP3    H150653   3.441   5.488  14.895  0.4126  0.8201  0.0182
 9746TIP3    H250654   3.433   5.475  14.744  1.1263  0.4443  0.0104
 9747TIP3   OH250655   5.976   3.349  13.863 -0.4200  0.1338 -0.1346
 9747TIP3    H150656   6.058   3.301  13.849 -0.2127  0.1692  0.8877
 9747TIP3    H250657   5.995   3.438  13.833 -0.2329  0.0269 -0.3352
 9748TIP3   OH250658   2.214   1.554  15.214  1.2216 -0.0220  0.6394
 9748TIP3    H150659   2.267   1.621  15.172 -0.7850  2.0923  1.2475
 9748TIP3    H250660   2.224   1.477  15.159  0.9100  1.8013 -2.1588
 9749TIP3   OH250661   1.267   4.581   4.053 -0.5369 -0.1224  0.3282
 9749TIP3    H150662   1.313   4.511   4.098  1.6712  2.0225  1.6398
 9749TIP3    H250663   1.249   4.546   3.965  3.8846 -1.0935 -0.4049
 9750TIP3   OH250664   4.019   2.902  13.505 -0.4974 -0.4888 -0.3687
 9750TIP3    H150665   4.084   2.832  13.512 -2.7765 -2.6445  0.6642
 9750TIP3    H250666   4.005   2.913  13.411  0.7452 -0.5432 -0.5719
 9751TIP3   OH250667   2.729   3.421  16.051  0.0066 -0.8553 -0.9319
 9751TIP3    H150668   2.814   3.384  16.029  0.0971 -1.1908 -0.0565
 9751TIP3    H250669   2.748   3.512  16.072  0.6455 -1.5738  2.0263
 9752TIP3   OH250670   6.595   2.102   3.685  0.3929  0.1359 -0.4903
 9752TIP3    H150671   6.550   2.028   3.727  1.3481 -0.0482  0.2537
 9752TIP3    H250672   6.537   2.127   3.613 -1.8239  1.0530  1.4412
 9753TIP3   OH250673   0.179   1.887   1.287 -0.0508  0.3023  0.8146
 9753TIP3    H150674   0.272   1.889   1.263 -0.5033  1.9095 -1.0563
 9753TIP3    H250675   0.153   1.795   1.277  1.6564 -0.5071  2.9718
 9754TIP3   OH250676   5.407   4.106   1.228 -0.5335  0.1652  0.1883
 9754TIP3    H150677   5.447   4.021   1.209  0.6672  0.5752  0.7694
 9754TIP3    H250678   5.481   4.163   1.252 -0.9797  2.0487 -2.4348
 9755TIP3   OH250679   0.595   5.610  12.159 -0.7993 -0.0888 -0.2163
 9755TIP3    H150680   0.525   5.673  12.142 -0.9958 -0.6283 -1.5846
 9755TIP3    H250681   0.658   5.657  12.212 -1.8871  0.6208  0.4799
 9756TIP3   OH250682   4.228   1.802   1.129 -0.0340 -0.1776  0.0710
 9756TIP3    H150683   4.182   1.747   1.193  0.3364  0.3934  0.8378
 9756TIP3    H250684   4.283   1.860   1.181  1.3042 -0.6036 -0.8179
 9757TIP3   OH250685   6.102   4.624  13.347 -0.2159  0.0950 -0.0206
 9757TIP3    H150686   6.071   4.610  13.436  0.5655 -0.4968  0.1639
 9757TIP3    H250687   6.198   4.622  13.354 -0.1452  0.2649 -0.8353
 9758TIP3   OH250688   3.180   1.746   1.624  0.5302 -0.3773 -0.0118
 9758TIP3    H150689   3.136   1.666   1.593  0.2915 -1.3825  2.5903
 9758TIP3    H250690   3.263   1.715   1.659  0.1103  0.3255  1.7363
 9759TIP3   OH250691   1.620   0.189   0.917  0.0583  0.3241  0.4193
 9759TIP3    H150692   1.619   0.141   1.000  0.7204  0.0808  0.2949
 9759TIP3    H250693   1.595   0.278   0.941  1.7525  0.6431  1.1561
 9760TIP3   OH250694   6.508   5.113   3.259  0.5747 -0.5438 -1.4718
 9760TIP3    H150695   6.443   5.064   3.208  0.6592 -0.8608 -1.2774
 9760TIP3    H250696   6.497   5.082   3.348  0.2687  0.1868 -1.2517
 9761TIP3   OH250697   4.510   1.158   2.312 -0.1340 -0.1290  0.2786
 9761TIP3    H150698   4.491   1.065   2.320  0.9346 -0.2093  2.3021
 9761TIP3    H250699   4.583   1.174   2.371 -0.7983  2.1460  0.5900
 9762TIP3   OH250700   5.509   3.898   4.828 -0.1558 -0.4854 -0.1413
 9762TIP3    H150701   5.586   3.953   4.813  0.3085 -0.6073  1.6335
 9762TIP3    H250702   5.543   3.809   4.832 -0.0040 -0.3952  2.6370
 9763TIP3   OH250703   1.909   3.241  17.025 -0.5348  0.9986 -0.3176
 9763TIP3    H150704   1.863   3.159  17.012  0.5419  0.1335  1.0518
 9763TIP3    H250705   1.994   3.229  16.983 -0.0128  1.0383  0.6906
 9764TIP3   OH250706   4.217   1.782   4.913 -0.0157  0.7048 -0.0325
 9764TIP3    H150707   4.255   1.816   4.994 -1.0378  2.0557 -0.0726
 9764TIP3    H250708   4.199   1.860   4.861 -0.2594 -0.0820 -1.1644
 9765TIP3   OH250709   6.185   5.388   0.754 -0.0861 -0.1030 -0.0515
 9765TIP3    H150710   6.197   5.403   0.660  0.9921 -1.4659 -0.1644
 9765TIP3    H250711   6.268   5.415   0.793 -0.6813  0.8580  0.5838
 9766TIP3   OH250712   1.990   1.197  14.966 -0.5105  0.3182  0.1022
 9766TIP3    H150713   1.962   1.145  15.041  2.6687  0.1061  1.2989
 9766TIP3    H250714   2.005   1.134  14.896  0.1474  0.0279  0.5013
 9767TIP3   OH250715   0.085   3.763  12.140 -0.1339  0.7103  0.0143
 9767TIP3    H150716   0.128   3.679  12.157  0.0342  1.1053  1.6890
 9767TIP3    H250717   0.146   3.808  12.081  0.0589 -0.0919 -0.4258
 9768TIP3   OH250718   2.496   4.249  11.274 -0.2006 -0.6676  0.0872
 9768TIP3    H150719   2.452   4.297  11.343 -1.9287 -2.4751  0.3480
 9768TIP3    H250720   2.433   4.246  11.202 -0.1903 -2.5259  0.1004
 9769TIP3   OH250721   3.309   5.582   1.215 -0.6689 -0.4035  0.1219
 9769TIP3    H150722   3.382   5.599   1.156 -1.4573  3.2178 -0.0397
 9769TIP3    H250723   3.350   5.551   1.296  0.8432 -0.4363 -0.6320
 9770TIP3   OH250724   3.383   6.056  13.109 -0.0477 -0.1625 -0.5111
 9770TIP3    H150725   3.313   6.097  13.161 -1.3980 -1.9331 -0.8475
 9770TIP3    H250726   3.437   6.010  13.173  1.4369  1.9273 -0.1395
 9771TIP3   OH250727   3.173   1.329   4.334 -0.2145  0.2864 -0.1107
 9771TIP3    H150728   3.169   1.295   4.423  0.7872  0.5001  0.0344
 9771TIP3    H250729   3.244   1.279   4.293 -0.2030  0.6733 -0.5723
 9772TIP3   OH250730   5.093   6.415   5.797  0.4768  0.9110  0.1605
 9772TIP3    H150731   5.181   6.447   5.818  2.5339 -3.2365 -1.1835
 9772TIP3    H250732   5.064   6.372   5.878  0.1228  1.3662  0.2779
 9773TIP3   OH250733   5.851   5.223   4.226  0.1885 -0.3344 -0.1017
 9773TIP3    H150734   5.845   5.221   4.322 -1.2320 -0.5391 -0.1634
 9773TIP3    H250735   5.940   5.194   4.207  1.7650  3.0255  1.2384
 9774TIP3   OH250736   4.597   1.346  12.364 -0.2964 -0.0952 -0.0964
 9774TIP3    H150737   4.681   1.301  12.352 -0.0677  0.7073 -1.9602
 9774TIP3    H250738   4.619   1.424  12.415  0.0883  0.0413 -0.4593
 9775TIP3   OH250739   0.208   4.334  13.653  0.2089 -0.1205  0.0816
 9775TIP3    H150740   0.245   4.338  13.565  0.4656 -1.2018  0.1197
 9775TIP3    H250741   0.276   4.291  13.705  0.2374  0.8956  0.9132
 9776TIP3   OH250742   2.073   4.052  11.723  0.4020  0.2493 -0.1649
 9776TIP3    H150743   1.992   4.066  11.673  0.7493  0.8840 -0.5545
 9776TIP3    H250744   2.143   4.058  11.658  0.7094 -1.4364 -0.0306
 9777TIP3   OH250745   3.254   4.621   2.911 -0.0621 -0.0144  0.1199
 9777TIP3    H150746   3.217   4.535   2.892  0.3976 -0.4647  1.1682
 9777TIP3    H250747   3.179   4.681   2.904 -0.6729 -0.6861  0.6511
 9778TIP3   OH250748   4.778   0.287  12.830  0.1497 -0.4708  0.2943
 9778TIP3    H150749   4.718   0.362  12.821 -1.4908 -1.6844  0.6342
 9778TIP3    H250750   4.842   0.316  12.895  0.4385  1.1527 -0.6566
 9779TIP3   OH250751   3.211   6.323   3.604  0.2974  0.6954 -0.3420
 9779TIP3    H150752   3.118   6.322   3.584 -0.0865  0.0908  1.2996
 9779TIP3    H250753   3.221   6.392   3.670  0.6883 -0.4559  0.8307
 9780TIP3   OH250754   1.618   2.102   2.580  0.0382  0.4558 -0.0722
 9780TIP3    H150755   1.564   2.123   2.504  1.8888  2.1903 -0.9917
 9780TIP3    H250756   1.605   2.008   2.593 -0.9238  0.2617 -2.0597
 9781TIP3   OH250757   3.338   5.807  14.790  0.0370  0.0795  0.0101
 9781TIP3    H150758   3.279   5.822  14.716 -1.0710 -1.6343  0.4750
 9781TIP3    H250759   3.406   5.750  14.754 -0.2427 -0.3674  0.1778
 9782TIP3   OH250760   3.211   3.296  16.290  0.3746 -0.1890 -0.2428
 9782TIP3    H150761   3.191   3.322  16.199 -1.8221 -1.2405 -0.1300
 9782TIP3    H250762   3.289   3.241  16.283  0.9663  0.7414 -1.3177
 9783TIP3   OH250763   3.971   0.127   5.355 -0.0177  0.0548  0.3073
 9783TIP3    H150764   4.013   0.104   5.272 -0.3099  0.0079  0.1734
 9783TIP3    H250765   4.044   0.140   5.416  0.1474 -2.7553  0.8214
 9784TIP3   OH250766   0.513   2.783   4.474 -0.0397 -0.1424  0.0232
 9784TIP3    H150767   0.472   2.758   4.391  0.3897  0.3406 -0.3396
 9784TIP3    H250768   0.444   2.772   4.539 -0.6723  0.3967 -0.5401
 9785TIP3   OH250769   1.178   3.518  12.859  0.5291 -0.1571  0.6486
 9785TIP3    H150770   1.192   3.575  12.935  0.0068 -1.4624  1.7635
 9785TIP3    H250771   1.176   3.578  12.784  0.1111  1.2717  1.7571
 9786TIP3   OH250772   4.793   4.256   3.302 -0.1882  0.1820 -0.0059
 9786TIP3    H150773   4.856   4.185   3.295  0.7603  1.0547 -0.7532
 9786TIP3    H250774   4.716   4.216   3.341  1.3150 -0.6031  2.4075
 9787TIP3   OH250775   4.181   3.825  13.693  0.0676 -0.6118 -0.9113
 9787TIP3    H150776   4.157   3.826  13.785  0.6462 -1.5489 -0.7457
 9787TIP3    H250777   4.181   3.733  13.668  1.1634 -0.4735 -1.5142
 9788TIP3   OH250778   5.450   5.592   2.984  0.1088  0.6078  0.2022
 9788TIP3    H150779   5.417   5.523   3.041  1.1234  0.1561  0.2720
 9788TIP3    H250780   5.504   5.545   2.920 -1.3905  1.0389 -1.4567
 9789TIP3   OH250781   6.685   3.240  17.289 -0.1088  0.9972  0.0116
 9789TIP3    H150782   6.630   3.247  17.366 -1.6173  1.0672 -1.0252
 9789TIP3    H250783   6.775   3.248  17.322 -0.7745  3.2213  1.5003
 9790TIP3   OH250784   3.043   1.662  17.048  0.9101 -0.2690  0.2689
 9790TIP3    H150785   2.953   1.671  17.018  1.3003  1.1215 -0.6114
 9790TIP3    H250786   3.044   1.705  17.134  0.6260 -0.7829  0.5330
 9791TIP3   OH250787   5.617   0.458   3.399  0.7687 -0.1575  0.7995
 9791TIP3    H150788   5.590   0.508   3.476  2.6912  0.0089  1.4276
 9791TIP3    H250789   5.650   0.376   3.433 -0.6128 -1.1202 -0.0856
 9792TIP3   OH250790   5.575   4.856   2.144  0.8648  0.6240  0.2417
 9792TIP3    H150791   5.645   4.797   2.172 -0.2493 -1.0516 -0.4064
 9792TIP3    H250792   5.594   4.874   2.052  1.2333  1.3532  0.4520
 9793TIP3   OH250793   0.870   1.722  17.212 -0.1119 -0.4204  0.0344
 9793TIP3    H150794   0.917   1.799  17.244 -0.7286  1.0138 -2.3013
 9793TIP3    H250795   0.827   1.687  17.290  2.1480  0.0862  1.6323
 9794TIP3   OH250796   3.054   4.458   2.347 -0.3143  0.1232  0.2633
 9794TIP3    H150797   3.021   4.530   2.401 -2.0998  1.3639 -2.2578
 9794TIP3    H250798   3.033   4.485   2.257  2.4647 -1.8157 -1.0901
 9795TIP3   OH250799   6.289   3.892  16.062  0.2148 -0.3329 -0.2369
 9795TIP3    H150800   6.214   3.947  16.037 -0.7502 -1.3112  0.3930
 9795TIP3    H250801   6.365   3.950  16.054 -0.8276  1.2940  1.0393
 9796TIP3   OH250802   5.059   1.796   2.348 -0.0478 -0.3931  0.1140
 9796TIP3    H150803   4.997   1.795   2.276 -0.5539  0.5882  0.5234
 9796TIP3    H250804   5.099   1.883   2.344 -0.0237 -0.3580  0.9638
 9797TIP3   OH250805   3.854   3.945   3.689 -0.8221  0.4289 -0.0004
 9797TIP3    H150806   3.849   4.023   3.744  0.9311  0.9657 -0.5269
 9797TIP3    H250807   3.915   3.969   3.620 -0.8863 -1.1482 -0.6309
 9798TIP3   OH250808   4.526   4.794   1.013 -0.0266 -0.1987  0.2302
 9798TIP3    H150809   4.566   4.763   1.095 -0.9644 -2.1261  0.0284
 9798TIP3    H250810   4.575   4.749   0.944  1.3076  2.0574 -0.3719
 9799TIP3   OH250811   6.572   0.171  16.869 -0.0733  0.1437 -0.2059
 9799TIP3    H150812   6.476   0.170  16.866 -0.1467  1.5463  0.8364
 9799TIP3    H250813   6.596   0.262  16.856  1.0231  0.1168  1.3556
 9800TIP3   OH250814   5.177   1.251   0.982  1.0396 -0.7874 -0.4590
 9800TIP3    H150815   5.183   1.186   0.913  1.7855 -0.7939 -0.3960
 9800TIP3    H250816   5.209   1.332   0.942  1.4263 -0.7793 -0.1445
 9801TIP3   OH250817   1.044   5.722   5.237 -0.0073  0.0015 -0.3100
 9801TIP3    H150818   0.974   5.712   5.173  2.2044 -1.4700 -2.6776
 9801TIP3    H250819   1.099   5.645   5.225  1.6801  0.7492  1.9272
 9802TIP3   OH250820   4.285   3.988   4.426  0.4730  1.0605  0.1726
 9802TIP3    H150821   4.297   3.929   4.500  1.4507 -0.0364 -0.8260
 9802TIP3    H250822   4.192   4.011   4.429 -0.2540 -1.5293 -0.1147
 9803TIP3   OH250823   3.187   2.513  17.248  0.1663 -0.1021 -0.1858
 9803TIP3    H150824   3.116   2.499  17.311 -0.3205 -0.8615 -0.8839
 9803TIP3    H250825   3.267   2.496  17.298 -0.2204 -0.9228  0.1615
 9804TIP3   OH250826   4.261   3.990  11.603  0.2884  0.6036  0.2562
 9804TIP3    H150827   4.174   4.029  11.610  1.0136  2.2908  0.3509
 9804TIP3    H250828   4.271   3.971  11.510  0.2909  1.5720  0.0506
 9805TIP3   OH250829   4.402   2.410   4.111 -0.0323 -0.0629 -0.1881
 9805TIP3    H150830   4.469   2.478   4.113  0.2146 -0.2068 -1.9180
 9805TIP3    H250831   4.452   2.328   4.103 -0.3969 -0.2338 -0.7165
 9806TIP3   OH250832   5.240   4.419  13.888  0.6810 -0.6408 -0.2107
 9806TIP3    H150833   5.319   4.450  13.931  1.8856 -0.6541 -2.2618
 9806TIP3    H250834   5.252   4.443  13.796 -1.3332 -1.3708 -0.7167
 9807TIP3   OH250835   4.383   3.284  11.367 -0.8818  0.0135  0.5045
 9807TIP3    H150836   4.323   3.325  11.429  0.1596  1.9948  0.2753
 9807TIP3    H250837   4.326   3.238  11.305 -2.0561  0.3128  1.3367
 9808TIP3   OH250838   4.044   0.204  12.067 -0.6286 -0.3433  0.6553
 9808TIP3    H150839   4.050   0.162  12.153 -2.3672  0.3267  1.1564
 9808TIP3    H250840   4.089   0.144  12.008  0.2655 -1.0095  1.9667
 9809TIP3   OH250841   2.216   1.268  13.248 -0.0740  0.1832  0.2073
 9809TIP3    H150842   2.180   1.232  13.329 -2.6425 -0.8985 -1.2942
 9809TIP3    H250843   2.246   1.191  13.199 -0.7073  0.5643 -0.8099
 9810TIP3   OH250844   3.017   4.207   6.562 -0.0387 -0.0223  0.4945
 9810TIP3    H150845   3.003   4.118   6.530 -0.5721  1.0089 -2.4526
 9810TIP3    H250846   2.930   4.237   6.590 -0.4868  0.4993 -1.3163
 9811TIP3   OH250847   5.212   1.084  16.920 -0.3329  0.3022  0.4261
 9811TIP3    H150848   5.262   1.159  16.951  0.3118 -0.0766  0.3076
 9811TIP3    H250849   5.184   1.040  17.000 -0.3631  0.4377  0.4912
 9812TIP3   OH250850   5.201   3.995  11.265 -0.0922 -0.1780  0.3327
 9812TIP3    H150851   5.195   3.946  11.347  0.7068 -0.8159  0.0232
 9812TIP3    H250852   5.213   3.928  11.198  0.2212  0.3960 -0.1908
 9813TIP3   OH250853   5.990   0.426   3.297  0.3692  0.6028 -0.2040
 9813TIP3    H150854   6.064   0.430   3.236  1.0782 -2.3349  0.3091
 9813TIP3    H250855   6.031   0.420   3.383 -0.3989 -1.1372  0.0759
 9814TIP3   OH250856   1.238   6.298   1.245  0.2328  0.0877  0.0711
 9814TIP3    H150857   1.209   6.328   1.159 -0.3084  1.8656  0.8280
 9814TIP3    H250858   1.199   6.211   1.254 -0.7435  0.3844 -0.9776
 9815TIP3   OH250859   1.961   4.760   3.726  0.3105  0.0088  0.5247
 9815TIP3    H150860   1.989   4.767   3.817 -3.3405  3.4932  1.6835
 9815TIP3    H250861   2.000   4.836   3.683 -1.0421  0.5649  0.2347
 9816TIP3   OH250862   6.582   0.460  12.778  0.3847  0.8495 -0.4109
 9816TIP3    H150863   6.615   0.408  12.705 -1.1191  2.1317 -2.0945
 9816TIP3    H250864   6.650   0.525  12.794  1.1262  0.0003 -0.0323
 9817TIP3   OH250865   1.079   2.702  13.668  0.2251  0.8754 -0.4286
 9817TIP3    H150866   1.093   2.794  13.689  0.6755  1.3871 -2.6891
 9817TIP3    H250867   0.985   2.693  13.656  0.2430  1.2184 -0.8529
 9818TIP3   OH250868   3.769   6.511  15.728 -0.5160  0.0295  0.4255
 9818TIP3    H150869   3.863   6.518  15.745 -0.4245 -1.0769  0.4784
 9818TIP3    H250870   3.737   6.450  15.795 -0.9054 -1.1531 -0.7878
 9819TIP3   OH250871   1.999   1.040  15.728 -0.2322 -1.2027  0.1319
 9819TIP3    H150872   1.974   0.965  15.782  0.9486 -0.3062  2.0540
 9819TIP3    H250873   1.989   1.116  15.786 -0.8397  0.0888 -1.5760
 9820TIP3   OH250874   0.072   6.320   4.323 -0.3351 -0.1162 -0.2578
 9820TIP3    H150875   0.025   6.385   4.376  0.0391 -0.4385  0.4865
 9820TIP3    H250876   0.125   6.373   4.262  0.0358  0.2867  0.3989
 9821TIP3   OH250877   2.522   0.857  15.881 -0.3251  0.2688  0.2442
 9821TIP3    H150878   2.521   0.941  15.926  0.8867  1.0802 -1.1824
 9821TIP3    H250879   2.450   0.861  15.819 -0.2555  0.2429  0.1621
 9822TIP3   OH250880   0.260   2.797   1.401  0.0632  0.2604 -0.5688
 9822TIP3    H150881   0.345   2.763   1.372 -0.1552 -1.5955  0.7480
 9822TIP3    H250882   0.216   2.823   1.320  1.4963  0.2965 -1.3680
 9823TIP3   OH250883   2.492   2.741   0.394  0.3799 -1.1110 -0.3008
 9823TIP3    H150884   2.565   2.688   0.426 -0.1986 -1.7392 -0.0000
 9823TIP3    H250885   2.420   2.721   0.453  0.7924  1.9316  1.4670
 9824TIP3   OH250886   1.782   2.399  11.503  0.5333 -0.1208 -0.4885
 9824TIP3    H150887   1.815   2.443  11.425  1.4695  0.2373  0.0956
 9824TIP3    H250888   1.687   2.406  11.495  0.6266  0.5233 -1.2521
 9825TIP3   OH250889   0.448   2.046   2.633  0.7391 -0.2949 -0.2848
 9825TIP3    H150890   0.441   1.955   2.663 -0.0713 -0.3999 -0.7530
 9825TIP3    H250891   0.533   2.051   2.590  0.2391 -1.1904 -1.4098
 9826TIP3   OH250892   0.656   2.993  14.041  0.2790 -0.8614  0.6561
 9826TIP3    H150893   0.612   3.001  14.125 -1.6031 -1.4449 -0.2142
 9826TIP3    H250894   0.719   2.922  14.053 -0.2919 -1.2439  1.4251
 9827TIP3   OH250895   5.589   5.408   2.825  0.3849 -0.1137  0.5502
 9827TIP3    H150896   5.512   5.392   2.770  1.7991  0.0936 -1.6121
 9827TIP3    H250897   5.624   5.321   2.843  0.4295 -0.1330  0.3653
 9828TIP3   OH250898   5.646   5.285  11.569 -0.2192 -0.4342  0.2308
 9828TIP3    H150899   5.721   5.321  11.616 -0.8474  0.8344  0.3108
 9828TIP3    H250900   5.681   5.261  11.483  0.3957 -0.3461  0.4553
 9829TIP3   OH250901   6.179   1.670   5.925 -0.6960  0.1843 -0.3550
 9829TIP3    H150902   6.222   1.681   5.841 -0.4461  1.2924 -0.0941
 9829TIP3    H250903   6.124   1.592   5.914  0.1707 -0.3260 -1.1790
 9830TIP3   OH250904   5.466   0.608  12.887  0.2637  0.1599 -0.7985
 9830TIP3    H150905   5.522   0.664  12.834 -0.7599  0.2797 -1.7787
 9830TIP3    H250906   5.419   0.554  12.824 -1.6908  0.9624 -0.1072
 9831TIP3   OH250907   3.286   6.279   3.033  0.2248  0.1114 -0.2253
 9831TIP3    H150908   3.355   6.247   2.976 -0.3114 -0.5047 -0.5387
 9831TIP3    H250909   3.254   6.201   3.078  0.2979  0.5140  0.5443
 9832TIP3   OH250910   4.116   3.435   4.351  0.4322 -0.0863 -0.6174
 9832TIP3    H150911   4.038   3.408   4.401  0.7574 -0.0868 -0.1041
 9832TIP3    H250912   4.157   3.503   4.405  1.6942 -1.2387 -0.0773
 9833TIP3   OH250913   0.193   1.716  10.723 -0.1997  0.0741  1.0726
 9833TIP3    H150914   0.245   1.664  10.784 -0.2865  0.0739  1.1468
 9833TIP3    H250915   0.187   1.662  10.644  1.6967  0.9471  0.2726
 9834TIP3   OH250916   3.693   1.720   3.655  0.1792  0.1652 -0.1486
 9834TIP3    H150917   3.752   1.766   3.596  0.2591 -0.9540 -0.9648
 9834TIP3    H250918   3.606   1.734   3.618  0.1000  0.4488  0.1397
 9835TIP3   OH250919   3.667   1.870  14.749 -0.3555 -0.0137  0.6812
 9835TIP3    H150920   3.668   1.782  14.713  0.4218  0.0323  0.5785
 9835TIP3    H250921   3.679   1.858  14.843 -1.1994 -0.0627  0.7950
 9836TIP3   OH250922   5.107   0.206   2.549 -0.2219  0.0558 -0.0260
 9836TIP3    H150923   5.159   0.220   2.469 -1.0353 -0.4550 -0.6579
 9836TIP3    H250924   5.171   0.211   2.620  0.6905 -0.4815 -0.7837
 9837TIP3   OH250925   1.271   5.961  12.159 -0.0698 -0.6902  0.2828
 9837TIP3    H150926   1.193   5.906  12.156 -0.0057 -0.8811  1.7019
 9837TIP3    H250927   1.334   5.911  12.211  0.7283 -0.1925 -0.1844
 9838TIP3   OH250928   0.142   0.480   5.323 -0.8714 -0.1007  0.0913
 9838TIP3    H150929   0.112   0.467   5.234  1.3469  0.6069 -0.8394
 9838TIP3    H250930   0.219   0.536   5.314  0.7622 -1.8196  2.2399
 9839TIP3   OH250931   0.977   5.285  11.581  0.3183  0.4603  0.0774
 9839TIP3    H150932   0.975   5.198  11.541  0.7440  0.3379  0.3211
 9839TIP3    H250933   0.963   5.345  11.508 -0.7490  0.1595  0.0176
 9840TIP3   OH250934   3.968   6.590   5.354  0.1552  0.0759 -0.5652
 9840TIP3    H150935   3.909   6.553   5.420  1.3908 -0.6860  0.1534
 9840TIP3    H250936   3.967   6.684   5.372  0.0505 -0.0602  0.1929
 9841TIP3   OH250937   2.815   0.109  13.118  0.0863  0.2054  0.3201
 9841TIP3    H150938   2.896   0.063  13.099  1.0593  1.6143  0.8543
 9841TIP3    H250939   2.790   0.080  13.206 -1.1165 -1.7127 -0.5767
 9842TIP3   OH250940   5.209   2.242   1.283  0.2611  0.4237  0.2802
 9842TIP3    H150941   5.155   2.308   1.325 -1.7787 -1.6760  1.1433
 9842TIP3    H250942   5.178   2.240   1.192  0.9803  1.2669  0.0054
 9843TIP3   OH250943   6.452   6.544   2.114 -0.2036 -0.2818  0.2883
 9843TIP3    H150944   6.529   6.521   2.166  0.1058 -0.9016 -0.4375
 9843TIP3    H250945   6.455   6.640   2.108  1.2938 -0.3685 -0.9000
 9844TIP3   OH250946   0.313   5.893   5.734 -0.3891  0.3111 -0.1915
 9844TIP3    H150947   0.249   5.883   5.664 -0.4339  1.8346 -0.3999
 9844TIP3    H250948   0.276   5.958   5.792  0.4119  0.2991  0.3557
 9845TIP3   OH250949   1.516   3.527  17.217 -0.2446  0.1653 -0.6315
 9845TIP3    H150950   1.592   3.533  17.274 -0.4797  0.2409 -0.3215
 9845TIP3    H250951   1.525   3.442  17.174 -0.5318 -0.3014  0.2044
 9846TIP3   OH250952   6.255   2.869  16.099  0.0449 -0.1032  0.0187
 9846TIP3    H150953   6.239   2.788  16.051  0.3786 -0.7081  0.8987
 9846TIP3    H250954   6.230   2.849  16.189 -1.0251  1.1593  0.0225
 9847TIP3   OH250955   5.866   5.513   0.110 -0.1410 -0.0070  0.1619
 9847TIP3    H150956   5.891   5.512   0.017 -0.1294  0.4855  0.1604
 9847TIP3    H250957   5.778   5.474   0.111  0.3335 -1.1355  0.0934
 9848TIP3   OH250958   6.490   2.378   3.248  0.6050 -0.0008 -0.0241
 9848TIP3    H150959   6.463   2.308   3.307  0.6213 -0.9341 -1.0753
 9848TIP3    H250960   6.562   2.340   3.198  2.1864  1.5571  0.9467
 9849TIP3   OH250961   1.244   6.349  16.415  0.4954 -0.6615 -0.4622
 9849TIP3    H150962   1.275   6.350  16.506 -0.1582 -0.7382 -0.2349
 9849TIP3    H250963   1.309   6.296  16.369  0.7230 -0.7963  0.0015
 9850TIP3   OH250964   3.753   2.578   3.324 -0.1972 -0.0746 -0.2189
 9850TIP3    H150965   3.705   2.551   3.246 -1.7737  0.1528  0.6148
 9850TIP3    H250966   3.684   2.594   3.389  0.9176  1.7639  0.5884
 9851TIP3   OH250967   4.850   2.556   4.841  0.2007 -0.2348 -0.0348
 9851TIP3    H150968   4.913   2.616   4.881  0.8752 -0.1839 -1.0993
 9851TIP3    H250969   4.782   2.613   4.805  1.7098  0.1398 -2.5754
 9852TIP3   OH250970   3.772   0.272  12.028  0.1579  0.1050  0.1371
 9852TIP3    H150971   3.863   0.243  12.033 -0.1142 -0.8805 -0.3792
 9852TIP3    H250972   3.776   0.355  11.980  0.7524 -0.0833 -0.1489
 9853TIP3   OH250973   1.190   3.011   5.490  0.6034  0.8952 -0.1794
 9853TIP3    H150974   1.264   3.044   5.439  0.3145  0.1145 -1.1288
 9853TIP3    H250975   1.230   2.974   5.569  1.1313  1.3274 -0.2340
 9854TIP3   OH250976   0.366   0.823   4.647 -0.1762  0.3998  0.0738
 9854TIP3    H150977   0.443   0.777   4.613 -0.4410 -0.4384  0.5780
 9854TIP3    H250978   0.403   0.897   4.695  0.3208  0.0757  0.2046
 9855TIP3   OH250979   1.497   2.625  17.075 -0.1102  0.0540  0.3651
 9855TIP3    H150980   1.409   2.603  17.105 -0.4796  0.1355 -0.6165
 9855TIP3    H250981   1.483   2.684  17.001  0.6261 -2.3142 -1.8051
 9856TIP3   OH250982   5.947   5.162   2.674 -0.3396  0.2044  0.4548
 9856TIP3    H150983   6.011   5.113   2.726  0.7903  0.7850 -0.3491
 9856TIP3    H250984   5.899   5.094   2.626  0.6132 -0.1809  0.0272
 9857TIP3   OH250985   2.809   4.901   4.860  0.2910  0.2055  0.4925
 9857TIP3    H150986   2.901   4.879   4.844  0.7925  1.5174  1.4409
 9857TIP3    H250987   2.779   4.834   4.921  0.2875 -0.8617 -0.6439
 9858TIP3   OH250988   2.356   5.777   5.991 -0.5945  0.0602 -0.6075
 9858TIP3    H150989   2.437   5.821   6.015  1.4093 -2.7398 -1.6883
 9858TIP3    H250990   2.295   5.798   6.062  1.6138  0.9139  1.1454
 9859TIP3   OH250991   0.231   3.540  14.915 -0.3238 -0.1595  0.1780
 9859TIP3    H150992   0.300   3.476  14.895 -0.0561  0.4000 -0.7594
 9859TIP3    H250993   0.269   3.598  14.981 -0.2882 -0.4911  0.4521
 9860TIP3   OH250994   5.764   3.858   2.469 -0.3739  0.2005 -0.4220
 9860TIP3    H150995   5.842   3.818   2.430  0.5735 -1.0883  2.4658
 9860TIP3    H250996   5.785   3.951   2.475  0.3577  0.0801 -0.9592
 9861TIP3   OH250997   1.374   4.198   6.139  0.4272  0.5609 -0.5392
 9861TIP3    H150998   1.378   4.262   6.210  0.5750  0.1349 -0.1557
 9861TIP3    H250999   1.443   4.225   6.078  0.1683  1.0413 -0.6237
 9862TIP3   OH251000   5.027   1.758   4.335  0.4917 -0.3827 -0.2608
 9862TIP3    H151001   4.945   1.753   4.384  0.3825 -1.3118 -0.5138
 9862TIP3    H251002   5.094   1.728   4.397  0.2883 -2.0213 -0.7948
 9863TIP3   OH251003   6.032   4.484   5.503  0.2260  0.3024 -0.0363
 9863TIP3    H151004   6.064   4.531   5.426  0.9495 -1.0097 -0.5733
 9863TIP3    H251005   6.067   4.395   5.493 -3.3663 -1.2290 -0.5551
 9864TIP3   OH251006   5.899   5.752   1.879 -0.5268 -0.4123  0.2106
 9864TIP3    H151007   5.820   5.806   1.872 -0.2455  0.0053  0.2140
 9864TIP3    H251008   5.889   5.685   1.811 -1.5399 -1.2173  1.1071
 9865TIP3   OH251009   2.869   0.495   0.202 -0.0203 -0.1178  0.2237
 9865TIP3    H151010   2.876   0.418   0.146  0.0148 -0.8845  1.2433
 9865TIP3    H251011   2.895   0.568   0.146 -1.3277 -0.6583 -1.1440
 9866TIP3   OH251012   1.046   1.862  10.621 -0.1830  0.4249 -0.1517
 9866TIP3    H151013   1.084   1.790  10.571  1.3417  0.8865  0.2881
 9866TIP3    H251014   0.981   1.821  10.677  1.2150 -0.7535  0.6661
 9867TIP3   OH251015   3.209   0.885   3.683 -0.2760  0.2979 -0.3937
 9867TIP3    H151016   3.170   0.955   3.631 -2.7442 -0.7852 -0.1278
 9867TIP3    H251017   3.303   0.895   3.669 -0.6689  2.1602 -2.2675
 9868TIP3   OH251018   0.691   6.404  14.117 -0.0777  0.5040 -1.2767
 9868TIP3    H151019   0.741   6.346  14.060  0.2858 -1.3122  0.7567
 9868TIP3    H251020   0.626   6.347  14.158  1.3262  1.0285  2.0456
 9869TIP3   OH251021   4.741   5.454  12.578  0.2566  0.0152 -0.2569
 9869TIP3    H151022   4.684   5.451  12.501 -1.5798  2.0179  0.9124
 9869TIP3    H251023   4.727   5.541  12.615  3.0903  0.1041  0.9087
 9870TIP3   OH251024   1.955   5.359  13.098  0.4860  0.6307  0.4547
 9870TIP3    H151025   2.021   5.352  13.167  0.6834 -2.0651  0.0717
 9870TIP3    H251026   1.906   5.278  13.103 -0.6725  1.1558 -1.4256
 9871TIP3   OH251027   3.060   0.263  12.179  0.4021 -0.8969  0.2331
 9871TIP3    H151028   3.153   0.259  12.157  0.4761  2.4902 -0.6790
 9871TIP3    H251029   3.057   0.310  12.262 -0.4787  1.8482 -1.2191
 9872TIP3   OH251030   0.318   0.205   0.272  0.0634 -0.6465  0.4093
 9872TIP3    H151031   0.321   0.136   0.205 -1.5092 -0.4989  0.1550
 9872TIP3    H251032   0.397   0.256   0.256  0.0561 -1.0119 -0.9289
 9873TIP3   OH251033   3.843   3.136  13.123  0.3068 -0.2092 -0.0151
 9873TIP3    H151034   3.769   3.195  13.135 -0.3191 -1.1586  0.9798
 9873TIP3    H251035   3.885   3.167  13.043 -0.7681  0.7704 -0.2326
 9874TIP3   OH251036   1.495   1.474  16.615 -0.0596 -0.1581 -0.2911
 9874TIP3    H151037   1.463   1.556  16.580  0.3111  0.2666  0.3393
 9874TIP3    H251038   1.443   1.407  16.572 -3.2487  0.5384  2.1247
 9875TIP3   OH251039   2.580   4.280  15.015  0.3758  0.6073 -0.1274
 9875TIP3    H151040   2.582   4.185  15.003  1.1640  0.6958 -0.7617
 9875TIP3    H251041   2.546   4.313  14.931  2.7134  1.0325 -0.9778
 9876TIP3   OH251042   2.211   4.464  11.758 -0.4594  0.4424  0.5266
 9876TIP3    H151043   2.121   4.453  11.726 -0.2627 -0.2253  0.1855
 9876TIP3    H251044   2.207   4.434  11.848 -0.8291  1.5179  0.8807
 9877TIP3   OH251045   3.137   2.565   1.532 -0.4916  0.3335  0.5373
 9877TIP3    H151046   3.077   2.572   1.606 -0.2305  0.4212  0.7417
 9877TIP3    H251047   3.187   2.485   1.548  0.5590  1.0917  1.2075
 9878TIP3   OH251048   4.071   3.558   1.783 -0.0988 -0.1068  0.4398
 9878TIP3    H151049   4.124   3.563   1.863  0.5260  3.5120 -0.0292
 9878TIP3    H251050   3.981   3.548   1.814  0.4276 -2.3776  1.3928
 9879TIP3   OH251051   5.409   4.224   3.164  0.2000  0.3575 -0.0706
 9879TIP3    H151052   5.398   4.314   3.196 -0.4894 -0.0945  1.0195
 9879TIP3    H251053   5.344   4.173   3.212  0.6603 -0.7531 -0.5859
 9880TIP3   OH251054   1.210   4.889  17.019  0.6225  0.1669 -0.3399
 9880TIP3    H151055   1.183   4.836  17.094  1.4372 -1.0169 -0.8377
 9880TIP3    H251056   1.279   4.945  17.053 -0.9286  1.6801  0.4313
 9881TIP3   OH251057   0.655   4.479   2.207  0.2888 -0.2779 -0.0833
 9881TIP3    H151058   0.572   4.445   2.173  0.6500 -1.2125 -0.0549
 9881TIP3    H251059   0.632   4.563   2.246 -0.6239 -0.4695 -0.1791
 9882TIP3   OH251060   1.976   1.593   5.129 -0.1794 -0.0447  0.1253
 9882TIP3    H151061   2.038   1.556   5.192  2.2207  0.7014 -1.6502
 9882TIP3    H251062   2.017   1.675   5.101 -1.5609  0.0573 -1.7738
 9883TIP3   OH251063   2.131   2.890  14.729 -0.1860 -0.0130  0.2523
 9883TIP3    H151064   2.149   2.797  14.715  2.7323  0.5696 -0.5968
 9883TIP3    H251065   2.157   2.906  14.820  0.1767  0.1218  0.1287
 9884TIP3   OH251066   1.630   0.399   2.972 -0.2667 -0.3375 -0.3848
 9884TIP3    H151067   1.537   0.408   2.955 -0.2100  0.0396 -0.4974
 9884TIP3    H251068   1.661   0.489   2.984 -0.1935 -0.5283  1.0801
 9885TIP3   OH251069   3.601   5.304  17.091 -0.4225 -0.2417  0.0264
 9885TIP3    H151070   3.544   5.364  17.139 -0.3204  0.0781 -0.2464
 9885TIP3    H251071   3.678   5.293  17.147 -0.5186 -0.2540  0.1560
 9886TIP3   OH251072   3.411   3.065   2.766 -0.6570  0.2536 -0.2926
 9886TIP3    H151073   3.498   3.061   2.807 -0.2807  1.2381 -0.9555
 9886TIP3    H251074   3.403   2.981   2.720 -0.0397  0.1646 -0.2529
 9887TIP3   OH251075   4.632   2.076  11.778 -0.3109 -0.2319  0.0823
 9887TIP3    H151076   4.668   2.157  11.814 -0.3490 -0.6334  1.0457
 9887TIP3    H251077   4.687   2.058  11.701 -0.9822  1.2685 -0.7847
 9888TIP3   OH251078   1.977   4.693  14.425  0.2783 -0.3125 -0.0861
 9888TIP3    H151079   1.993   4.704  14.518 -1.8809 -0.4022  0.3511
 9888TIP3    H251080   2.020   4.768  14.384 -0.3941  0.8187  1.1982
 9889TIP3   OH251081   6.035   1.774  11.193 -0.3851 -0.2507  0.3316
 9889TIP3    H151082   6.011   1.860  11.227  0.1466 -0.3608  1.0172
 9889TIP3    H251083   6.086   1.792  11.114 -0.3253  0.0626  0.4399
 9890TIP3   OH251084   1.119   0.610  15.752  0.4473  0.3822 -0.2551
 9890TIP3    H151085   1.199   0.584  15.707 -0.5705  0.5481 -2.2607
 9890TIP3    H251086   1.142   0.690  15.798  2.0514 -0.8455  1.2214
 9891TIP3   OH251087   2.333   1.991  14.742  0.2095 -0.7392  0.6148
 9891TIP3    H151088   2.301   1.950  14.662 -0.8167 -0.2340  0.7449
 9891TIP3    H251089   2.311   1.930  14.812 -0.1792 -0.5487  0.6634
 9892TIP3   OH251090   6.059   1.141  16.788 -0.5357 -0.0716 -0.2704
 9892TIP3    H151091   5.969   1.171  16.791 -0.4980  0.0668 -0.4746
 9892TIP3    H251092   6.058   1.065  16.730 -0.8246 -1.1674  1.1134
 9893TIP3   OH251093   4.277   2.663   6.029 -0.4521 -0.2525  0.3460
 9893TIP3    H151094   4.322   2.654   5.945  0.5994  3.1473  0.4049
 9893TIP3    H251095   4.325   2.605   6.088  0.2826 -0.9019 -0.8563
 9894TIP3   OH251096   2.946   1.882   1.137 -0.5518  0.0199 -0.1511
 9894TIP3    H151097   2.934   1.849   1.226  0.3453  1.6326  0.6184
 9894TIP3    H251098   2.860   1.913   1.111 -0.5137  0.9829  0.8033
 9895TIP3   OH251099   1.689   4.976  15.780 -0.2792 -0.4240 -0.2444
 9895TIP3    H151100   1.722   4.980  15.691  2.7543  0.5822  0.7773
 9895TIP3    H251101   1.643   5.059  15.793 -1.6314 -1.0127 -1.1336
 9896TIP3   OH251102   4.868   6.345   4.513 -0.0915  0.2406  0.5924
 9896TIP3    H151103   4.860   6.252   4.492 -0.9327  1.0182 -3.2443
 9896TIP3    H251104   4.778   6.377   4.520  0.1851  0.8417  1.6836
 9897TIP3   OH251105   2.303   6.256  15.659 -0.3640  0.6247  0.3242
 9897TIP3    H151106   2.274   6.280  15.571  1.3210  0.6700 -0.2403
 9897TIP3    H251107   2.229   6.281  15.716 -1.1843  1.2573 -0.9729
 9898TIP3   OH251108   0.222   1.895   3.639  0.5227 -0.4213 -0.1237
 9898TIP3    H151109   0.221   1.870   3.547  0.2120 -0.2290 -0.1746
 9898TIP3    H251110   0.214   1.990   3.639 -3.1972 -0.5829  0.1465
 9899TIP3   OH251111   2.082   0.034   5.190  0.5412  0.1362  0.6093
 9899TIP3    H151112   2.137  -0.000   5.260 -0.4444  0.2766  1.4893
 9899TIP3    H251113   1.995   0.040   5.230 -0.9195 -3.2119 -1.6285
 9900TIP3   OH251114   3.247   6.504  12.272 -0.7462  1.2319  0.2108
 9900TIP3    H151115   3.283   6.470  12.354  0.4342  0.8997 -0.4365
 9900TIP3    H251116   3.198   6.582  12.299 -1.4132  0.4451  1.3894
 9901TIP3   OH251117   5.374   1.975   2.016  0.2832  0.5024  0.2835
 9901TIP3    H151118   5.444   1.911   2.011  2.3358  2.5802  0.7293
 9901TIP3    H251119   5.296   1.924   2.037  1.3293 -2.0798 -1.6240
 9902TIP3   OH251120   5.091   4.993   0.609 -0.2724 -0.0702  0.0721
 9902TIP3    H151121   5.131   4.942   0.680  0.3508 -0.4903 -0.5728
 9902TIP3    H251122   5.049   5.067   0.654  2.2306  1.0702  0.7352
 9903TIP3   OH251123   4.090   4.073   4.726 -0.4033  0.1111 -0.0593
 9903TIP3    H151124   4.116   4.164   4.741  0.5716 -0.1448 -0.1260
 9903TIP3    H251125   3.995   4.075   4.726 -0.4343  0.8516  1.8049
 9904TIP3   OH251126   3.225   2.973  12.729  0.4620 -0.5332  0.2220
 9904TIP3    H151127   3.223   3.068  12.721 -0.2567 -0.4829  0.8691
 9904TIP3    H251128   3.253   2.942  12.643  1.0535  0.2721  0.1117
 9905TIP3   OH251129   1.099   4.162  17.161  0.2373  0.0161  0.7802
 9905TIP3    H151130   1.155   4.188  17.089  1.0652  1.8058  1.9999
 9905TIP3    H251131   1.049   4.088  17.127 -0.1944  1.4644 -1.9508
 9906TIP3   OH251132   4.500   3.228   5.943 -0.3559 -0.0420  0.8083
 9906TIP3    H151133   4.461   3.149   5.905 -0.4494  0.6277 -0.5432
 9906TIP3    H251134   4.595   3.212   5.937 -0.3644  0.1063  0.1427
 9907TIP3   OH251135   2.163   0.620  14.322 -0.0592 -0.3663  0.0975
 9907TIP3    H151136   2.072   0.630  14.297 -0.1571 -1.9445 -0.2707
 9907TIP3    H251137   2.180   0.693  14.381 -0.5030  2.0916 -2.5895
 9908TIP3   OH251138   1.709   5.049   0.877  0.5307 -0.5273  0.1871
 9908TIP3    H151139   1.731   5.141   0.860  0.8259 -0.6990 -0.4014
 9908TIP3    H251140   1.781   5.017   0.931  0.6165 -0.5086  0.0851
 9909TIP3   OH251141   2.746   3.385  14.908 -0.1331  0.0806 -0.4143
 9909TIP3    H151142   2.793   3.421  14.983  1.0400  0.4648 -1.3105
 9909TIP3    H251143   2.735   3.460  14.849 -4.5480  0.7933  0.9656
 9910TIP3   OH251144   1.565   6.666  15.744 -0.3424  0.1493  0.2117
 9910TIP3    H151145   1.609   6.583  15.729 -0.6601  0.1034 -0.4685
 9910TIP3    H251146   1.490   6.666  15.685 -0.7822  0.5927  0.7465
 9911TIP3   OH251147   5.631   4.437   2.385  0.0821  0.0605 -0.0299
 9911TIP3    H151148   5.630   4.455   2.479  0.1196  0.1393 -0.0449
 9911TIP3    H251149   5.539   4.441   2.359  0.1620  0.9796 -0.1797
 9912TIP3   OH251150   1.351   2.964   5.692  0.4158 -0.2461  0.0102
 9912TIP3    H151151   1.415   2.988   5.759  0.6663 -0.8482 -0.0096
 9912TIP3    H251152   1.298   2.895   5.732 -0.4832  0.5196  0.1652
 9913TIP3   OH251153   2.979   2.913  17.371 -0.7243  0.0503 -0.0017
 9913TIP3    H151154   3.041   2.972  17.415 -1.4774  0.3886  0.6181
 9913TIP3    H251155   3.031   2.871  17.302  0.4201 -0.3444  1.0708
 9914TIP3   OH251156   5.819   2.551  11.349  0.6214  0.1229  0.1061
 9914TIP3    H151157   5.820   2.567  11.443 -1.8731  0.1349  0.2066
 9914TIP3    H251158   5.851   2.461  11.340 -1.3212 -0.7498  1.2546
 9915TIP3   OH251159   4.771   5.651  14.594 -0.2606  0.1318 -0.0440
 9915TIP3    H151160   4.711   5.649  14.668  0.2996  0.0344  0.4192
 9915TIP3    H251161   4.856   5.673  14.633  0.7027 -2.8834 -0.1441
 9916TIP3   OH251162   5.599   1.444   0.591  0.2189  0.1663 -0.4555
 9916TIP3    H151163   5.571   1.535   0.604  0.7872  0.6391 -2.3069
 9916TIP3    H251164   5.616   1.412   0.680 -0.6590  1.6268  0.2934
 9917TIP3   OH251165   5.250   5.397   5.817 -0.1119 -0.6714  0.3514
 9917TIP3    H151166   5.180   5.366   5.760 -1.2424  0.0728  1.2815
 9917TIP3    H251167   5.206   5.450   5.884  1.4551  0.8099  0.3107
 9918TIP3   OH251168   0.469   1.414  15.476  0.3944 -0.6612 -0.1292
 9918TIP3    H151169   0.392   1.455  15.436 -0.1220 -1.2785  0.2176
 9918TIP3    H251170   0.457   1.426  15.570  1.0722 -0.1544 -0.0978
 9919TIP3   OH251171   6.479   5.381   4.668  0.0763  0.0450 -0.1903
 9919TIP3    H151172   6.468   5.391   4.762 -0.5029 -1.4841 -0.0742
 9919TIP3    H251173   6.423   5.449   4.630 -0.9251 -0.3478  0.5444
 9920TIP3   OH251174   3.519   2.566   1.583  0.4089 -0.0305  0.6840
 9920TIP3    H151175   3.450   2.503   1.561 -0.4978  0.9731  0.5479
 9920TIP3    H251176   3.594   2.513   1.606  0.2158 -1.1506 -1.1212
 9921TIP3   OH251177   1.843   1.711  13.437  0.1971 -0.0534 -0.0281
 9921TIP3    H151178   1.929   1.742  13.466 -0.8995  0.6536  2.8621
 9921TIP3    H251179   1.783   1.782  13.462 -1.2284 -0.4092 -2.2315
 9922TIP3   OH251180   6.046   3.440  15.412  0.0879  0.7166 -0.3907
 9922TIP3    H151181   6.108   3.496  15.366  0.6541  0.7876  0.4579
 9922TIP3    H251182   6.082   3.430  15.500  1.0375 -2.5393 -1.0295
 9923TIP3   OH251183   2.874   6.754   4.953  0.3467  0.0138 -0.0138
 9923TIP3    H151184   2.785   6.767   4.920 -0.7102 -0.2474  2.5223
 9923TIP3    H251185   2.879   6.661   4.972  1.0699  0.0877  0.1728
 9924TIP3   OH251186   1.553   3.109   1.281 -0.4163  0.2948 -0.4297
 9924TIP3    H151187   1.568   3.180   1.218 -0.0939  0.9783  0.3937
 9924TIP3    H251188   1.640   3.079   1.305 -0.4755  0.9490  0.6775
 9925TIP3   OH251189   0.752   5.236   1.517  0.0805 -0.2552  0.4595
 9925TIP3    H151190   0.722   5.145   1.519 -0.1237 -0.2484 -0.9464
 9925TIP3    H251191   0.693   5.278   1.454 -1.3945  1.4606  2.8263
 9926TIP3   OH251192   3.305   0.217  13.650  0.5929  0.0348 -0.1831
 9926TIP3    H151193   3.272   0.188  13.565  2.4620 -1.6570 -0.4207
 9926TIP3    H251194   3.293   0.142  13.707 -0.4572  1.0900  1.0376
 9927TIP3   OH251195   2.481   1.763   3.166  0.2428  0.1928  0.2306
 9927TIP3    H151196   2.547   1.761   3.235 -1.1547 -0.7508  1.5918
 9927TIP3    H251197   2.460   1.856   3.156  1.5549  0.4878 -0.0621
 9928TIP3   OH251198   6.215   1.956   0.135 -0.0242 -0.1802  0.0455
 9928TIP3    H151199   6.162   1.946   0.056 -1.0335 -1.3087  0.8347
 9928TIP3    H251200   6.225   1.867   0.169  0.3751  0.2944  1.2076
 9929TIP3   OH251201   5.656   1.482  12.607 -0.2151  0.4977  0.6295
 9929TIP3    H151202   5.696   1.396  12.609  1.8120  1.3748  0.7046
 9929TIP3    H251203   5.727   1.542  12.630 -1.3857  2.2499 -0.0709
 9930TIP3   OH251204   3.763   4.947  11.562  0.2996 -0.4251 -0.0269
 9930TIP3    H151205   3.759   4.879  11.629  2.4636 -0.8241 -0.2334
 9930TIP3    H251206   3.773   5.029  11.610 -1.5440 -0.2789  0.1942
 9931TIP3   OH251207   1.963   3.920   3.363  0.2283 -0.0333  0.0786
 9931TIP3    H151208   2.008   3.850   3.315 -1.4801 -1.1274 -0.0341
 9931TIP3    H251209   1.996   4.001   3.324  0.3095 -0.8481 -1.6407
 9932TIP3   OH251210   5.691   1.111   3.905 -0.1065 -0.3112  0.2500
 9932TIP3    H151211   5.611   1.161   3.920  0.3163  0.3105  0.5082
 9932TIP3    H251212   5.731   1.104   3.991 -0.2310 -1.2303  0.2358
 9933TIP3   OH251213   5.700   6.211  11.182 -0.0491 -0.1611 -0.0789
 9933TIP3    H151214   5.731   6.122  11.200  0.7556  0.3113  1.0241
 9933TIP3    H251215   5.626   6.199  11.123  0.1010 -1.5587 -0.0256
 9934TIP3   OH251216   2.052   3.902   0.016  0.2432 -0.2251  0.4173
 9934TIP3    H151217   2.104   3.941   0.087 -0.5511  1.7486 -0.0348
 9934TIP3    H251218   1.967   3.884   0.056  0.3640 -0.8151  0.4193
 9935TIP3   OH251219   5.147   0.595  11.733 -0.5423 -0.1649 -0.0187
 9935TIP3    H151220   5.090   0.655  11.782 -1.6963 -0.8818 -0.4573
 9935TIP3    H251221   5.131   0.617  11.641  0.9739  0.5860 -0.1413
 9936TIP3   OH251222   4.172   3.675  12.799  0.5594 -0.3438  0.4364
 9936TIP3    H151223   4.136   3.587  12.789  0.4632 -0.4927  1.8349
 9936TIP3    H251224   4.156   3.697  12.891 -0.0362  1.4202 -0.0470
 9937TIP3   OH251225   0.739   4.696   1.459 -0.5368 -0.4699 -0.4781
 9937TIP3    H151226   0.745   4.725   1.368 -1.2982 -0.7877 -0.6352
 9937TIP3    H251227   0.785   4.611   1.461  0.8696  0.2593 -0.2145
 9938TIP3   OH251228   1.896   2.012   2.589 -0.4922  0.0129 -0.2626
 9938TIP3    H151229   1.952   2.046   2.658  1.3310 -1.8325 -0.7155
 9938TIP3    H251230   1.818   2.066   2.592  0.8682  2.0239  1.1190
 9939TIP3   OH251231   5.920   0.309  13.137  0.0755  0.2892 -0.1076
 9939TIP3    H151232   5.838   0.287  13.091 -1.0437  1.5972  1.1722
 9939TIP3    H251233   5.953   0.386  13.092 -1.3805  1.9873  1.5810
 9940TIP3   OH251234   6.152   2.867   4.976 -0.4054  0.3755  0.2728
 9940TIP3    H151235   6.057   2.872   4.992 -1.0939 -0.9429 -2.6364
 9940TIP3    H251236   6.170   2.941   4.918  0.3235  0.4935  0.6403
 9941TIP3   OH251237   2.641   3.174  12.664  0.3943  0.4515  0.1045
 9941TIP3    H151238   2.708   3.217  12.612  0.6714 -0.2605 -0.1362
 9941TIP3    H251239   2.653   3.081  12.647 -1.2768  0.3429 -0.7194
 9942TIP3   OH251240   4.554   5.238   2.222  0.7151  0.5556  0.1946
 9942TIP3    H151241   4.542   5.151   2.185 -0.1151 -0.2599  2.2095
 9942TIP3    H251242   4.510   5.297   2.162  0.1380 -0.5829 -0.5288
 9943TIP3   OH251243   5.410   5.956  14.334  0.1420  0.0957  0.8343
 9943TIP3    H151244   5.333   5.946  14.279 -1.0050  0.4089  2.3435
 9943TIP3    H251245   5.482   5.920  14.281 -0.9848 -0.0328 -0.6619
 9944TIP3   OH251246   4.251   2.821   3.608 -0.0168  0.2328  0.3246
 9944TIP3    H151247   4.271   2.909   3.576  0.1845  0.5073  1.1577
 9944TIP3    H251248   4.331   2.793   3.653 -0.0173 -0.4568 -0.0935
 9945TIP3   OH251249   2.449   1.072  12.914 -0.0369  0.3473  0.1460
 9945TIP3    H151250   2.405   1.042  12.834  0.8834  0.5261 -0.4428
 9945TIP3    H251251   2.531   1.023  12.916  0.8339  1.7301 -0.0701
 9946TIP3   OH251252   4.220   1.305   2.589  0.1179  0.5681 -0.2950
 9946TIP3    H151253   4.272   1.376   2.627  0.7640  0.9708 -1.8109
 9946TIP3    H251254   4.131   1.323   2.617  0.6912  0.2053  1.8846
 9947TIP3   OH251255   5.317   5.297  12.647  0.4537 -0.5432 -0.3694
 9947TIP3    H151256   5.372   5.323  12.574  0.9384 -2.3164 -0.6939
 9947TIP3    H251257   5.241   5.355  12.643  2.9263  3.1754  1.0864
 9948TIP3   OH251258   5.271   4.019  16.861 -0.5955  0.4440 -0.3287
 9948TIP3    H151259   5.293   4.069  16.939  0.1035 -0.1815 -0.1223
 9948TIP3    H251260   5.204   4.072  16.817 -0.0013  1.4734 -0.0235
 9949TIP3   OH251261   0.992   1.429   0.935  0.0517 -0.4423  0.4327
 9949TIP3    H151262   0.931   1.362   0.967  0.5122 -0.6707  0.8509
 9949TIP3    H251263   1.076   1.406   0.975 -0.0256  1.0494  1.5505
 9950TIP3   OH251264   5.480   5.507   4.666  0.2051  0.4716 -0.3830
 9950TIP3    H151265   5.508   5.462   4.746 -0.3292  0.0345 -0.4368
 9950TIP3    H251266   5.467   5.598   4.694 -0.6908  0.1733  0.2136
 9951TIP3   OH251267   5.566   1.687   6.707  0.1767 -0.4609  0.6443
 9951TIP3    H151268   5.582   1.622   6.776 -1.0280 -1.1328  0.3180
 9951TIP3    H251269   5.636   1.752   6.719  0.2627 -0.7960  2.2041
 9952TIP3   OH251270   2.807   4.413  14.795  0.1812  0.3181  0.2610
 9952TIP3    H151271   2.844   4.403  14.882  0.7226  0.4955  0.0541
 9952TIP3    H251272   2.716   4.439  14.810  0.6914  1.8890  0.7823
 9953TIP3   OH251273   6.414   5.578  12.317  0.0338  0.2382 -0.1971
 9953TIP3    H151274   6.366   5.655  12.346 -1.6532 -0.2902 -1.4212
 9953TIP3    H251275   6.413   5.519  12.393 -2.0815 -0.1139 -0.4600
 9954TIP3   OH251276   4.315   4.975   2.271 -0.2590 -0.0502  0.3374
 9954TIP3    H151277   4.315   4.994   2.365  0.4788 -0.1488  0.3639
 9954TIP3    H251278   4.301   5.059   2.229  0.3351  0.1444  0.5204
 9955TIP3   OH251279   2.113   1.640  16.465 -0.1399  0.0508 -0.3720
 9955TIP3    H151280   2.039   1.700  16.479  1.2502  1.5077  1.2357
 9955TIP3    H251281   2.074   1.553  16.471 -1.7810  0.7615  0.1807
 9956TIP3   OH251282   3.198   0.542  15.237  0.4375 -0.2350 -0.0233
 9956TIP3    H151283   3.112   0.505  15.260  0.3588 -0.1706 -0.2178
 9956TIP3    H251284   3.229   0.489  15.164  1.0557 -0.9665  0.7412
 9957TIP3   OH251285   1.140   3.308   5.369  0.0518 -0.5744 -0.5545
 9957TIP3    H151286   1.131   3.224   5.414  0.8844 -2.0579 -2.9215
 9957TIP3    H251287   1.225   3.342   5.399 -1.1406  0.4682  1.8825
 9958TIP3   OH251288   5.029   0.802  13.539  0.1683  0.2083 -0.6985
 9958TIP3    H151289   5.021   0.745  13.462  2.2548  1.2837 -1.8049
 9958TIP3    H251290   4.987   0.753  13.610 -0.5558 -1.4491 -2.2050
 9959TIP3   OH251291   3.898   5.005  11.168  0.0876  0.4813 -0.1991
 9959TIP3    H151292   3.880   4.919  11.130 -1.7724  0.7026  0.1247
 9959TIP3    H251293   3.897   5.065  11.093  2.1269  0.1799 -0.5364
 9960TIP3   OH251294   1.285   0.105  12.224 -0.3176  0.3461  0.0966
 9960TIP3    H151295   1.310   0.163  12.153  0.2563  0.5043  0.4175
 9960TIP3    H251296   1.274   0.163  12.299  2.5901 -0.1338  1.0359
 9961TIP3   OH251297   3.236   4.324  12.182 -0.3505  0.8897 -0.0827
 9961TIP3    H151298   3.244   4.338  12.276 -0.4181  0.7731 -0.0606
 9961TIP3    H251299   3.166   4.260  12.172  1.8463 -1.7317 -0.0121
 9962TIP3   OH251300   1.818   0.892   1.507 -0.2604 -0.3748 -0.1356
 9962TIP3    H151301   1.906   0.868   1.537 -0.0269 -1.0599 -1.3330
 9962TIP3    H251302   1.827   0.906   1.413 -1.2398  0.5258 -0.1111
 9963TIP3   OH251303   5.966   3.019   3.516  0.2460 -0.2458  0.4489
 9963TIP3    H151304   6.061   3.033   3.526  0.2631 -1.1054  1.7205
 9963TIP3    H251305   5.942   3.072   3.440  1.2117  2.3767  1.8224
 9964TIP3   OH251306   1.008   1.817   4.442 -0.1051 -0.3762  0.0749
 9964TIP3    H151307   0.918   1.802   4.471 -0.0034 -0.8129  0.1864
 9964TIP3    H251308   1.023   1.910   4.455 -0.7598 -0.1703 -0.5850
 9965TIP3   OH251309   5.526   3.066  16.156 -0.0197  0.2697 -0.2031
 9965TIP3    H151310   5.487   3.113  16.230  1.1781  0.3939  0.3795
 9965TIP3    H251311   5.509   2.973  16.174  0.9232  0.2465  0.6463
 9966TIP3   OH251312   3.519   3.037   6.370  0.4391 -0.3394 -0.4739
 9966TIP3    H151313   3.612   3.017   6.381  0.2450 -1.1670 -0.2798
 9966TIP3    H251314   3.476   2.992   6.443 -0.0983  0.1610 -0.4735
 9967TIP3   OH251315   2.916   0.586   6.294 -0.1269 -1.3900  0.4306
 9967TIP3    H151316   2.921   0.581   6.389 -3.6395  1.5511  0.9953
 9967TIP3    H251317   2.967   0.664   6.272  0.5042 -1.9458 -0.1404
 9968TIP3   OH251318   4.673   2.497  16.036  0.6124 -0.1518  0.1599
 9968TIP3    H151319   4.663   2.535  16.123  1.6051  0.5514 -0.0163
 9968TIP3    H251320   4.649   2.567  15.976 -1.8304 -1.1777 -0.1574
 9969TIP3   OH251321   6.155   2.591  16.059 -0.7630 -0.2674 -0.7770
 9969TIP3    H151322   6.234   2.536  16.063 -1.4691 -1.2665  1.3175
 9969TIP3    H251323   6.090   2.537  16.014 -1.1929 -0.8807  0.5006
 9970TIP3   OH251324   3.905   0.285  11.708  0.0444  0.3095 -0.0935
 9970TIP3    H151325   3.876   0.195  11.723  1.0791 -0.1354 -0.6819
 9970TIP3    H251326   3.824   0.335  11.704 -0.5302 -0.5355  0.6070
 9971TIP3   OH251327   4.374   4.696  11.907 -0.1419  0.5902  0.2408
 9971TIP3    H151328   4.314   4.738  11.969  0.2968 -0.7514  1.6449
 9971TIP3    H251329   4.330   4.615  11.882  0.1428  0.6321 -0.4224
 9972TIP3   OH251330   1.743   1.772  11.935  0.1257 -0.0635 -0.1664
 9972TIP3    H151331   1.682   1.741  12.002 -0.7164  0.3219 -0.7534
 9972TIP3    H251332   1.813   1.706  11.935 -1.3472 -1.7093 -0.9979
 9973TIP3   OH251333   1.644   1.851  10.206  0.2718 -0.2043 -0.0333
 9973TIP3    H151334   1.616   1.788  10.273  1.3949 -2.3064 -1.4285
 9973TIP3    H251335   1.563   1.888  10.172 -0.4568 -1.2351  0.5259
 9974TIP3   OH251336   2.339   5.066   2.973  0.1312 -0.1871  0.3128
 9974TIP3    H151337   2.270   5.132   2.978 -0.6200 -0.8298 -1.1157
 9974TIP3    H251338   2.332   5.018   3.056 -2.2960 -1.3055 -0.4432
 9975TIP3   OH251339   1.711   3.002   4.623  0.0846 -0.3217 -0.1054
 9975TIP3    H151340   1.734   3.038   4.708  2.4160  0.2738 -0.9138
 9975TIP3    H251341   1.712   2.907   4.636  0.4008 -0.2363  0.5240
 9976TIP3   OH251342   2.249   5.105   4.652  0.0405  0.4354 -0.7059
 9976TIP3    H151343   2.300   5.097   4.733  0.6095  1.5625 -0.9304
 9976TIP3    H251344   2.309   5.075   4.584 -0.4788 -0.6259 -0.7169
 9977TIP3   OH251345   3.994   2.475   5.195  0.5624  0.3592  0.5620
 9977TIP3    H151346   3.915   2.457   5.144  0.8296  0.7242  0.0026
 9977TIP3    H251347   3.977   2.436   5.280 -0.3576  0.7170  0.5566
 9978TIP3   OH251348   1.962   0.796   6.757 -0.4243  0.0013 -0.0108
 9978TIP3    H151349   1.958   0.884   6.795  2.5741 -0.4645  1.7663
 9978TIP3    H251350   2.004   0.808   6.672  2.3543  0.2019  1.2681
 9979TIP3   OH251351   3.807   5.913  13.123  0.3650 -0.2584  0.2674
 9979TIP3    H151352   3.788   5.958  13.206 -0.6743  1.6414 -0.9290
 9979TIP3    H251353   3.757   5.832  13.128 -1.0365  0.6026  0.8307
 9980TIP3   OH251354   3.112   0.903   0.681 -0.4016  0.8308 -0.0395
 9980TIP3    H151355   3.176   0.950   0.628  0.1994  0.0564 -0.0262
 9980TIP3    H251356   3.028   0.925   0.643  0.0791 -0.7462 -2.2053
 9981TIP3   OH251357   0.783   0.302  14.747  0.1040  0.1922 -0.3159
 9981TIP3    H151358   0.811   0.260  14.666 -0.2833 -1.1608  0.2189
 9981TIP3    H251359   0.859   0.295  14.806 -0.4454 -1.1197  0.2634
 9982TIP3   OH251360   4.870   6.282   3.164 -0.3305 -0.1658 -0.0475
 9982TIP3    H151361   4.823   6.269   3.246  1.4040 -0.4377  0.9635
 9982TIP3    H251362   4.959   6.307   3.192  0.4269 -0.7328 -1.8300
 9983TIP3   OH251363   3.054   2.114  16.239 -0.6403  0.4888  0.0176
 9983TIP3    H151364   3.146   2.091  16.252 -0.8026 -0.4907 -0.5167
 9983TIP3    H251365   3.023   2.052  16.173 -2.0854 -0.2064  1.2977
 9984TIP3   OH251366   3.038   0.058   4.637 -0.4519  0.1145  0.1530
 9984TIP3    H151367   3.059   0.010   4.718  2.5787  0.8122 -0.0973
 9984TIP3    H251368   3.085   0.011   4.568  0.0940  1.6633 -0.5737
 9985TIP3   OH251369   5.004   2.781   3.175 -0.3413  0.0144  0.4186
 9985TIP3    H151370   5.099   2.775   3.177 -0.3250  0.2801  0.4135
 9985TIP3    H251371   4.982   2.785   3.082 -0.4534 -1.5789  0.3471
 9986TIP3   OH251372   1.114   3.867  16.808 -0.1630 -0.4392  0.1074
 9986TIP3    H151373   1.059   3.912  16.744  0.3472 -0.6007 -0.4543
 9986TIP3    H251374   1.133   3.782  16.768 -0.0985 -0.6684  0.6141
 9987TIP3   OH251375   4.183   4.934  13.250  0.6522 -0.6894 -0.1691
 9987TIP3    H151376   4.102   4.893  13.220  1.4482 -2.3578 -0.1755
 9987TIP3    H251377   4.228   4.865  13.299  2.4935 -0.1396 -0.9766
 9988TIP3   OH251378   2.689   1.493   3.019  0.6803 -0.2873 -0.0424
 9988TIP3    H151379   2.769   1.466   3.066  1.5175 -0.6737 -1.6056
 9988TIP3    H251380   2.648   1.411   2.993  0.2064 -0.0788  0.0365
 9989TIP3   OH251381   0.124   0.827  12.615  0.4754 -0.1923 -0.7188
 9989TIP3    H151382   0.037   0.800  12.585  0.8817 -0.3058 -1.8528
 9989TIP3    H251383   0.161   0.748  12.655 -0.7881  0.4416  1.9123
 9990TIP3   OH251384   3.809   6.138   3.039  0.2108  0.1983  0.0314
 9990TIP3    H151385   3.864   6.068   3.003 -0.9225 -0.1420 -1.1190
 9990TIP3    H251386   3.785   6.107   3.126  1.1598 -0.0129  0.2291
 9991TIP3   OH251387   5.249   2.628   1.689 -0.4619  0.5376  0.1118
 9991TIP3    H151388   5.244   2.695   1.621  0.5236 -0.3243 -0.8642
 9991TIP3    H251389   5.158   2.602   1.705 -0.6733  0.2703 -1.4011
 9992TIP3   OH251390   2.316   5.226   4.054  0.5728  0.7328 -0.0697
 9992TIP3    H151391   2.262   5.234   4.132  2.4404 -1.7033  1.6294
 9992TIP3    H251392   2.284   5.147   4.010  1.9061 -0.0677  0.3306
 9993TIP3   OH251393   0.419   0.700  12.914 -0.3122  0.0558  0.3427
 9993TIP3    H151394   0.414   0.608  12.941 -2.6477  0.3472  1.1130
 9993TIP3    H251395   0.329   0.732  12.921  0.3569  2.2833 -0.4053
 9994TIP3   OH251396   5.429   3.157  15.197  0.0076  0.5607  0.7488
 9994TIP3    H151397   5.422   3.250  15.179  1.1437  0.5702  0.2273
 9994TIP3    H251398   5.502   3.150  15.260  0.3282 -0.0095  0.3235
 9995TIP3   OH251399   1.951   5.287  11.751 -0.4557  0.1647  0.0718
 9995TIP3    H151400   1.924   5.196  11.757 -2.3036  0.7428  2.3697
 9995TIP3    H251401   2.045   5.284  11.738 -0.1012 -2.1332  2.3703
 9996TIP3   OH251402   1.140   4.937   5.859  0.1651  0.2129  0.1996
 9996TIP3    H151403   1.219   4.957   5.910  0.4954  0.2585 -0.3220
 9996TIP3    H251404   1.142   4.841   5.851  0.3321  0.2387 -0.0722
 9997TIP3   OH251405   4.663   2.879   0.388  0.1609 -0.0977 -0.1133
 9997TIP3    H151406   4.569   2.869   0.397 -0.6020  3.8953 -1.6195
 9997TIP3    H251407   4.677   2.890   0.294  1.9060  0.9794  0.2229
 9998TIP3   OH251408   6.736   1.462   4.110  0.3785  0.1317 -0.1511
 9998TIP3    H151409   6.782   1.379   4.095  0.6941 -0.0861  1.7497
 9998TIP3    H251410   6.658   1.437   4.159  0.4370  0.9484  0.3611
 9999TIP3   OH251411   0.047   6.280  16.499  0.5433 -0.5154  0.8113
 9999TIP3    H151412   0.057   6.217  16.428 -0.3577 -0.0320  0.2312
 9999TIP3    H251413   0.132   6.282  16.542  1.5348  0.1985 -1.1058
10000TIP3   OH251414   6.387   6.385  15.224  0.5354  0.3156 -0.6926
10000TIP3    H151415   6.391   6.452  15.155 -1.4803  1.1121 -0.0918
10000TIP3    H251416   6.308   6.335  15.204  1.0234 -0.7420 -0.0691
10001TIP3   OH251417   0.392   1.593   3.857 -0.0614  0.1322 -0.2940
10001TIP3    H151418   0.315   1.623   3.809  0.5696  0.6936 -0.9760
10001TIP3    H251419   0.449   1.670   3.863  0.0730 -0.0362  0.9901
10002TIP3   OH251420   4.307   1.564  13.564  0.1031 -0.5897  0.6045
10002TIP3    H151421   4.365   1.637  13.544 -1.1339  0.7884  1.8348
10002TIP3    H251422   4.278   1.533  13.478  1.2079 -0.1262  0.0366
10003TIP3   OH251423   0.722   2.001   2.758 -0.0073 -0.1104  0.9690
10003TIP3    H151424   0.770   2.008   2.840 -0.3907  0.0009  1.1852
10003TIP3    H251425   0.657   1.933   2.774  0.0061 -0.1850  0.7106
10004TIP3   OH251426   1.354   2.177  11.576 -0.2678 -0.0311 -0.5214
10004TIP3    H151427   1.296   2.101  11.579  1.6857 -1.6430 -0.6412
10004TIP3    H251428   1.369   2.193  11.483 -1.0488  0.8387 -0.5091
10005TIP3   OH251429   3.109   3.253   1.774  0.5707  0.2865  0.4802
10005TIP3    H151430   3.104   3.343   1.744 -0.1815  0.3146  0.6675
10005TIP3    H251431   3.153   3.206   1.703 -0.9506  0.3906 -0.5639
10006TIP3   OH251432   3.165   0.505  10.875 -0.1800  0.1035  0.7067
10006TIP3    H151433   3.179   0.560  10.952 -0.1914  1.0593  0.0473
10006TIP3    H251434   3.224   0.430  10.887  1.7119  1.4799  0.4448
10007TIP3   OH251435   2.661   1.261  15.542  0.1149  0.3009  0.4633
10007TIP3    H151436   2.659   1.342  15.491 -0.3122  0.1098  0.1679
10007TIP3    H251437   2.649   1.192  15.477  0.2789  0.0119  0.7387
10008TIP3   OH251438   1.982   4.661   2.152 -0.2465  0.0461 -0.2014
10008TIP3    H151439   1.990   4.701   2.239 -0.9725 -2.8850  1.3185
10008TIP3    H251440   1.912   4.710   2.110  0.2726  1.6702  0.7324
10009TIP3   OH251441   1.841   2.114  13.528 -0.3517  0.1509  0.0114
10009TIP3    H151442   1.935   2.122  13.511  0.3565 -2.0749  2.3487
10009TIP3    H251443   1.810   2.205  13.527  2.4925  1.3310  2.4225
10010TIP3   OH251444   2.826   6.119  15.907 -0.5155  0.2842  0.5451
10010TIP3    H151445   2.879   6.179  15.854 -0.2177 -0.9613 -0.6395
10010TIP3    H251446   2.842   6.145  15.997  1.9335  0.1298  0.2163
10011TIP3   OH251447   1.156   1.193   4.726 -0.0914 -0.2501 -0.2220
10011TIP3    H151448   1.135   1.199   4.633 -1.0565 -0.3599 -0.0205
10011TIP3    H251449   1.157   1.284   4.757 -0.9928 -0.2706 -0.0928
10012TIP3   OH251450   5.957   3.034   4.605 -0.5346  0.5398  0.2214
10012TIP3    H151451   6.028   2.970   4.612 -0.8872  0.0586 -0.5355
10012TIP3    H251452   5.996   3.115   4.637  0.4520  0.3480 -0.4300
10013TIP3   OH251453   1.179   0.591   2.310 -0.3175 -0.0320  0.2235
10013TIP3    H151454   1.132   0.645   2.246 -1.0677 -1.1138 -0.1734
10013TIP3    H251455   1.212   0.653   2.375  0.3672  1.0884 -1.1453
10014TIP3   OH251456   4.451   5.714  11.449 -0.4642  0.1212  0.1008
10014TIP3    H151457   4.374   5.718  11.505  0.4463  2.2147  1.3337
10014TIP3    H251458   4.423   5.755  11.367 -0.9336 -0.0578  0.1694
10015TIP3   OH251459   3.053   1.027  12.183 -0.0346  0.4183 -0.4745
10015TIP3    H151460   2.988   0.958  12.194  0.3216 -0.1546 -1.7025
10015TIP3    H251461   3.126   0.984  12.137  2.3093  0.3914  2.8854
10016TIP3   OH251462   4.576   5.603  13.804  0.0634 -0.2705 -0.4370
10016TIP3    H151463   4.631   5.579  13.879  0.1119  1.4949  0.1494
10016TIP3    H251464   4.635   5.603  13.729  1.3395  2.8957  0.3821
10017TIP3   OH251465   6.728   1.140  15.455  0.0931 -0.1808 -0.1677
10017TIP3    H151466   6.689   1.162  15.370 -0.6632 -2.2360 -0.4072
10017TIP3    H251467   6.653   1.122  15.512  0.6361 -0.6176  0.4114
10018TIP3   OH251468   6.716   2.935  13.960  0.2157  0.0746 -0.7872
10018TIP3    H151469   6.750   2.858  14.004 -0.3310  0.7913  0.9670
10018TIP3    H251470   6.621   2.928  13.969 -0.0279 -0.3863 -3.0123
10019TIP3   OH251471   0.695   3.768   4.032  0.2844 -0.3572 -0.4990
10019TIP3    H151472   0.603   3.784   4.053 -0.0217 -2.6236  0.0714
10019TIP3    H251473   0.743   3.813   4.102 -0.3883  0.3542 -0.4774
10020TIP3   OH251474   3.648   0.359   0.632  0.2507  0.1316  0.1575
10020TIP3    H151475   3.656   0.266   0.611  0.9532  0.3778 -0.7341
10020TIP3    H251476   3.574   0.389   0.579 -0.0625  0.0645  0.5475
10021TIP3   OH251477   4.920   4.474   2.336 -0.3778  0.3064  0.0869
10021TIP3    H151478   4.950   4.517   2.416  2.6978  1.5024 -1.5186
10021TIP3    H251479   4.942   4.382   2.347  0.7682  0.6024  0.3296
10022TIP3   OH251480   2.298   4.053  15.530 -0.3821 -0.5255  0.5009
10022TIP3    H151481   2.294   4.119  15.600  2.6861 -1.6807  1.9159
10022TIP3    H251482   2.303   3.969  15.576  0.4874 -1.4223 -1.1483
10023TIP3   OH251483   0.356   6.374   0.600  0.0797 -0.5866  0.1377
10023TIP3    H151484   0.422   6.439   0.624 -0.4054 -0.3490  0.8580
10023TIP3    H251485   0.275   6.405   0.642 -1.1647  0.5502 -2.8455
10024TIP3   OH251486   6.278   4.396  10.421  0.3878 -0.2564 -0.3581
10024TIP3    H151487   6.301   4.324  10.480 -1.2939 -1.1770 -0.7789
10024TIP3    H251488   6.257   4.354  10.338  1.7520  0.9491 -1.3747
10025TIP3   OH251489   6.645   3.821  14.455 -0.0434  0.6180  0.1485
10025TIP3    H151490   6.659   3.727  14.443  2.2890  0.8563  0.5613
10025TIP3    H251491   6.585   3.827  14.529  0.9632 -0.5469  1.0992
10026TIP3   OH251492   2.981   5.164   3.452  0.2551  0.0728  0.3232
10026TIP3    H151493   3.026   5.244   3.425  1.1608 -0.6200 -0.2744
10026TIP3    H251494   2.908   5.155   3.391  0.8933 -0.2109 -0.4211
10027TIP3   OH251495   0.613   6.487  13.433  0.3499 -0.2352 -0.5762
10027TIP3    H151496   0.697   6.533  13.423 -0.9616  2.1991 -1.1036
10027TIP3    H251497   0.569   6.498  13.349 -0.4750 -1.6492 -0.3681
10028TIP3   OH251498   0.167   1.209  16.150 -0.0058 -0.4599 -0.3239
10028TIP3    H151499   0.115   1.255  16.216 -2.3168  0.5007 -2.6457
10028TIP3    H251500   0.159   1.263  16.071  2.1193 -1.8705 -1.6163
10029TIP3   OH251501   1.282   0.463   3.432  0.1949 -0.3263 -0.6746
10029TIP3    H151502   1.278   0.545   3.384 -1.0446 -0.8651 -1.5333
10029TIP3    H251503   1.310   0.398   3.367  1.8032 -0.5074  0.1419
10030TIP3   OH251504   6.379   4.162  10.545 -0.3491 -0.4206  0.8760
10030TIP3    H151505   6.312   4.108  10.586  0.7581 -1.5282  1.2976
10030TIP3    H251506   6.461   4.119  10.567  0.3780 -0.5733 -1.7686
10031TIP3   OH251507   5.560   2.195  16.247  0.7645 -0.4413 -0.0984
10031TIP3    H151508   5.470   2.164  16.256 -0.2040  1.7454 -1.4341
10031TIP3    H251509   5.584   2.227  16.335  1.4911 -3.8546  1.0922
10032TIP3   OH251510   1.197   3.386   2.096 -0.4073  0.4055  0.4224
10032TIP3    H151511   1.247   3.465   2.076  1.7931 -0.9880  0.0322
10032TIP3    H251512   1.154   3.363   2.014  2.2757 -0.9689 -0.7299
10033TIP3   OH251513   1.499   4.314   0.425  0.1219 -0.4100 -0.1786
10033TIP3    H151514   1.515   4.272   0.341  2.6469  0.0136  0.0283
10033TIP3    H251515   1.495   4.407   0.405  3.4046 -0.0465  0.4017
10034TIP3   OH251516   1.392   0.173  11.947 -0.5361 -0.0571 -0.6936
10034TIP3    H151517   1.315   0.230  11.946 -0.8976 -0.5431 -1.2409
10034TIP3    H251518   1.459   0.222  11.900 -0.6532  0.1785 -0.6174
10035TIP3   OH251519   2.718   5.411  17.340 -0.1757 -0.1986 -0.0120
10035TIP3    H151520   2.790   5.465  17.308 -0.2917 -1.0855 -1.9239
10035TIP3    H251521   2.723   5.331  17.288 -1.6228 -0.9190  0.8856
10036TIP3   OH251522   0.083   1.036  17.116  1.1083 -0.3977 -0.5290
10036TIP3    H151523   0.100   0.963  17.056  1.6104 -0.1398 -0.6975
10036TIP3    H251524   0.056   1.108  17.059 -0.9558 -0.8917 -0.2647
10037TIP3   OH251525   6.167   6.285  13.415  0.4201 -0.0326 -0.2774
10037TIP3    H151526   6.155   6.343  13.341  0.4411  1.1801  0.6336
10037TIP3    H251527   6.173   6.197  13.377 -0.7340  0.4288 -1.5884
10038TIP3   OH251528   0.798   2.395  15.630  0.1079 -0.2432 -0.3288
10038TIP3    H151529   0.810   2.303  15.607  0.6541 -0.3765  0.4590
10038TIP3    H251530   0.885   2.434  15.624  0.1222 -0.0893  0.6127
10039TIP3   OH251531   6.452   5.639   2.945  0.3541  0.0814  0.0097
10039TIP3    H151532   6.390   5.584   2.993  0.2497  0.4771  0.3383
10039TIP3    H251533   6.537   5.619   2.983  0.1308  1.2110  1.1484
10040TIP3   OH251534   1.773   6.302  15.671 -0.3731 -0.3214  0.3516
10040TIP3    H151535   1.840   6.291  15.739 -0.2057 -1.1692  0.0718
10040TIP3    H251536   1.732   6.216  15.664 -1.3197  0.1190  0.3290
10041TIP3   OH251537   1.983   4.381  16.170 -0.0917 -0.3590  1.0816
10041TIP3    H151538   1.979   4.476  16.183 -1.2122 -0.3876  1.0718
10041TIP3    H251539   1.891   4.354  16.165  0.2026 -1.5546  1.8030
10042TIP3   OH251540   6.400   3.210   4.307 -0.1748 -0.0260 -0.2271
10042TIP3    H151541   6.488   3.173   4.299 -0.4323 -0.7111 -0.0336
10042TIP3    H251542   6.346   3.136   4.335 -0.8994  0.2699 -0.8087
10043TIP3   OH251543   5.991   5.595   6.069 -0.4758 -0.2691  0.1591
10043TIP3    H151544   5.989   5.616   6.163  0.6669  2.0466 -0.2522
10043TIP3    H251545   6.063   5.649   6.035 -1.3991 -0.4384 -2.1855
10044TIP3   OH251546   4.394   2.373   5.770  0.3085  0.2220 -0.3350
10044TIP3    H151547   4.361   2.306   5.831  1.4654  0.3783  0.5009
10044TIP3    H251548   4.315   2.410   5.730 -0.5018  0.1749  1.1412
10045TIP3   OH251549   0.363   1.948   5.256  0.5465  0.0516 -0.0073
10045TIP3    H151550   0.444   1.998   5.244  0.7689 -0.1552  0.5802
10045TIP3    H251551   0.392   1.862   5.286  0.0831  0.2756  1.1601
10046TIP3   OH251552   2.590   2.839  11.289  0.2960  0.3639  0.0794
10046TIP3    H151553   2.534   2.879  11.223  1.4831  0.7223 -0.7345
10046TIP3    H251554   2.648   2.781  11.239  0.5342 -0.1397  0.9223
10047TIP3   OH251555   3.989   5.702   5.277  0.2264  0.3065  0.0886
10047TIP3    H151556   4.048   5.634   5.246  1.4591  1.3860 -0.0258
10047TIP3    H251557   3.997   5.772   5.212 -0.0172  1.0832  0.8753
10048TIP3   OH251558   4.873   2.930   1.160  0.1009 -0.1188 -0.0556
10048TIP3    H151559   4.862   3.018   1.124  0.4766  0.6502  1.6291
10048TIP3    H251560   4.963   2.928   1.192  0.3679 -1.4271 -0.7927
10049TIP3   OH251561   5.266   3.163   3.141  1.0515 -0.6660 -0.5082
10049TIP3    H151562   5.350   3.187   3.180  0.6051 -1.2452  0.8692
10049TIP3    H251563   5.200   3.192   3.204  0.2633 -1.0168 -1.1440
10050TIP3   OH251564   0.056   1.815   5.329 -0.2892 -0.1904  0.3693
10050TIP3    H151565   0.043   1.729   5.289 -0.0339 -0.0218 -0.0847
10050TIP3    H251566  -0.024   1.863   5.308 -0.1896 -0.1288  0.1190
10051TIP3   OH251567   3.889   3.842  14.968 -0.2189  0.0956  0.2911
10051TIP3    H151568   3.847   3.780  14.908 -0.7456  0.9687 -0.2486
10051TIP3    H251569   3.817   3.893  15.006  0.3245  1.6777 -0.7215
10052TIP3   OH251570   3.742   0.617  12.966 -0.0562 -0.3758 -0.0011
10052TIP3    H151571   3.813   0.607  13.029  0.5095 -0.0526 -0.5688
10052TIP3    H251572   3.785   0.606  12.881 -0.5384  0.6462 -0.3890
10053TIP3   OH251573   4.827   3.267   4.718  0.1427  0.2352 -0.4491
10053TIP3    H151574   4.839   3.362   4.726 -1.1944  0.3737  0.2620
10053TIP3    H251575   4.801   3.239   4.806  0.2660 -0.7513 -0.7196
10054TIP3   OH251576   5.537   5.157   0.021 -0.1241  0.4691 -0.0127
10054TIP3    H151577   5.552   5.063   0.023  0.3186  0.5245 -0.3775
10054TIP3    H251578   5.501   5.178   0.107 -0.4280 -0.0647 -0.0079
10055TIP3   OH251579   0.006   5.791  15.456 -0.5228 -0.2328  0.2529
10055TIP3    H151580   0.046   5.849  15.521 -0.6517  1.6786 -1.2645
10055TIP3    H251581  -0.075   5.762  15.496 -0.3894  0.5407  1.1275
10056TIP3   OH251582   5.166   0.665  13.262  0.1616  0.2159  0.7340
10056TIP3    H151583   5.164   0.717  13.181  0.4061  0.3089  0.7868
10056TIP3    H251584   5.075   0.661  13.290 -0.2666 -1.6126 -0.6924
10057TIP3   OH251585   6.521   1.720   5.420  0.1494 -0.9086  0.1434
10057TIP3    H151586   6.507   1.772   5.340 -2.2750 -0.2294  0.9311
10057TIP3    H251587   6.497   1.631   5.395 -1.7410 -0.4972  0.3486
10058TIP3   OH251588   1.290   5.649   2.312  0.1337  0.4456 -0.2701
10058TIP3    H151589   1.346   5.578   2.343  0.4562  0.7715 -0.0959
10058TIP3    H251590   1.334   5.682   2.233  0.5413  1.1183  0.2202
10059TIP3   OH251591   6.178   4.807   1.230 -0.2238  0.3023  0.3564
10059TIP3    H151592   6.090   4.793   1.195  0.4304  0.4200 -1.4413
10059TIP3    H251593   6.180   4.755   1.310 -1.4885 -0.8242 -0.2977
10060TIP3   OH251594   4.822   3.953   5.988 -0.3161 -0.3064 -0.7369
10060TIP3    H151595   4.815   4.037   5.943 -1.8030  0.8122  1.4522
10060TIP3    H251596   4.759   3.958   6.059 -0.7240 -3.4343 -0.7267
10061TIP3   OH251597   4.964   2.885   5.204 -0.3758 -0.4638 -0.0728
10061TIP3    H151598   4.904   2.942   5.251  0.6883 -0.5145  1.4177
10061TIP3    H251599   5.034   2.943   5.174  0.5271 -0.8715  1.1384
10062TIP3   OH251600   3.286   2.663   0.701  0.3836  0.1279 -0.0996
10062TIP3    H151601   3.368   2.627   0.669  0.9737  1.8150 -0.5931
10062TIP3    H251602   3.254   2.598   0.764  2.0917 -0.5525  0.1202
10063TIP3   OH251603   4.021   1.498   5.431  0.4198 -0.1139 -0.2295
10063TIP3    H151604   4.042   1.491   5.338  0.9747 -2.6335  0.0138
10063TIP3    H251605   3.930   1.470   5.437  0.0913  0.9527 -0.0984
10064TIP3   OH251606   1.168   1.938  11.215 -0.0337 -1.5723  0.3561
10064TIP3    H151607   1.142   1.928  11.306 -1.5366  0.7655  0.2741
10064TIP3    H251608   1.092   1.910  11.164  0.2057 -1.3675 -0.1224
10065TIP3   OH251609   3.858   2.715  14.655 -0.2854 -0.5096 -0.0449
10065TIP3    H151610   3.820   2.785  14.602 -1.8976 -0.6363  0.8583
10065TIP3    H251611   3.952   2.729  14.650 -0.5121  0.9255 -0.9454
10066TIP3   OH251612   5.742   3.954   2.734  0.0518 -0.2852 -0.7692
10066TIP3    H151613   5.764   3.917   2.648  1.7370 -0.7892 -0.1493
10066TIP3    H251614   5.720   3.878   2.788 -1.7150  0.0818 -0.8974
10067TIP3   OH251615   1.957   0.657  12.201  0.3115 -0.1871  0.6394
10067TIP3    H151616   2.011   0.622  12.130 -0.4578 -1.0096  0.4452
10067TIP3    H251617   1.958   0.589  12.269 -2.5268 -1.4344 -0.4147
10068TIP3   OH251618   1.908   0.416   4.413  0.2319  0.0536 -0.7635
10068TIP3    H151619   1.971   0.436   4.483 -0.5420 -0.2661  0.0357
10068TIP3    H251620   1.827   0.460   4.440 -0.4961 -1.2680 -0.7272
10069TIP3   OH251621   6.448   6.033   0.595 -0.5234 -0.9764  0.1977
10069TIP3    H151622   6.405   6.116   0.615  1.0661 -0.8898  4.2847
10069TIP3    H251623   6.522   6.057   0.540 -0.1580  0.3475  1.2136
10070TIP3   OH251624   4.163   3.715  15.825  0.2944  0.1351  0.4890
10070TIP3    H151625   4.245   3.764  15.819  0.4243 -0.1573 -0.2591
10070TIP3    H251626   4.138   3.698  15.734 -1.9633  2.4557  0.5469
10071TIP3   OH251627   0.808   0.918   6.093 -0.1026 -0.6406  0.3512
10071TIP3    H151628   0.800   0.889   6.184 -3.3843 -2.9290 -0.4498
10071TIP3    H251629   0.859   0.850   6.050 -0.4157 -0.7268  0.1055
10072TIP3   OH251630   5.041   0.085   4.496 -0.1318  0.0590  0.1059
10072TIP3    H151631   5.020  -0.008   4.501 -1.3637  0.1986 -1.5947
10072TIP3    H251632   4.966   0.124   4.451  0.8437  1.7004 -0.1708
10073TIP3   OH251633   5.421   1.941  12.090 -0.2560 -0.3231 -0.2848
10073TIP3    H151634   5.423   1.864  12.148 -2.1086  0.5541  1.0459
10073TIP3    H251635   5.483   1.919  12.020  1.4549 -1.8015  1.5468
10074TIP3   OH251636   5.395   1.598   5.366 -0.2613 -0.0312 -0.0079
10074TIP3    H151637   5.404   1.594   5.461  2.3791  0.1326 -0.1889
10074TIP3    H251638   5.382   1.691   5.347 -0.3103 -0.0059  0.1437
10075TIP3   OH251639   4.221   4.667   3.247  0.1231  0.4732  0.3454
10075TIP3    H151640   4.179   4.749   3.276 -0.1946  0.4057  0.0889
10075TIP3    H251641   4.151   4.621   3.200 -0.0932 -0.5470  1.6069
10076TIP3   OH251642   3.157   1.233  17.306  0.0042 -0.7644 -0.2071
10076TIP3    H151643   3.073   1.257  17.267 -0.2959 -0.0641  0.8125
10076TIP3    H251644   3.135   1.169  17.373 -0.0249  0.8911  1.4650
10077TIP3   OH251645   4.638   3.562   2.913  0.2759  0.2100  0.1043
10077TIP3    H151646   4.664   3.483   2.959  1.5334  1.9687  2.6397
10077TIP3    H251647   4.715   3.618   2.915 -0.5473  1.5135 -1.6866
10078TIP3   OH251648   4.142   1.593   3.993 -0.4050  0.7533  0.1034
10078TIP3    H151649   4.230   1.560   4.008 -1.0388 -0.6571  0.8727
10078TIP3    H251650   4.139   1.677   4.040  0.3042  0.4704  0.6600
10079TIP3   OH251651   2.996   4.800  14.978  0.0018  0.4753  0.0775
10079TIP3    H151652   2.915   4.750  14.986  0.0458  0.6702  2.3687
10079TIP3    H251653   2.974   4.887  15.013  0.8576  0.9336 -0.4870
10080TIP3   OH251654   5.360   5.046   4.630  0.0375 -0.4012  0.0687
10080TIP3    H151655   5.356   5.132   4.588 -0.6802 -0.3599  0.2014
10080TIP3    H251656   5.335   5.063   4.721  0.8141 -0.6122  0.3286
10081TIP3   OH251657   1.436   0.859  16.377  0.1278 -0.8265 -0.1617
10081TIP3    H151658   1.422   0.850  16.471 -0.5058 -0.7859 -0.2489
10081TIP3    H251659   1.464   0.772  16.349 -1.1440 -1.2570 -0.1760
10082TIP3   OH251660   1.766   4.988   5.689  0.2335 -0.3378  0.2136
10082TIP3    H151661   1.749   5.026   5.603  1.4296 -0.6386 -0.1751
10082TIP3    H251662   1.698   5.026   5.745 -0.5372 -0.0976 -0.8376
10083TIP3   OH251663   3.215   1.363  15.523 -0.4196 -0.2555 -0.8815
10083TIP3    H151664   3.125   1.386  15.501 -0.0725  2.3839  0.0214
10083TIP3    H251665   3.216   1.361  15.619  0.3050 -1.1445 -0.8954
10084TIP3   OH251666   3.352   5.827  16.652  0.1296 -0.4397  0.1198
10084TIP3    H151667   3.297   5.760  16.612 -0.8423 -0.0585  0.7681
10084TIP3    H251668   3.439   5.788  16.656 -0.2636 -1.3732 -0.1882
10085TIP3   OH251669   1.929   3.355  14.670 -0.1215 -0.3638  0.2054
10085TIP3    H151670   1.941   3.442  14.706 -1.5879 -0.4207  0.9351
10085TIP3    H251671   2.016   3.328  14.641  0.1655  1.7937 -1.1495
10086TIP3   OH251672   3.209   3.592  12.763  0.4007  0.1807 -0.6113
10086TIP3    H151673   3.217   3.599  12.858  1.3860 -0.0554 -0.6708
10086TIP3    H251674   3.138   3.528  12.750  1.6422 -1.3859 -0.0009
10087TIP3   OH251675   5.606   4.920   0.089  0.0006 -0.2986 -0.2878
10087TIP3    H151676   5.533   4.880   0.136 -0.0504 -0.0171 -0.1289
10087TIP3    H251677   5.674   4.932   0.156  0.1226 -0.3806 -0.3948
10088TIP3   OH251678   1.701   0.018   3.234  0.1946  0.3842  0.1534
10088TIP3    H151679   1.756  -0.010   3.307 -0.4283 -0.4942  0.2917
10088TIP3    H251680   1.613  -0.012   3.257 -0.3246  1.5706 -0.1708
10089TIP3   OH251681   1.008   4.705   2.899 -0.0204 -0.0483  0.4884
10089TIP3    H151682   1.084   4.720   2.842  2.1310  0.0567  3.1661
10089TIP3    H251683   0.975   4.619   2.873  2.3873 -1.0745  0.5688
10090TIP3   OH251684   4.049   2.065  12.353 -0.1476  0.5453  0.5631
10090TIP3    H151685   4.066   1.971  12.343 -1.5961  0.4829 -2.5033
10090TIP3    H251686   4.114   2.107  12.296 -0.6969  1.2669  0.4586
10091TIP3   OH251687   0.109   1.748   5.722  0.5170  0.3952 -0.3307
10091TIP3    H151688   0.161   1.699   5.786  0.4299 -0.0515 -0.5926
10091TIP3    H251689   0.173   1.789   5.664  0.6090  1.2087  0.3288
10092TIP3   OH251690   4.966   0.074  13.126  0.2763  0.5758  0.5330
10092TIP3    H151691   4.947   0.081  13.033  1.0528  1.6897  0.4395
10092TIP3    H251692   5.058   0.050  13.130 -0.0203 -0.5690  1.0233
10093TIP3   OH251693   1.116   5.898   0.753 -0.0103 -0.0350 -0.0117
10093TIP3    H151694   1.126   5.821   0.808 -0.4521  0.1466  0.3262
10093TIP3    H251695   1.120   5.865   0.663 -0.7199 -0.5172  0.1306
10094TIP3   OH251696   6.208   4.538  10.894  0.0844 -0.1893  0.5014
10094TIP3    H151697   6.151   4.580  10.958  0.2634  3.5452 -1.5238
10094TIP3    H251698   6.155   4.533  10.815  0.5946 -2.6661  0.2287
10095TIP3   OH251699   2.325   4.593  16.628 -0.0391 -0.8906 -0.2987
10095TIP3    H151700   2.346   4.646  16.551  2.3821  1.3616  1.7196
10095TIP3    H251701   2.243   4.549  16.606 -0.3563  1.0091 -3.4469
10096TIP3   OH251702   1.467   3.572  16.328  0.4004 -0.0806 -0.0779
10096TIP3    H151703   1.380   3.543  16.354 -1.0877  3.3657 -0.5999
10096TIP3    H251704   1.527   3.509  16.369 -2.2811 -3.0220 -0.3187
10097TIP3   OH251705   1.943   3.815   0.367  0.0158  0.7435  0.5378
10097TIP3    H151706   1.912   3.864   0.291 -2.9445  0.3650  1.4028
10097TIP3    H251707   1.979   3.734   0.330  1.1574  1.7045 -0.5840
10098TIP3   OH251708   2.600   5.406   3.795  0.3854 -0.4140 -0.4549
10098TIP3    H151709   2.683   5.401   3.843  1.0824 -1.5465 -1.6897
10098TIP3    H251710   2.569   5.495   3.809  2.5315  0.4938 -1.0716
10099TIP3   OH251711   4.528   4.313  14.322  0.3744 -0.0817 -0.0300
10099TIP3    H151712   4.493   4.355  14.401  1.5264 -0.2314  0.5849
10099TIP3    H251713   4.620   4.342  14.318  0.3048  0.0032 -1.3819
10100TIP3   OH251714   2.222   3.068   4.320 -0.4043 -0.4259 -0.2613
10100TIP3    H151715   2.233   3.163   4.324 -0.3766 -0.4628  0.7558
10100TIP3    H251716   2.229   3.039   4.411 -0.3116 -1.4153 -0.5710
10101TIP3   OH251717   5.529   3.236   3.239  0.0305  0.4453  0.3852
10101TIP3    H151718   5.554   3.262   3.328 -0.4485  0.8211  0.4143
10101TIP3    H251719   5.586   3.288   3.182  0.0638  0.4978  0.4672
10102TIP3   OH251720   5.200   3.558  11.694 -0.5918  0.4455 -0.4316
10102TIP3    H151721   5.279   3.586  11.740 -1.4716 -1.1067  2.2687
10102TIP3    H251722   5.173   3.635  11.644  3.1529  0.7127 -2.4062
10103TIP3   OH251723   4.194   2.815  14.520  0.2514  0.1135 -0.1121
10103TIP3    H151724   4.209   2.798  14.427 -2.6647  0.0913 -0.6768
10103TIP3    H251725   4.168   2.907  14.523 -0.9332 -0.2261  0.4785
10104TIP3   OH251726   0.892   6.335  13.950  0.1957  0.2945 -0.1091
10104TIP3    H151727   0.892   6.249  13.992 -1.9164 -0.3593 -1.3477
10104TIP3    H251728   0.981   6.343  13.914  0.4401 -1.3603  0.0224
10105TIP3   OH251729   6.510   5.797  14.675  0.5486 -0.3585 -0.7119
10105TIP3    H151730   6.603   5.782  14.692  0.2114  0.1216  1.9931
10105TIP3    H251731   6.483   5.860  14.742 -1.5290  0.2416 -2.0242
10106TIP3   OH251732   1.887   0.557   2.639  0.6047  0.2895  0.1652
10106TIP3    H151733   1.826   0.508   2.694  0.9042  1.2544  1.3835
10106TIP3    H251734   1.905   0.498   2.566 -0.3695 -0.7305  0.7146
10107TIP3   OH251735   1.466   0.071   2.894 -0.1942  0.3029  0.4285
10107TIP3    H151736   1.387   0.114   2.924  0.6467 -0.0634  3.5218
10107TIP3    H251737   1.438  -0.017   2.867 -1.0188  0.7019 -0.0423
10108TIP3   OH251738   6.438   5.222   1.537  0.4334 -0.1797 -0.2952
10108TIP3    H151739   6.427   5.273   1.457 -0.9383  1.7897  1.0665
10108TIP3    H251740   6.375   5.151   1.529 -0.5962  0.7318 -0.4317
10109TIP3   OH251741   0.248   0.331   3.429 -0.6815 -1.0482 -0.3493
10109TIP3    H151742   0.320   0.364   3.483 -0.8463  1.1989 -1.4235
10109TIP3    H251743   0.285   0.321   3.342 -1.7553  0.7222 -1.0621
10110TIP3   OH251744   1.409   1.390   2.240 -0.1384  0.1366  0.0804
10110TIP3    H151745   1.349   1.389   2.165 -1.1270  0.7519  0.8301
10110TIP3    H251746   1.490   1.427   2.206 -0.5945  0.4685 -0.6723
10111TIP3   OH251747   6.667   6.168  11.473 -0.4145  0.6837 -0.1058
10111TIP3    H151748   6.637   6.240  11.417  0.6697  0.2797 -1.2529
10111TIP3    H251749   6.660   6.090  11.417  0.2185  0.1866  0.4957
10112TIP3   OH251750   2.592   4.859   3.397  0.0429 -0.9591  0.3037
10112TIP3    H151751   2.667   4.886   3.450 -0.0396 -1.1017  0.4959
10112TIP3    H251752   2.628   4.802   3.330  0.1361 -0.8466  0.2580
10113TIP3   OH251753   0.358   0.440   2.727  0.0368  0.5664  0.0845
10113TIP3    H151754   0.388   0.510   2.786 -0.7450  0.9822  0.0151
10113TIP3    H251755   0.295   0.484   2.670 -2.4904 -0.6825  1.7090
10114TIP3   OH251756   5.456   1.387  11.419  0.2607  0.3359 -0.0011
10114TIP3    H151757   5.478   1.306  11.374 -0.7082 -0.3714  0.7671
10114TIP3    H251758   5.403   1.360  11.493  2.6023  1.3596  2.2132
10115TIP3   OH251759   0.728   4.003   0.631  0.2072 -0.2572  0.5949
10115TIP3    H151760   0.760   4.053   0.706  0.3146  1.4711 -0.5258
10115TIP3    H251761   0.773   3.919   0.636  3.5167  1.3099  0.1984
10116TIP3   OH251762   1.309   4.769   0.455  0.5250  0.1704 -0.5237
10116TIP3    H151763   1.299   4.719   0.374 -1.1775 -1.1385  0.4227
10116TIP3    H251764   1.223   4.763   0.497  1.1901  1.3462  1.0879
10117TIP3   OH251765   4.127   3.296   5.448  0.1123  0.5215  0.4322
10117TIP3    H151766   4.151   3.235   5.378 -2.4363 -1.2966  0.9892
10117TIP3    H251767   4.210   3.319   5.489  1.2073 -3.1374  0.5915
10118TIP3   OH251768   1.609   6.181   2.814  0.1764  0.0469  0.0033
10118TIP3    H151769   1.700   6.166   2.790  0.6877  0.4469  1.5561
10118TIP3    H251770   1.581   6.252   2.756  1.0400  0.3234 -0.0944
10119TIP3   OH251771   4.572   1.475  17.373 -0.2929  0.6507  0.0887
10119TIP3    H151772   4.590   1.484  17.280  0.9057 -0.8231  0.1316
10119TIP3    H251773   4.494   1.528  17.388 -0.2410  1.2815 -1.6491
10120TIP3   OH251774   2.786   5.430  12.715  0.2158  0.2246 -0.4162
10120TIP3    H151775   2.881   5.438  12.726  0.3917 -0.8171 -1.0685
10120TIP3    H251776   2.762   5.355  12.770 -0.4008  1.1165  0.5652
10121TIP3   OH251777   4.679   5.616  15.697  0.2856  0.1901 -0.3706
10121TIP3    H151778   4.629   5.665  15.763  0.9949  0.5204 -0.0691
10121TIP3    H251779   4.616   5.601  15.626 -1.2511 -2.3010  1.3439
10122TIP3   OH251780   1.614   5.371   3.244  0.0808 -0.2337  0.3820
10122TIP3    H151781   1.524   5.398   3.264  1.1266  2.8351  1.4480
10122TIP3    H251782   1.606   5.325   3.160 -2.1772  2.5599 -1.1416
10123TIP3   OH251783   0.871   4.054  14.102  0.1834 -0.1509 -0.2104
10123TIP3    H151784   0.834   4.140  14.084 -0.6339 -0.6550 -1.0242
10123TIP3    H251785   0.798   3.993  14.089  1.2984 -1.1899 -2.0189
10124TIP3   OH251786   4.498   4.541  17.276 -0.2476 -0.4645 -0.1401
10124TIP3    H151787   4.555   4.467  17.296 -0.2106 -0.7272 -1.1815
10124TIP3    H251788   4.447   4.512  17.201 -0.9971  0.1714  0.1118
10125TIP3   OH251789   1.981   6.551  14.863  0.1988 -0.1427 -0.1230
10125TIP3    H151790   1.952   6.635  14.827 -0.5668 -0.2071  0.3259
10125TIP3    H251791   1.975   6.491  14.789  2.7831  0.6024 -1.0361
10126TIP3   OH251792   6.033   3.494   4.126 -0.1437  0.2321  0.3572
10126TIP3    H151793   6.106   3.460   4.074  0.6457  1.9615  0.2741
10126TIP3    H251794   6.075   3.537   4.200 -1.0949  0.9316  0.5004
10127TIP3   OH251795   3.333   2.906  13.520 -0.2794  0.0952 -0.1924
10127TIP3    H151796   3.328   2.925  13.614 -0.0050  1.0763 -0.3666
10127TIP3    H251797   3.311   2.813  13.514  2.1989 -0.6841  1.1162
10128TIP3   OH251798   4.850   3.585   0.175 -0.0046 -0.5027  0.3913
10128TIP3    H151799   4.804   3.655   0.220  2.2433  0.9782  0.5376
10128TIP3    H251800   4.923   3.563   0.233 -0.5289 -2.8635  0.2499
10129TIP3   OH251801   0.232   3.026   4.691  0.0335  0.0553 -0.2278
10129TIP3    H151802   0.320   3.055   4.667  0.0655  0.1937  0.0520
10129TIP3    H251803   0.236   3.015   4.786 -0.0180 -0.7313 -0.3148
10130TIP3   OH251804   6.545   3.709   1.032  0.1298  0.1186  0.2717
10130TIP3    H151805   6.615   3.738   1.089 -0.0713  0.0987  0.5313
10130TIP3    H251806   6.586   3.700   0.946  0.2962  0.7534  0.2766
10131TIP3   OH251807   4.521   5.051   1.131  0.2639  0.4691 -0.1633
10131TIP3    H151808   4.428   5.074   1.127  0.3485  1.3340  1.8564
10131TIP3    H251809   4.529   4.977   1.070 -1.9046 -0.1184  0.1531
10132TIP3   OH251810   1.937   5.861  11.582 -0.3423  0.0294 -0.4874
10132TIP3    H151811   1.909   5.775  11.612 -2.2658 -0.1690 -2.5773
10132TIP3    H251812   1.943   5.853  11.487 -1.4266  2.3788 -0.8336
10133TIP3   OH251813   6.303   2.169   2.410 -0.8135 -0.2288 -0.3711
10133TIP3    H151814   6.361   2.108   2.457  0.0976  0.7519 -0.1763
10133TIP3    H251815   6.263   2.222   2.478  1.4175  1.9989 -0.6581
10134TIP3   OH251816   4.862   5.666   2.287 -0.1057 -0.1587 -0.8858
10134TIP3    H151817   4.840   5.755   2.314  0.1469  0.0524 -1.3577
10134TIP3    H251818   4.879   5.674   2.193  2.0863 -0.2945 -0.5541
10135TIP3   OH251819   5.137   3.996  16.326  0.7745  0.5556 -0.3594
10135TIP3    H151820   5.173   3.909  16.309 -1.2017 -0.6242  1.0609
10135TIP3    H251821   5.053   3.996  16.281  0.5758  1.6020 -0.0118
10136TIP3   OH251822   4.022   3.501  12.219  0.7426  0.4315  0.1588
10136TIP3    H151823   3.956   3.571  12.213  1.5352  1.3432  1.5039
10136TIP3    H251824   4.025   3.464  12.131  0.1130  1.9375 -0.5432
10137TIP3   OH251825   4.163   5.755   6.100 -0.2458 -0.0156 -0.1701
10137TIP3    H151826   4.240   5.766   6.156 -0.7789  2.3378  0.1983
10137TIP3    H251827   4.102   5.704   6.153 -0.1840  0.9471  0.8759
10138TIP3   OH251828   5.188   4.265  11.939  0.9705 -0.0136 -0.1957
10138TIP3    H151829   5.134   4.316  11.879 -0.5756 -1.1974  0.1391
10138TIP3    H251830   5.133   4.191  11.963  2.7050 -1.1809  0.2961
10139TIP3   OH251831   6.514   4.066  15.261  1.0728  0.3176 -0.5769
10139TIP3    H151832   6.481   4.013  15.334  0.6543  2.2666  0.7294
10139TIP3    H251833   6.605   4.083  15.282  1.8703 -1.7023 -2.1477
10140TIP3   OH251834   0.267   4.529   5.522  0.7275 -0.0990  0.3452
10140TIP3    H151835   0.350   4.495   5.556  1.1846  3.0470  2.9435
10140TIP3    H251836   0.203   4.462   5.542  1.9651 -0.7445  2.4901
10141TIP3   OH251837   0.047   0.662  14.018  0.7886  0.4824  0.1542
10141TIP3    H151838   0.101   0.642  13.942  0.1471  0.1044 -0.2069
10141TIP3    H251839  -0.026   0.713  13.983 -0.2953 -0.9351  0.2587
10142TIP3   OH251840   6.741   4.149  12.381  0.2187  0.4762  0.1070
10142TIP3    H151841   6.651   4.119  12.375  0.7964 -1.2280 -0.8009
10142TIP3    H251842   6.771   4.154  12.291  1.5326 -0.7437  0.4314
10143TIP3   OH251843   5.252   4.943   4.921  0.1405  0.5485  0.0033
10143TIP3    H151844   5.160   4.928   4.944 -0.1174  0.6620 -0.9323
10143TIP3    H251845   5.301   4.901   4.991 -0.5962 -1.5250 -0.6521
10144TIP3   OH251846   5.897   1.624  12.641 -0.3313 -0.4669  0.4148
10144TIP3    H151847   5.847   1.706  12.639  0.7008  0.1842  0.3255
10144TIP3    H251848   5.987   1.652  12.656 -0.0665 -1.6501  1.1397
10145TIP3   OH251849   6.699   3.858   6.437  0.0391 -0.1460  0.5074
10145TIP3    H151850   6.627   3.806   6.472  1.7168 -2.9346  0.0899
10145TIP3    H251851   6.751   3.796   6.387 -0.0285  2.8085 -3.6810
10146TIP3   OH251852   0.099   6.265   1.055  0.4488 -0.6084 -0.3393
10146TIP3    H151853   0.017   6.219   1.074 -0.7119  0.3551 -2.6318
10146TIP3    H251854   0.167   6.211   1.096 -1.2044 -2.0789  0.6108
10147TIP3   OH251855   1.806   5.452  15.997 -0.5791  0.6330  0.0397
10147TIP3    H151856   1.808   5.369  16.045  0.0237  0.6371  0.0266
10147TIP3    H251857   1.714   5.465  15.976 -0.7629  0.2820  0.5950
10148TIP3   OH251858   1.425   6.539   2.222 -0.4315  0.2918 -0.2353
10148TIP3    H151859   1.487   6.491   2.277  0.3024 -0.6572 -1.8242
10148TIP3    H251860   1.436   6.501   2.135 -1.9083  1.4113 -0.9484
10149TIP3   OH251861   2.420   3.267  17.275  0.1675 -0.1691  0.6870
10149TIP3    H151862   2.356   3.307  17.334  0.0021  0.3635  0.1493
10149TIP3    H251863   2.465   3.341  17.234  1.5983 -0.5148  1.5457
10150TIP3   OH251864   6.040   3.729  16.316 -0.1200  0.2817  0.0404
10150TIP3    H151865   6.134   3.722  16.334 -0.3755 -1.1261  0.9335
10150TIP3    H251866   6.036   3.779  16.234  1.4347 -0.2144 -0.3838
10151TIP3   OH251867   0.601   0.818  15.677  0.2113  0.0116 -0.0811
10151TIP3    H151868   0.665   0.875  15.633 -2.0047  1.9377 -0.9957
10151TIP3    H251869   0.655   0.760  15.731  2.7192  1.6652 -0.6121
10152TIP3   OH251870   4.733   1.617  14.344 -0.2598  0.1823 -0.2062
10152TIP3    H151871   4.762   1.701  14.309  0.5555  0.1186  0.2825
10152TIP3    H251872   4.674   1.582  14.277  2.1476 -0.4931 -2.1524
10153TIP3   OH251873   0.074   4.865  10.962 -0.1448  0.1216 -0.2364
10153TIP3    H151874   0.139   4.842  10.896 -0.5076 -0.0991 -0.5193
10153TIP3    H251875   0.088   4.958  10.979  0.0987  0.1252 -0.4584
10154TIP3   OH251876   0.240   0.977   3.909 -0.1265 -0.1546  0.3246
10154TIP3    H151877   0.189   1.059   3.909  1.9892  1.2352 -0.2328
10154TIP3    H251878   0.252   0.956   4.001  2.0485  2.0476  0.6403
10155TIP3   OH251879   0.072   2.058  17.050 -1.2501  0.4795 -0.1622
10155TIP3    H151880   0.112   2.059  16.963 -1.3904  0.3453 -0.2306
10155TIP3    H251881   0.006   1.989  17.044 -0.4384 -0.3701  0.4289
10156TIP3   OH251882   0.471   1.075   0.535 -0.0332  0.5257 -0.2019
10156TIP3    H151883   0.379   1.066   0.507  0.1359 -1.5262 -0.2556
10156TIP3    H251884   0.467   1.081   0.630 -0.1769 -0.9752 -0.0948
10157TIP3   OH251885   0.898   5.343   4.582  0.1628  0.6482  0.7944
10157TIP3    H151886   0.970   5.332   4.520 -0.3406  0.4592  0.2242
10157TIP3    H251887   0.935   5.391   4.655  0.7515  0.9481  0.3027
10158TIP3   OH251888   6.043   4.623  11.088  0.2641 -0.1692  0.2051
10158TIP3    H151889   6.106   4.590  11.152  1.6543 -0.8701 -1.4647
10158TIP3    H251890   5.990   4.547  11.065  1.4538 -0.5784 -1.3424
10159TIP3   OH251891   3.461   3.308   6.409 -0.1766  0.0671  0.0889
10159TIP3    H151892   3.523   3.321   6.481  0.8770 -1.7674 -0.4082
10159TIP3    H251893   3.485   3.223   6.373 -0.8491  0.8005 -2.2595
10160TIP3   OH251894   1.221   6.308  13.191  0.7197 -0.4507 -0.1736
10160TIP3    H151895   1.297   6.260  13.225  2.0672  0.1358 -2.2223
10160TIP3    H251896   1.220   6.288  13.098 -0.8716  0.6229 -0.4081
10161TIP3   OH251897   2.455   2.410   6.106  0.3331 -0.5946  0.5351
10161TIP3    H151898   2.414   2.496   6.118 -1.7719 -1.7706  2.8686
10161TIP3    H251899   2.515   2.402   6.179 -0.4243 -1.5474  1.0796
10162TIP3   OH251900   2.070   5.968  12.789 -0.9139 -0.1745 -0.0428
10162TIP3    H151901   2.089   6.054  12.827  0.4625 -1.1398  1.6295
10162TIP3    H251902   2.119   5.967  12.707 -0.8673  0.6003 -0.0331
10163TIP3   OH251903   5.709   0.340   3.090 -0.3583 -0.2234 -0.0027
10163TIP3    H151904   5.754   0.348   3.006  0.0313 -0.1341  0.2096
10163TIP3    H251905   5.756   0.271   3.136 -1.5305 -1.3581 -0.4489
10164TIP3   OH251906   2.683   1.419  16.951 -0.0725  0.2013  0.5437
10164TIP3    H151907   2.603   1.395  16.904  0.4512  1.5033 -1.0904
10164TIP3    H251908   2.662   1.403  17.043 -1.4567 -1.5115 -0.0167
10165TIP3   OH251909   4.385   3.533  15.076 -0.2109 -0.1808  0.3909
10165TIP3    H151910   4.464   3.572  15.039  0.1123 -1.3425 -0.1780
10165TIP3    H251911   4.411   3.445  15.103 -1.1316 -0.3287  0.8462
10166TIP3   OH251912   3.814   3.999   4.685 -0.2129 -0.6014 -0.2992
10166TIP3    H151913   3.863   3.928   4.728 -0.2394 -0.9816 -0.8882
10166TIP3    H251914   3.765   3.955   4.616  0.0315  0.0412 -0.8896
10167TIP3   OH251915   6.663   3.237   4.690  0.0901 -0.0019  0.0172
10167TIP3    H151916   6.724   3.181   4.738 -0.1107 -0.9005 -0.7484
10167TIP3    H251917   6.578   3.219   4.729  0.1616  0.5104  0.4207
10168TIP3   OH251918   5.186   1.191  10.900  0.7262  0.2553 -0.2196
10168TIP3    H151919   5.104   1.238  10.918  0.4211 -0.8407  1.5162
10168TIP3    H251920   5.158   1.109  10.859  0.9263 -0.1600  0.4584
10169TIP3   OH251921   1.589   1.232   0.734  0.3144  0.2406  0.1621
10169TIP3    H151922   1.534   1.158   0.707  1.0969 -0.2704 -0.0796
10169TIP3    H251923   1.611   1.212   0.825 -0.4701  0.8062  0.4828
10170TIP3   OH251924   5.507   4.029  11.033 -0.5610  0.7627  0.0829
10170TIP3    H151925   5.495   3.937  11.009 -0.4397  0.9637 -0.7925
10170TIP3    H251926   5.542   4.070  10.953  2.2855  0.9555  1.2946
10171TIP3   OH251927   6.051   6.523  11.069  0.6795 -0.2792  0.1340
10171TIP3    H151928   6.131   6.474  11.047  1.5839  1.0571  0.3364
10171TIP3    H251929   6.061   6.545  11.161  0.0444 -0.1418  0.1754
10172TIP3   OH251930   1.658   1.135   2.309  0.0972 -0.0459 -0.0187
10172TIP3    H151931   1.604   1.083   2.368  1.2220 -0.2963  0.8230
10172TIP3    H251932   1.606   1.215   2.294 -1.3298 -1.0661 -0.7727
10173TIP3   OH251933   2.759   5.399   6.243 -0.0107 -0.5080  0.2198
10173TIP3    H151934   2.748   5.378   6.150  1.8554 -0.7717  0.0217
10173TIP3    H251935   2.846   5.439   6.248 -1.6808  3.4373  1.2284
10174TIP3   OH251936   5.115   1.085   2.976 -0.6432 -0.0021 -0.1590
10174TIP3    H151937   5.063   1.154   3.017 -0.3055  0.8083 -1.0592
10174TIP3    H251938   5.195   1.129   2.947  0.9517 -1.3471  1.8613
10175TIP3   OH251939   5.761   0.808   0.791  1.5277 -0.8361  0.3389
10175TIP3    H151940   5.738   0.739   0.729  1.9724  1.1094 -2.1642
10175TIP3    H251941   5.857   0.809   0.791  1.5263 -0.2582  0.3766
10176TIP3   OH251942   5.405   5.207  13.005 -0.0482  0.0528 -0.0187
10176TIP3    H151943   5.482   5.151  13.016 -0.0415 -0.1444 -1.0185
10176TIP3    H251944   5.393   5.246  13.091  0.7424 -0.4617  0.3476
10177TIP3   OH251945   3.603   2.321   4.773 -0.3265 -0.2826  0.1498
10177TIP3    H151946   3.661   2.324   4.849 -0.0831 -2.6825  0.1628
10177TIP3    H251947   3.638   2.386   4.713  1.1072 -0.2153  1.0085
10178TIP3   OH251948   5.907   2.055   2.831 -0.4145  0.1923 -0.0987
10178TIP3    H151949   5.816   2.070   2.857 -0.9156 -1.5664 -0.7068
10178TIP3    H251950   5.914   2.095   2.745 -1.3502 -1.7100 -1.1217
10179TIP3   OH251951   2.346   4.495  13.859 -0.6384 -0.3023  0.1622
10179TIP3    H151952   2.281   4.565  13.864 -1.3299 -0.8770 -0.4395
10179TIP3    H251953   2.295   4.414  13.857  0.1844 -0.9436  2.2676
10180TIP3   OH251954   4.431   6.271  16.679 -0.3304 -0.3859 -0.0592
10180TIP3    H151955   4.388   6.189  16.659  0.5193 -0.8804  0.0906
10180TIP3    H251956   4.394   6.299  16.762 -1.3897 -0.0601 -0.6171
10181TIP3   OH251957   4.179   5.443   6.516 -0.3056 -0.2051  0.6070
10181TIP3    H151958   4.112   5.512   6.514  0.2369  0.3127 -1.1697
10181TIP3    H251959   4.131   5.364   6.540 -1.4108  0.3030  0.1337
10182TIP3   OH251960   2.134   4.595   5.600 -0.4008 -0.1425 -0.7861
10182TIP3    H151961   2.173   4.543   5.530  1.9055  1.2924 -0.6551
10182TIP3    H251962   2.155   4.685   5.578  1.4363  0.3062  2.2545
10183TIP3   OH251963   6.581   1.127   3.396 -0.0589 -0.0046  0.8053
10183TIP3    H151964   6.613   1.210   3.431  0.0045  0.3006  0.0554
10183TIP3    H251965   6.660   1.077   3.375 -0.0502  0.6166 -0.7382
10184TIP3   OH251966   2.198   6.035   2.658 -0.2294 -0.8808  0.4714
10184TIP3    H151967   2.138   6.019   2.731 -0.8666 -0.5709  0.0258
10184TIP3    H251968   2.152   6.000   2.582 -0.3594  0.4000 -0.0531
10185TIP3   OH251969   1.017   1.578   3.315  0.0188  0.3367 -0.0840
10185TIP3    H151970   0.983   1.496   3.350 -0.3925 -0.2846 -1.8455
10185TIP3    H251971   0.959   1.599   3.242  1.5767  0.9057 -1.2120
10186TIP3   OH251972   5.309   4.951   5.868 -0.0043  0.3097 -0.4293
10186TIP3    H151973   5.343   5.033   5.903  0.4064  0.1307 -0.4040
10186TIP3    H251974   5.329   4.955   5.774  0.0538  0.2201 -0.4212
10187TIP3   OH251975   3.312   6.075   2.015  0.3785 -0.0687 -0.2661
10187TIP3    H151976   3.293   6.130   2.090  2.0240  0.7689 -0.4304
10187TIP3    H251977   3.257   6.110   1.944  0.3801  0.4571 -0.0059
10188TIP3   OH251978   6.645   0.873  14.333  0.0369  0.2956 -0.3321
10188TIP3    H151979   6.650   0.858  14.427 -1.0877  0.1811 -0.2759
10188TIP3    H251980   6.736   0.882  14.305  0.3365  1.6228  0.9640
10189TIP3   OH251981   2.191   4.203  13.355 -0.2996  0.2745 -0.3486
10189TIP3    H151982   2.149   4.221  13.271  0.6456  1.7242 -0.5453
10189TIP3    H251983   2.188   4.286  13.402 -1.4544 -0.6836  1.3843
10190TIP3   OH251984   5.733   5.935   3.757 -0.2371  0.0463  0.3265
10190TIP3    H151985   5.684   5.868   3.805 -1.7894  0.3148 -0.7857
10190TIP3    H251986   5.694   5.935   3.670  2.1782 -0.0981 -0.8350
10191TIP3   OH251987   0.620   5.133   6.217 -0.6068 -0.5678 -0.5486
10191TIP3    H151988   0.617   5.037   6.216  1.6848 -0.7350  1.1898
10191TIP3    H251989   0.673   5.155   6.140  0.0075 -0.8163 -0.2114
10192TIP3   OH251990   0.724   5.881  16.573  0.6282 -0.1606  0.1098
10192TIP3    H151991   0.641   5.834  16.568 -0.2017  1.3032 -0.3028
10192TIP3    H251992   0.719   5.929  16.656  1.7174 -1.2024  0.8151
10193TIP3   OH251993   3.452   3.210   1.444  0.0606  0.5035  0.3223
10193TIP3    H151994   3.430   3.207   1.351  1.4328 -0.5212  0.0043
10193TIP3    H251995   3.547   3.207   1.447  0.0210 -0.5541  1.7796
10194TIP3   OH251996   4.045   5.386  13.188 -0.1165  0.0615 -0.3856
10194TIP3    H151997   3.995   5.411  13.265  1.2263  0.6516  0.3411
10194TIP3    H251998   3.991   5.413  13.113 -1.0536  0.2661  0.3584
10195TIP3   OH251999   4.630   0.952  11.264  0.1001 -0.0741  0.1066
10195TIP3    H152000   4.698   0.898  11.303  2.3401  2.3355 -0.1633
10195TIP3    H252001   4.573   0.975  11.338  1.1971  0.1009  0.9230
10196TIP3   OH252002   6.107   2.735   3.113 -0.2158  0.6147  0.4442
10196TIP3    H152003   6.181   2.697   3.161 -1.7057 -1.0012  1.5780
10196TIP3    H252004   6.082   2.812   3.163 -0.6610 -0.0858  1.3262
10197TIP3   OH252005   0.303   6.547   3.905  0.3209  0.0585  0.0674
10197TIP3    H152006   0.291   6.508   3.819  0.6794  0.6205 -0.2451
10197TIP3    H252007   0.397   6.555   3.915  0.2673  0.4812  0.2821
10198TIP3   OH252008   2.151   4.920  14.375 -0.3163  0.3146  0.2975
10198TIP3    H152009   2.188   4.910  14.463 -1.5095  0.0485  0.7886
10198TIP3    H252010   2.099   5.000  14.379 -0.4449  0.2572 -0.1397
10199TIP3   OH252011   0.773   6.284   3.793  0.3885 -0.5201 -0.2312
10199TIP3    H152012   0.746   6.367   3.754  0.8299 -0.3566 -0.1847
10199TIP3    H252013   0.862   6.299   3.825 -0.8590  0.2264  3.3416
10200TIP3   OH252014   2.607   4.490   6.146 -0.2572 -0.5624  0.2207
10200TIP3    H152015   2.691   4.504   6.189  0.6377 -2.4236 -0.8348
10200TIP3    H252016   2.604   4.556   6.077  1.8070 -2.3138 -1.7232
10201TIP3   OH252017   6.431   5.469  13.560  0.0100 -0.2000  0.2633
10201TIP3    H152018   6.500   5.411  13.594 -1.0158 -0.4703  2.0152
10201TIP3    H252019   6.397   5.424  13.483  2.5360  0.5071 -1.3896
10202TIP3   OH252020   1.238   3.997   3.673 -0.1487 -0.1395  0.3758
10202TIP3    H152021   1.190   3.931   3.622  0.1476  2.0588 -3.1209
10202TIP3    H252022   1.171   4.055   3.708 -0.2988 -1.0643  1.6882
10203TIP3   OH252023   2.015   6.138   5.309  0.3349 -0.5020 -0.2353
10203TIP3    H152024   2.069   6.217   5.317  0.4593 -0.7084  1.3095
10203TIP3    H252025   1.985   6.139   5.218 -0.5060  1.8948 -0.0273
10204TIP3   OH252026   1.784   0.958   4.820 -0.0888  0.5085 -0.4244
10204TIP3    H152027   1.776   0.913   4.904 -0.2388  0.3168 -0.5396
10204TIP3    H252028   1.832   0.897   4.764 -0.8191  0.2232 -0.7662
10205TIP3   OH252029   3.202   1.527   4.814 -0.0533  0.1904  0.1684
10205TIP3    H152030   3.248   1.453   4.774 -0.6545  0.9184 -2.0056
10205TIP3    H252031   3.264   1.560   4.880  0.9310 -1.1734 -0.0236
10206TIP3   OH252032   4.412   2.801  15.294  0.2625  0.1186  0.2588
10206TIP3    H152033   4.379   2.883  15.258 -1.3162 -1.5165 -2.2670
10206TIP3    H252034   4.465   2.763  15.224 -0.9446 -2.0835  0.4573
10207TIP3   OH252035   1.527   2.361  16.775 -0.1910 -0.5737 -0.1088
10207TIP3    H152036   1.621   2.365  16.796 -0.3541  1.9099  0.4770
10207TIP3    H252037   1.525   2.347  16.680  0.8148  0.2323 -0.2749
10208TIP3   OH252038   4.567   3.558  12.512  0.5175  0.0898 -0.0665
10208TIP3    H152039   4.547   3.636  12.460 -2.3122 -0.1481  0.5409
10208TIP3    H252040   4.663   3.553  12.511  0.7252  2.7253 -1.3292
10209TIP3   OH252041   0.290   5.635  12.619  0.5761  0.1947 -0.5018
10209TIP3    H152042   0.343   5.576  12.566  0.6441 -0.1015 -0.1082
10209TIP3    H252043   0.351   5.674  12.681  0.7321  1.4705 -1.4114
10210TIP3   OH252044   2.236   5.498   3.988 -0.5264 -0.1522 -0.5692
10210TIP3    H152045   2.303   5.430   3.987  2.4445  2.1812  3.8548
10210TIP3    H252046   2.194   5.489   4.074 -1.5083  2.2845 -0.7134
10211TIP3   OH252047   5.793   0.083   3.783 -0.2192  0.0800  0.5467
10211TIP3    H152048   5.851   0.030   3.729 -0.1112 -0.6767  1.3932
10211TIP3    H252049   5.791   0.039   3.868 -0.8406  0.9301  0.9924
10212TIP3   OH252050   2.098   5.365   4.864  0.7025 -0.1850  0.1100
10212TIP3    H152051   2.171   5.338   4.921  0.5276  0.0766  0.4655
10212TIP3    H252052   2.075   5.452   4.896  1.8406  0.8037 -1.5760
10213TIP3   OH252053   0.537   3.235   4.810  0.2712  0.4982  0.1613
10213TIP3    H152054   0.550   3.328   4.830  0.2651  0.5719 -0.1778
10213TIP3    H252055   0.506   3.233   4.720 -0.3620  0.2067  0.3757
10214TIP3   OH252056   2.623   1.304   4.000  0.1780 -0.0165 -0.8190
10214TIP3    H152057   2.711   1.271   3.982  0.4182 -0.1656  0.4628
10214TIP3    H252058   2.583   1.234   4.053 -0.0419  0.8223  0.1577
10215TIP3   OH252059   4.592   1.507   6.472 -0.1637  0.2696  0.1636
10215TIP3    H152060   4.652   1.542   6.406  0.0845 -0.6992 -0.1513
10215TIP3    H252061   4.514   1.562   6.466  0.4279  1.1186  0.1056
10216TIP3   OH252062   5.891   2.018   5.856  0.7634 -0.5452  0.7789
10216TIP3    H152063   5.849   2.104   5.862  0.6286 -0.6184  0.9213
10216TIP3    H252064   5.864   1.983   5.771  1.1388 -0.2836  0.5466
10217TIP3   OH252065   3.159   3.461  11.720  0.5335 -0.2058  0.0672
10217TIP3    H152066   3.251   3.466  11.746  0.6311  0.5575 -0.4177
10217TIP3    H252067   3.111   3.495  11.796  0.6786 -0.0932  0.1090
10218TIP3   OH252068   2.194   1.216  15.886 -0.4534  0.2031 -0.1614
10218TIP3    H152069   2.217   1.264  15.806 -0.0317  1.9785  0.9549
10218TIP3    H252070   2.167   1.284  15.948 -1.1620 -1.1554  1.0846
10219TIP3   OH252071   0.036   2.488   1.755  0.5404 -0.0578  0.2678
10219TIP3    H152072   0.033   2.577   1.788  0.2522  0.5279 -1.2621
10219TIP3    H252073   0.007   2.495   1.664  0.0286 -1.7806  0.2597
10220TIP3   OH252074   1.223   4.619  13.623 -0.9163  0.3538  0.2360
10220TIP3    H152075   1.197   4.710  13.608 -0.9298  0.3860  0.4654
10220TIP3    H252076   1.170   4.569  13.560 -1.1330  0.4726  0.3240
10221TIP3   OH252077   5.066   3.108  11.192 -0.1798 -0.2584 -0.6011
10221TIP3    H152078   5.090   3.107  11.284 -0.4185  2.4543 -0.4363
10221TIP3    H252079   5.146   3.081  11.146 -0.3829 -2.7604  0.3665
10222TIP3   OH252080   6.474   5.989   4.321 -0.2773  0.0324  0.6810
10222TIP3    H152081   6.442   6.077   4.303 -0.0577  0.1143  0.6800
10222TIP3    H252082   6.401   5.931   4.300  0.6371 -0.1000 -2.6912
10223TIP3   OH252083   4.194   3.517   1.269 -0.1344  0.0142  0.5750
10223TIP3    H152084   4.191   3.430   1.309  0.1419 -0.2326  0.0642
10223TIP3    H252085   4.287   3.539   1.265 -0.2399  0.6476  1.3588
10224TIP3   OH252086   6.426   1.340   5.062 -0.2648 -0.0021 -0.1317
10224TIP3    H152087   6.375   1.348   5.143 -1.1570  0.5391 -0.7186
10224TIP3    H252088   6.405   1.420   5.014 -0.9581 -0.9969 -1.5565
10225TIP3   OH252089   0.245   1.583   3.255  0.7452  0.2259 -0.1063
10225TIP3    H152090   0.157   1.616   3.274  0.5776  0.9516 -1.9516
10225TIP3    H252091   0.303   1.657   3.272  1.0203 -0.2238  1.0171
10226TIP3   OH252092   5.880   6.128   5.635  0.1274  0.0211  1.0127
10226TIP3    H152093   5.932   6.187   5.689  2.3097  0.7139 -1.6374
10226TIP3    H252094   5.932   6.048   5.629  0.5477  0.3798 -0.9160
10227TIP3   OH252095   0.374   5.296  16.490  0.5514  0.3076  0.0835
10227TIP3    H152096   0.459   5.319  16.452  0.7927  0.6939  0.8460
10227TIP3    H252097   0.357   5.207  16.458  0.8195  0.5619 -0.7938
10228TIP3   OH252098   2.368   0.663   5.886  0.1031  0.2462 -0.5129
10228TIP3    H152099   2.399   0.647   5.797  1.1937 -2.6104  0.2569
10228TIP3    H252100   2.442   0.638   5.941 -1.1241  0.3294  1.2403
10229TIP3   OH252101   4.056   3.153  16.228 -0.1546 -0.2363  0.0890
10229TIP3    H152102   4.127   3.125  16.171  0.7024 -0.2966  1.1572
10229TIP3    H252103   4.026   3.073  16.272  0.9043  0.1350  1.5867
10230TIP3   OH252104   4.239   5.787   0.044  0.3448 -0.7075  0.1587
10230TIP3    H152105   4.318   5.804   0.096 -0.3406 -0.6555  1.1927
10230TIP3    H252106   4.211   5.874   0.015  1.0914 -0.7877 -0.8823
10231TIP3   OH252107   1.585   3.108  13.650  0.5785  0.0792 -0.2525
10231TIP3    H152108   1.550   3.056  13.577  0.6456  0.6743 -0.7164
10231TIP3    H252109   1.552   3.064  13.728 -0.7966  0.3193 -0.6693
10232TIP3   OH252110   5.867   0.340  12.104 -0.1585  0.1286  0.6859
10232TIP3    H152111   5.910   0.275  12.161 -0.8562  0.1631  1.2566
10232TIP3    H252112   5.940   0.388  12.065  0.3837 -1.1510  0.0663
10233TIP3   OH252113   0.308   0.187  11.801 -0.1340 -0.7840  0.2759
10233TIP3    H152114   0.357   0.112  11.835 -0.1692 -1.1566 -0.4845
10233TIP3    H252115   0.362   0.221  11.730  0.5574  0.7724  1.4727
10234TIP3   OH252116   5.833   4.926  16.272 -0.6253  0.1123  0.1560
10234TIP3    H152117   5.785   4.851  16.307 -1.1758  0.0434 -0.7302
10234TIP3    H252118   5.766   4.982  16.234 -0.2586  1.2407  1.1042
10235TIP3   OH252119   0.929   0.401   2.011 -0.3041  0.5339  0.1807
10235TIP3    H152120   0.936   0.412   2.106  0.5415 -0.6391  0.2882
10235TIP3    H252121   0.925   0.306   1.999 -2.4818  0.7122 -0.8644
10236TIP3   OH252122   0.212   4.057   2.812  0.2074  0.1303 -0.4799
10236TIP3    H152123   0.299   4.065   2.852 -0.4226  0.8671  0.8274
10236TIP3    H252124   0.227   4.074   2.719  1.3673  0.9505 -0.1721
10237TIP3   OH252125   5.115   5.326  11.082  0.4847  0.7148 -0.1537
10237TIP3    H152126   5.163   5.362  11.007 -0.9852  1.0866 -0.9648
10237TIP3    H252127   5.034   5.377  11.085  0.0998  0.0785  1.1274
10238TIP3   OH252128   5.468   4.831  16.397 -0.2791 -0.2920 -0.2362
10238TIP3    H152129   5.522   4.901  16.435 -1.9669  0.2882  1.2307
10238TIP3    H252130   5.445   4.864  16.310 -0.4152  0.6460  0.1409
10239TIP3   OH252131   4.771   0.947   1.387  0.3379 -0.8528  0.3849
10239TIP3    H152132   4.727   0.891   1.323 -0.9943 -0.5643  0.9927
10239TIP3    H252133   4.804   0.887   1.453  0.8143 -1.0748 -0.0501
10240TIP3   OH252134   1.507   1.087  11.538  0.0440 -0.8123 -0.2196
10240TIP3    H152135   1.464   1.038  11.608 -1.8895 -0.3444 -1.0192
10240TIP3    H252136   1.518   1.175  11.574  0.0809 -0.8581 -0.1177
10241TIP3   OH252137   2.877   3.682   1.420  0.6417 -0.9196  0.4663
10241TIP3    H152138   2.794   3.672   1.465  1.4744 -1.0306  2.0536
10241TIP3    H252139   2.854   3.691   1.327 -1.0573 -1.9852  0.7451
10242TIP3   OH252140   6.039   3.265   1.424  0.0870 -0.0270 -0.4056
10242TIP3    H152141   5.985   3.265   1.345  0.3686 -0.4900 -0.6021
10242TIP3    H252142   6.102   3.195   1.410 -1.0759 -1.4464  1.0864
10243TIP3   OH252143   0.311   4.360  10.567  0.5317  0.3721 -0.1218
10243TIP3    H152144   0.398   4.356  10.606 -0.9125 -0.7638  3.3474
10243TIP3    H252145   0.289   4.453  10.568  0.7646  0.4364  1.4160
10244TIP3   OH252146   4.333   5.899   5.337 -0.0904  0.2995  0.7008
10244TIP3    H152147   4.281   5.937   5.408  0.0274  1.9456 -0.0645
10244TIP3    H252148   4.414   5.871   5.379 -0.5721 -0.0127  1.4514
10245TIP3   OH252149   1.116   6.657   0.758 -0.3560  0.4405 -0.2603
10245TIP3    H152150   1.194   6.656   0.704  0.2351 -0.2516  0.5842
10245TIP3    H252151   1.149   6.656   0.848 -1.3306 -1.3985  0.1168
10246TIP3   OH252152   5.497   1.489  16.065 -0.0333 -0.2019  0.7345
10246TIP3    H152153   5.466   1.410  16.021  0.0045  0.6541 -0.9040
10246TIP3    H252154   5.421   1.546  16.068 -0.1232 -0.3756  2.1422
10247TIP3   OH252155   5.156   3.443   4.130  0.6443 -0.4084 -0.2223
10247TIP3    H152156   5.215   3.417   4.201  0.7842 -1.3517 -0.6668
10247TIP3    H252157   5.213   3.453   4.054  0.5205  0.7872 -0.1696
10248TIP3   OH252158   0.141   0.864   4.162 -0.3808 -0.6190  0.4098
10248TIP3    H152159   0.045   0.869   4.156 -0.3803  1.5944  1.1516
10248TIP3    H252160   0.159   0.774   4.188 -2.2826 -1.0389  0.4279
10249TIP3   OH252161   2.605   4.244  16.047  0.5980 -0.3184  0.3497
10249TIP3    H152162   2.677   4.307  16.056  1.1761 -1.1794  2.3532
10249TIP3    H252163   2.611   4.213  15.957  2.3606  0.0986  0.2878
10250TIP3   OH252164   3.158   1.480  11.361  0.0785  0.3857 -0.7627
10250TIP3    H152165   3.093   1.521  11.304  0.0828  0.7524 -0.5052
10250TIP3    H252166   3.217   1.551  11.386 -0.2801  0.3630  0.1893
10251TIP3   OH252167   5.957   0.584  16.734 -0.1037 -0.1949  0.4915
10251TIP3    H152168   6.009   0.661  16.755 -0.2077  0.3259 -1.0501
10251TIP3    H252169   5.920   0.556  16.818  2.5595 -0.5496  1.6235
10252TIP3   OH252170   5.805   2.773  12.734  0.2878  0.2772  0.3527
10252TIP3    H152171   5.870   2.768  12.664 -0.1164 -0.7673  0.0250
10252TIP3    H252172   5.773   2.863  12.731  1.3961  0.6840  0.2339
10253TIP3   OH252173   4.426   6.466  11.975 -0.2192 -0.0684 -0.2567
10253TIP3    H152174   4.519   6.467  11.955 -0.1788 -1.3214 -0.1911
10253TIP3    H252175   4.420   6.489  12.068  0.0844 -0.7122 -0.0753
10254TIP3   OH252176   2.697   4.540  12.024 -0.0423  0.0097  0.2858
10254TIP3    H152177   2.763   4.537  11.954  0.4452  1.4876  0.6477
10254TIP3    H252178   2.748   4.541  12.105 -0.5599 -0.0739  0.6129
10255TIP3   OH252179   0.254   0.337  16.199 -0.8359 -0.2192 -0.3805
10255TIP3    H152180   0.327   0.336  16.137 -0.7699  0.7158 -0.3325
10255TIP3    H252181   0.178   0.362  16.146 -1.0276 -0.7012 -0.3344
10256TIP3   OH252182   1.893   3.105  11.929 -0.1795 -0.1927  0.3736
10256TIP3    H152183   1.905   3.072  12.017 -0.9928  2.1159  1.4315
10256TIP3    H252184   1.852   3.033  11.881  2.6501 -2.4254  1.0567
10257TIP3   OH252185   6.413   4.157   1.740 -0.2474 -0.4623 -1.1114
10257TIP3    H152186   6.415   4.077   1.687 -0.6391 -0.8641 -0.5435
10257TIP3    H252187   6.490   4.207   1.713  1.8460 -2.4670  0.7324
10258TIP3   OH252188   3.620   2.734  13.424  0.4106 -0.0125 -0.9488
10258TIP3    H152189   3.667   2.800  13.374  0.7156 -0.2841 -1.0268
10258TIP3    H252190   3.674   2.655  13.416 -0.1949 -0.4029 -1.2703
10259TIP3   OH252191   3.275   4.090   0.804  0.1204  0.0514  0.1212
10259TIP3    H152192   3.361   4.116   0.836  0.2730  0.7278 -0.7799
10259TIP3    H252193   3.233   4.046   0.878  1.1444 -0.0658  0.6423
10260TIP3   OH252194   6.017   1.628  13.005 -0.0821  0.2766  0.0667
10260TIP3    H152195   6.074   1.628  13.083 -0.2343  1.7787  0.2150
10260TIP3    H252196   6.076   1.606  12.933  0.6725  1.5406  0.2601
10261TIP3   OH252197   2.331   2.427   3.240 -0.6874  0.0645 -0.1723
10261TIP3    H152198   2.289   2.512   3.228  0.0514  0.2036 -2.1384
10261TIP3    H252199   2.415   2.447   3.281 -0.9666  0.1500  0.3730
10262TIP3   OH252200   4.464   5.058   2.490 -0.1096  0.5793 -0.5127
10262TIP3    H152201   4.519   5.135   2.476  0.6616  0.6538  2.2616
10262TIP3    H252202   4.376   5.093   2.504 -0.2482  0.7257 -1.6824
10263TIP3   OH252203   6.426   4.932   1.819  0.2316 -0.1952 -0.0958
10263TIP3    H152204   6.344   4.968   1.851  0.1037  0.4245 -1.0651
10263TIP3    H252205   6.406   4.904   1.729  1.2592  0.6586 -0.6170
10264TIP3   OH252206   3.268   5.324   5.391 -0.1141  0.2690  0.3866
10264TIP3    H152207   3.243   5.316   5.299 -1.4682  0.9739  0.6589
10264TIP3    H252208   3.360   5.349   5.389 -0.5197  1.8603 -0.8524
10265TIP3   OH252209   2.325   4.918   0.125  0.1917 -0.5734 -0.3788
10265TIP3    H152210   2.237   4.956   0.114  0.8240  0.9640 -0.4033
10265TIP3    H252211   2.350   4.942   0.215  0.1123 -2.0874  0.0758
10266TIP3   OH252212   5.307   6.666  11.017 -0.2887 -0.1709 -0.2743
10266TIP3    H152213   5.381   6.611  11.042  0.1420  0.7285  0.4672
10266TIP3    H252214   5.232   6.624  11.059  0.0016 -0.3234  0.1034
10267TIP3   OH252215   5.222   4.507   4.997  0.1901  0.3761  0.4657
10267TIP3    H152216   5.154   4.524   4.932 -0.8147 -1.0871  1.0715
10267TIP3    H252217   5.247   4.415   4.982  0.2814  0.1607  1.8140
10268TIP3   OH252218   1.606   0.744   0.062 -0.1440  0.4419  0.0110
10268TIP3    H152219   1.575   0.654   0.074  0.7476  0.3338  1.7952
10268TIP3    H252220   1.536   0.786   0.011 -0.9639 -1.0223 -0.1487
10269TIP3   OH252221   2.593   4.763   1.784  0.0914  0.3813 -0.4005
10269TIP3    H152222   2.574   4.819   1.709 -0.7770  1.0895  0.3233
10269TIP3    H252223   2.653   4.696   1.750  2.4549  2.6039 -0.9799
10270TIP3   OH252224   2.994   3.537   3.532  0.3501 -0.6154  0.5364
10270TIP3    H152225   2.908   3.498   3.542  0.6098 -0.8668  2.1676
10270TIP3    H252226   2.985   3.599   3.460 -1.3088 -0.3151  0.9730
10271TIP3   OH252227   3.841   2.404   0.900 -0.8053 -0.3099  0.0456
10271TIP3    H152228   3.776   2.403   0.830 -2.3778  1.5059  1.3640
10271TIP3    H252229   3.857   2.497   0.917  1.4634 -0.7119  0.4136
10272TIP3   OH252230   3.466   0.853  16.048 -0.1235  0.1531  0.4373
10272TIP3    H152231   3.437   0.785  15.987  0.5754  0.4702 -0.2645
10272TIP3    H252232   3.532   0.811  16.102 -2.1361 -0.7272  2.3905
10273TIP3   OH252233   5.005   2.374   6.600  0.2341 -0.6180  0.2180
10273TIP3    H152234   4.919   2.402   6.631  0.3295  1.3540 -1.1490
10273TIP3    H252235   5.041   2.322   6.672 -0.7875  1.2095  2.1585
10274TIP3   OH252236   4.867   3.499   3.185 -0.2746  0.4474  0.1038
10274TIP3    H152237   4.882   3.545   3.267  0.7107 -0.6544  0.5750
10274TIP3    H252238   4.784   3.452   3.199 -0.6567  1.0972  0.0630
10275TIP3   OH252239   6.693   0.434  14.473  0.3904  0.1749 -0.0268
10275TIP3    H152240   6.745   0.472  14.402 -0.9007  0.0282 -1.0945
10275TIP3    H252241   6.605   0.467  14.458 -0.9420 -3.4091 -1.2741
10276TIP3   OH252242   6.629   3.374  11.814  1.0740  0.0735 -0.5337
10276TIP3    H152243   6.622   3.278  11.808 -0.6819  0.1188  0.0887
10276TIP3    H252244   6.592   3.406  11.732 -3.7965  0.2407  1.3850
10277TIP3   OH252245   2.708   2.767   1.580 -0.5642 -0.4087 -0.2567
10277TIP3    H152246   2.727   2.854   1.545  3.6268 -0.7204  0.7637
10277TIP3    H252247   2.700   2.781   1.675  1.8626 -1.2496  0.1304
10278TIP3   OH252248   0.884   4.984  14.540 -0.8166 -0.2450  0.1976
10278TIP3    H152249   0.828   5.060  14.555 -2.7180 -1.2867 -1.2229
10278TIP3    H252250   0.933   5.006  14.461 -1.5366 -0.5763 -0.3456
10279TIP3   OH252251   2.749   4.477  11.364  0.0351  0.5310 -0.0170
10279TIP3    H152252   2.749   4.441  11.276  0.4580 -0.7784  0.5008
10279TIP3    H252253   2.841   4.496  11.382  0.1030 -0.2801  0.5504
10280TIP3   OH252254   6.718   4.130  13.139  0.3380 -0.5439 -0.6007
10280TIP3    H152255   6.710   4.098  13.049  0.7178  1.8900 -1.5775
10280TIP3    H252256   6.629   4.127  13.173  0.2909 -2.1310 -0.7882
10281TIP3   OH252257   2.983   4.864  11.700 -0.1594  0.3421  0.1211
10281TIP3    H152258   3.007   4.956  11.703 -0.1524  0.3427  0.0440
10281TIP3    H252259   2.948   4.851  11.612  0.8104  0.0349 -0.2385
10282TIP3   OH252260   3.394   1.238  13.687 -0.2666 -0.9350 -0.8170
10282TIP3    H152261   3.348   1.159  13.656 -1.1585 -0.2394 -1.3162
10282TIP3    H252262   3.418   1.284  13.606  0.5554 -0.8544 -0.5364
10283TIP3   OH252263   2.892   1.935  14.320  0.2139 -0.1296  0.0374
10283TIP3    H152264   2.951   1.953  14.246 -1.3253 -1.0450 -1.4803
10283TIP3    H252265   2.950   1.904  14.389  1.5382 -0.9437 -1.3686
10284TIP3   OH252266   2.110   4.018  12.957 -0.0702  0.4681  0.4672
10284TIP3    H152267   2.030   4.008  12.905  0.4737  2.1036 -0.8154
10284TIP3    H252268   2.170   4.064  12.898  1.7316 -0.4749  1.4879
10285TIP3   OH252269   3.044   5.390  11.197  0.2982 -0.5676 -0.2410
10285TIP3    H152270   3.068   5.338  11.121 -0.6408 -0.7965 -0.3895
10285TIP3    H252271   2.956   5.360  11.220  0.4863 -0.3543  0.8068
10286TIP3   OH252272   0.532   0.604  14.684  0.7281  0.4776  0.1352
10286TIP3    H152273   0.462   0.558  14.730  0.5395  0.9334  0.3103
10286TIP3    H252274   0.596   0.536  14.664  0.7738  0.2590  0.9956
10287TIP3   OH252275   0.948   6.690   4.894  0.2874 -0.2556  0.2617
10287TIP3    H152276   0.969   6.781   4.875 -0.1211 -0.1064  0.5030
10287TIP3    H252277   0.935   6.650   4.808  0.1252 -0.0011  0.1654
10288TIP3   OH252278   0.259   3.752   2.416  0.3522 -0.3186 -0.0064
10288TIP3    H152279   0.255   3.846   2.400 -0.5397 -0.4903 -0.8493
10288TIP3    H252280   0.178   3.732   2.462  1.5999 -0.3082  2.3570
10289TIP3   OH252281   5.098   6.221  13.707 -0.1402 -0.1572 -0.1150
10289TIP3    H152282   5.172   6.272  13.676 -0.7307 -0.2332 -1.7578
10289TIP3    H252283   5.046   6.203  13.628 -1.2440 -1.1705  0.7922
10290TIP3   OH252284   0.419   4.704   5.823  0.0781 -0.5139 -0.0369
10290TIP3    H152285   0.410   4.757   5.745  1.4357 -0.1326  0.0404
10290TIP3    H252286   0.344   4.729   5.878 -0.7291 -0.5881 -1.0682
10291TIP3   OH252287   3.596   5.327  12.487 -0.1654 -0.3425 -0.1695
10291TIP3    H152288   3.598   5.311  12.393 -3.0197  1.0378 -0.5674
10291TIP3    H252289   3.623   5.419  12.496  0.9662 -0.7213  0.4762
10292TIP3   OH252290   1.335   3.206  17.189  0.1327 -0.4945  0.3225
10292TIP3    H152291   1.340   3.271  17.259  1.8887 -0.8736  0.6090
10292TIP3    H252292   1.259   3.152  17.211 -0.7798  0.8587  0.5890
10293TIP3   OH252293   4.894   1.503  15.005  0.5181  0.4593  0.3203
10293TIP3    H152294   4.895   1.449  15.084  0.4682  1.2091  0.8513
10293TIP3    H252295   4.886   1.441  14.933 -1.6163 -0.1334  1.0148
10294TIP3   OH252296   6.196   6.251  13.952  0.4273 -0.0845  0.5399
10294TIP3    H152297   6.190   6.187  14.023  0.8476 -1.0460 -0.2584
10294TIP3    H252298   6.174   6.201  13.873 -0.7581  1.1273  0.0578
10295TIP3   OH252299   4.671   2.720   6.005  0.3216 -0.2305 -0.3355
10295TIP3    H152300   4.763   2.741   6.019  0.5158 -0.5636 -1.0725
10295TIP3    H252301   4.657   2.641   6.057  0.6801 -0.6822 -0.9213
10296TIP3   OH252302   4.557   3.346   0.960  0.6943  0.4545 -0.5358
10296TIP3    H152303   4.546   3.279   0.892  0.5406  0.9912 -1.0446
10296TIP3    H252304   4.578   3.426   0.912  0.3338  0.8991  0.0375
10297TIP3   OH252305   3.707   5.959   3.306  0.0033  0.2290 -0.1210
10297TIP3    H152306   3.762   5.975   3.382  1.6038 -1.9533 -0.7428
10297TIP3    H252307   3.652   6.037   3.299  0.8380  1.1055  2.3730
10298TIP3   OH252308   2.131   4.205   2.589 -0.2818 -0.4191  0.1291
10298TIP3    H152309   2.094   4.118   2.577 -0.8499 -0.0060 -1.4062
10298TIP3    H252310   2.134   4.242   2.500  2.6439  0.0503  0.3207
10299TIP3   OH252311   1.494   2.254  14.168 -0.5900 -0.0883  0.5526
10299TIP3    H152312   1.488   2.193  14.095 -0.8205  2.4538 -1.7394
10299TIP3    H252313   1.404   2.260  14.201 -1.1859  0.9890 -1.0823
10300TIP3   OH252314   3.214   5.051  12.264 -0.1999  0.6464  0.0147
10300TIP3    H152315   3.206   4.970  12.214  2.5481  0.1762  0.2145
10300TIP3    H252316   3.238   5.117  12.199  0.7666  0.5974  0.3179
10301TIP3   OH252317   1.141   0.448   5.017 -0.4702 -0.1609  0.4910
10301TIP3    H152318   1.093   0.528   5.037  0.6273  0.1470  2.1533
10301TIP3    H252319   1.122   0.390   5.091 -0.8109 -1.2310 -0.4250
10302TIP3   OH252320   6.087   2.311   5.109  0.0835  0.1542  0.7062
10302TIP3    H152321   6.178   2.306   5.081 -0.0929  0.4814  0.0724
10302TIP3    H252322   6.090   2.288   5.202  0.7816 -0.0526  0.6402
10303TIP3   OH252323   6.564   2.507  17.318  0.0729 -0.4104  0.1517
10303TIP3    H152324   6.520   2.422  17.317  3.2207 -2.1913 -0.6194
10303TIP3    H252325   6.572   2.531  17.225  0.3265  0.0903  0.3004
10304TIP3   OH252326   1.999   4.818   3.254 -0.1229  0.1104  0.0174
10304TIP3    H152327   1.991   4.728   3.286  0.7139  0.0871  0.1800
10304TIP3    H252328   1.955   4.871   3.321 -1.3867 -0.2341 -0.5001
10305TIP3   OH252329   4.195   3.512   3.670  0.1976  0.7893  0.1553
10305TIP3    H152330   4.247   3.592   3.670 -1.5485  2.0173 -1.5285
10305TIP3    H252331   4.259   3.442   3.678  1.9438  2.2766 -0.0557
10306TIP3   OH252332   0.568   1.019  14.412 -0.4868  0.1805 -0.0474
10306TIP3    H152333   0.626   0.944  14.400  0.1590  0.6106  0.2779
10306TIP3    H252334   0.554   1.024  14.507 -1.6646 -0.3554 -0.1810
10307TIP3   OH252335   1.763   5.054  13.861 -0.7126  0.1485  0.3919
10307TIP3    H152336   1.787   5.068  13.769 -1.0442  0.0532  0.2916
10307TIP3    H252337   1.781   4.961  13.876 -0.6745  0.1602  0.4209
10308TIP3   OH252338   2.587   1.553  14.404  0.0115 -0.3678 -0.4913
10308TIP3    H152339   2.580   1.566  14.309  0.2750  1.7478 -0.2659
10308TIP3    H252340   2.504   1.585  14.439 -0.1183 -1.2171  0.0106
10309TIP3   OH252341   5.470   2.471   4.309 -0.1372 -0.3409  0.2318
10309TIP3    H152342   5.452   2.424   4.390 -0.6956 -0.4219  0.0642
10309TIP3    H252343   5.468   2.404   4.241  1.9700 -0.5669  0.3179
10310TIP3   OH252344   4.309   2.398  13.297 -0.2532 -0.1935 -0.1412
10310TIP3    H152345   4.234   2.341  13.318 -0.2447 -0.1745 -0.0572
10310TIP3    H252346   4.309   2.462  13.368  0.9276 -1.2518  0.8598
10311TIP3   OH252347   3.485   0.023   6.337 -0.6259 -0.5009 -0.5565
10311TIP3    H152348   3.574  -0.010   6.325  0.3562  1.1828  1.4308
10311TIP3    H252349   3.487   0.111   6.301 -0.6338  0.5707  1.8385
10312TIP3   OH252350   6.748   3.166  14.634 -0.0813 -0.6343 -0.6690
10312TIP3    H152351   6.654   3.182  14.632  0.0916  0.4796 -0.9950
10312TIP3    H252352   6.780   3.222  14.705  0.4138 -0.4464 -1.0308
10313TIP3   OH252353   4.012   2.954  10.956 -0.2664  0.0660 -0.4701
10313TIP3    H152354   4.080   3.005  10.913 -0.8023 -1.1890 -3.0225
10313TIP3    H252355   4.039   2.863  10.945 -0.5988 -0.3407  1.6937
10314TIP3   OH252356   1.318   6.646  11.824  0.2692 -0.3159  0.7539
10314TIP3    H152357   1.360   6.593  11.891  1.8277  0.6961  0.6376
10314TIP3    H252358   1.325   6.736  11.857 -2.2836 -0.1066  0.9447
10315TIP3   OH252359   1.639   3.406   1.682  0.6273 -0.1831  0.1077
10315TIP3    H152360   1.559   3.453   1.708  1.1209 -0.5770  2.5305
10315TIP3    H252361   1.617   3.313   1.694  0.7840 -0.4322 -1.3239
10316TIP3   OH252362   5.880   6.160   5.239  0.0039  0.3555  0.5009
10316TIP3    H152363   5.930   6.215   5.178  1.5747 -2.5222 -0.9805
10316TIP3    H252364   5.946   6.117   5.293 -1.0974 -0.7619  1.0136
10317TIP3   OH252365   4.287   2.010   1.284 -0.1061 -0.1301 -0.5395
10317TIP3    H152366   4.345   2.080   1.316 -1.9492  1.4242 -0.4278
10317TIP3    H252367   4.214   2.056   1.244 -0.3242 -2.0469 -2.5177
10318TIP3   OH252368   6.117   5.300   2.882 -0.0633 -0.1817  0.5670
10318TIP3    H152369   6.149   5.215   2.852 -0.7673 -0.3456  0.2612
10318TIP3    H252370   6.054   5.279   2.951  0.0267  0.1093  0.7375
10319TIP3   OH252371   4.565   5.109   5.958  0.1690  0.0746 -0.2072
10319TIP3    H152372   4.516   5.189   5.976 -0.5672 -0.6066  0.8995
10319TIP3    H252373   4.559   5.098   5.863 -1.3250  0.3348 -0.1628
10320TIP3   OH252374   5.005   3.519  16.652  0.5562  0.4499  0.4125
10320TIP3    H152375   5.060   3.459  16.602  0.3158 -0.0778  0.7866
10320TIP3    H252376   5.056   3.540  16.730  1.1412  1.6521 -0.2475
10321TIP3   OH252377   4.248   3.782  14.369 -0.1666 -0.1546  0.3374
10321TIP3    H152378   4.260   3.749  14.280 -1.7055  0.1126 -0.0115
10321TIP3    H252379   4.297   3.864  14.372 -1.2484  0.5709 -0.7592
10322TIP3   OH252380   5.083   3.904  13.811 -0.4830 -0.1701  0.1002
10322TIP3    H152381   5.111   3.936  13.896  0.2217  0.3965 -0.3298
10322TIP3    H252382   5.147   3.836  13.789  0.4477  0.9219 -0.7506
10323TIP3   OH252383   0.950   4.874   4.485 -0.5588  0.0581 -0.4310
10323TIP3    H152384   0.940   4.968   4.466  0.0849  0.2832  0.2809
10323TIP3    H252385   0.982   4.836   4.403  3.1066  1.1643  0.3180
10324TIP3   OH252386   3.653   1.029   6.256  0.2253  0.2563  0.1360
10324TIP3    H152387   3.579   1.078   6.291 -0.4593  1.0627 -2.2081
10324TIP3    H252388   3.665   1.064   6.167  1.0736 -2.3761 -0.8995
10325TIP3   OH252389   3.835   0.655  14.388 -0.1133 -0.3332 -0.0628
10325TIP3    H152390   3.874   0.655  14.475  0.8500 -1.6862 -0.4611
10325TIP3    H252391   3.884   0.588  14.339 -0.8490  0.1525 -1.5426
10326TIP3   OH252392   2.346   2.008  13.107 -0.6265 -0.1142 -0.0807
10326TIP3    H152393   2.393   1.935  13.066 -0.1756 -0.1996  0.5644
10326TIP3    H252394   2.366   1.999  13.200 -0.3945  0.9640 -0.0188
10327TIP3   OH252395   6.135   2.929  17.003  0.0268 -0.4744  0.0515
10327TIP3    H152396   6.220   2.929  17.048  1.1593  0.0517 -1.9714
10327TIP3    H252397   6.116   2.837  16.988  0.9728 -0.5483 -0.7550
10328TIP3   OH252398   0.220   1.057  13.133 -0.9616 -0.1225  0.0117
10328TIP3    H152399   0.314   1.053  13.149 -0.9727 -2.4071 -0.2649
10328TIP3    H252400   0.180   1.057  13.220 -0.7410 -1.9702  0.1495
10329TIP3   OH252401   0.796   5.212  14.962  0.9286 -0.1545  0.0371
10329TIP3    H152402   0.834   5.132  14.996 -0.6572 -1.0765 -0.2324
10329TIP3    H252403   0.828   5.281  15.019  2.1043 -1.0049  0.4396
10330TIP3   OH252404   6.367   4.360   1.168  0.0688 -0.2066 -0.6600
10330TIP3    H152405   6.401   4.330   1.253 -0.1029  0.8803 -0.1884
10330TIP3    H252406   6.426   4.431   1.142  0.1675 -0.5856 -1.4974
10331TIP3   OH252407   3.263   1.249   5.125 -0.1319  0.3219  0.3094
10331TIP3    H152408   3.243   1.218   5.037 -2.1706  0.2005  0.7836
10331TIP3    H252409   3.335   1.310   5.112 -0.3209  0.2340 -1.4250
10332TIP3   OH252410   2.755   4.865   6.004  0.2370  0.5210  0.5620
10332TIP3    H152411   2.823   4.829   6.060 -0.3497  0.4415  1.2259
10332TIP3    H252412   2.737   4.952   6.041  0.5505  0.8772 -0.1010
10333TIP3   OH252413   4.171   5.021   4.283 -0.0812 -0.2163  0.0002
10333TIP3    H152414   4.150   5.082   4.211 -0.4549 -0.4085 -0.0585
10333TIP3    H252415   4.242   5.064   4.330 -0.8417  0.6402  0.4092
10334TIP3   OH252416   2.606   4.243   5.139  0.5332 -0.2041 -0.4808
10334TIP3    H152417   2.633   4.321   5.187 -0.3837  0.0102 -0.2844
10334TIP3    H252418   2.550   4.195   5.200  1.1639 -1.0668 -0.5679
10335TIP3   OH252419   0.381   0.672   5.224 -0.0498  0.1508 -0.0071
10335TIP3    H152420   0.416   0.595   5.179 -0.9827 -0.2777 -0.0250
10335TIP3    H252421   0.439   0.685   5.299  1.4680  0.7980 -1.2221
10336TIP3   OH252422   1.925   2.560  13.649 -0.0606  0.3073 -0.5253
10336TIP3    H152423   1.913   2.555  13.744  0.1073  0.6906 -0.4821
10336TIP3    H252424   2.019   2.552  13.636 -0.0330  0.7512 -0.6234
10337TIP3   OH252425   1.928   0.735  15.284  1.1630  0.3005  0.5522
10337TIP3    H152426   2.022   0.715  15.275  1.8501  3.1120  0.4894
10337TIP3    H252427   1.920   0.767  15.374  0.1679 -0.2164  0.6564
10338TIP3   OH252428   3.311   6.185  11.161  0.2353  0.3935  0.1431
10338TIP3    H152429   3.309   6.097  11.198  0.5681 -0.6425 -2.1303
10338TIP3    H252430   3.235   6.189  11.103  0.1309  1.6924  0.3278
10339TIP3   OH252431   6.751   2.253  11.421 -0.5276  0.2386 -0.2472
10339TIP3    H152432   6.841   2.286  11.424 -0.5626  0.4674 -1.3174
10339TIP3    H252433   6.699   2.327  11.388 -1.0597  0.0082  0.0549
10340TIP3   OH252434   6.210   5.726   5.901  0.0402 -0.4006  0.3895
10340TIP3    H152435   6.305   5.738   5.906 -0.0361  0.1338  0.5635
10340TIP3    H252436   6.195   5.692   5.812  0.2617  0.7946 -0.1219
10341TIP3   OH252437   1.734   1.969   3.951  0.1293 -0.0671  0.1834
10341TIP3    H152438   1.694   1.938   4.033  0.3150 -1.7045 -0.3112
10341TIP3    H252439   1.824   1.991   3.975 -0.2236  0.8805  0.7018
10342TIP3   OH252440   5.091   6.105   1.150  0.9449 -0.0467 -0.1612
10342TIP3    H152441   5.128   6.105   1.238  0.2317 -0.8050  0.1515
10342TIP3    H252442   5.126   6.185   1.110  1.7854 -0.0201  0.5830
10343TIP3   OH252443   4.830   6.695  14.654 -0.3336 -0.0423  0.4999
10343TIP3    H152444   4.836   6.716  14.560 -1.1527  3.0752  1.0163
10343TIP3    H252445   4.921   6.679  14.680 -0.0789 -0.8594 -0.7758
10344TIP3   OH252446   5.640   4.811  12.765  0.5697 -0.2755  0.6831
10344TIP3    H152447   5.579   4.743  12.737  0.5800  0.2399 -0.6394
10344TIP3    H252448   5.712   4.805  12.703 -0.1470  1.9546 -0.4717
10345TIP3   OH252449   4.012   1.768  12.370 -0.3453  0.1306 -0.4518
10345TIP3    H152450   3.971   1.724  12.295 -2.4943  1.7923 -0.3544
10345TIP3    H252451   3.984   1.716  12.446 -1.5369  0.6958 -0.4781
10346TIP3   OH252452   4.616   3.394   3.447  0.3849  0.3529  0.2323
10346TIP3    H152453   4.685   3.402   3.513  1.7365  0.7280 -1.1737
10346TIP3    H252454   4.623   3.304   3.415  0.9883  0.7354 -0.7209
10347TIP3   OH252455   2.554   0.624   1.452  0.0778  0.4341 -0.2051
10347TIP3    H152456   2.463   0.639   1.478  1.1627  1.6053  3.6486
10347TIP3    H252457   2.585   0.710   1.423  0.0683  0.1134 -1.1880
10348TIP3   OH252458   4.850   2.554  13.574 -0.1002  0.1292  0.0017
10348TIP3    H152459   4.761   2.521  13.587  0.0359 -0.0088  0.6004
10348TIP3    H252460   4.842   2.649  13.584  0.0893  0.0016  1.7577
10349TIP3   OH252461   5.330   5.918  11.577  0.0572  0.2147  0.4184
10349TIP3    H152462   5.249   5.919  11.526 -0.4111 -1.4520  1.0818
10349TIP3    H252463   5.395   5.879  11.519 -0.2852 -0.9410  0.7849
10350TIP3   OH252464   6.336   2.999   6.017 -0.0714 -0.0625 -0.0332
10350TIP3    H152465   6.269   2.931   6.021  0.4436 -0.5586  0.3494
10350TIP3    H252466   6.288   3.079   5.997 -0.3923 -0.9799 -3.5207
10351TIP3   OH252467   5.478   3.050  16.608  0.4704 -0.0520 -0.1893
10351TIP3    H152468   5.443   3.025  16.694 -0.4842  0.0108 -0.5512
10351TIP3    H252469   5.530   2.974  16.581  2.0616  0.5188  1.1007
10352TIP3   OH252470   0.024   0.417   3.551 -0.2590 -0.2681  0.0641
10352TIP3    H152471   0.109   0.400   3.512 -0.0180 -1.1750  0.9306
10352TIP3    H252472   0.032   0.385   3.641 -0.8545  1.5341  0.8142
10353TIP3   OH252473   4.370   3.891   2.236 -0.4743 -0.0418 -0.2350
10353TIP3    H152474   4.387   3.805   2.274  1.4738 -0.5087 -1.9793
10353TIP3    H252475   4.348   3.946   2.311  1.1081 -1.3985  1.3110
10354TIP3   OH252476   2.809   3.869   0.815 -0.2464 -0.4346 -0.4847
10354TIP3    H152477   2.763   3.883   0.898  0.2015  4.4840 -0.7543
10354TIP3    H252478   2.896   3.907   0.829 -0.1267  0.4557 -3.1271
10355TIP3   OH252479   3.017   0.912  17.260 -0.1094 -0.1157 -0.1139
10355TIP3    H152480   2.969   0.992  17.281  1.5209  1.0056 -0.4374
10355TIP3    H252481   3.087   0.941  17.202  0.8327 -1.6934  0.1763
10356TIP3   OH252482   1.989   0.012   4.935 -0.4043 -0.1649  0.5335
10356TIP3    H152483   1.930   0.080   4.967 -0.6264  0.0003 -0.2012
10356TIP3    H252484   2.023  -0.030   5.014 -0.5674  0.5388  0.9849
10357TIP3   OH252485   5.810   1.602   4.480 -0.3301 -0.2523 -0.1010
10357TIP3    H152486   5.770   1.658   4.413  0.1456  0.1106 -0.0943
10357TIP3    H252487   5.903   1.625   4.476 -0.2736 -0.3550  0.5657
10358TIP3   OH252488   5.727   4.012  15.660 -0.2399  0.1644 -0.1877
10358TIP3    H152489   5.647   4.062  15.650 -0.4224 -0.1429 -0.2827
10358TIP3    H252490   5.763   4.039  15.745 -1.0697 -0.5848  0.4130
10359TIP3   OH252491   6.296   3.870  13.536  1.3821  0.2158 -0.2923
10359TIP3    H152492   6.375   3.908  13.498  1.6867  1.3061  1.3487
10359TIP3    H252493   6.315   3.861  13.629 -0.4611  0.6402  0.1808
10360TIP3   OH252494   1.124   3.082  15.080 -0.3574  0.4501 -0.5109
10360TIP3    H152495   1.158   3.138  15.011 -1.6841  0.9977 -0.7492
10360TIP3    H252496   1.134   3.133  15.160  0.3218  0.1884 -0.4222
10361TIP3   OH252497   3.157   0.335   0.068  0.7222 -0.2957 -0.6220
10361TIP3    H152498   3.098   0.272   0.111  2.4009 -0.6330  1.3173
10361TIP3    H252499   3.228   0.281   0.034  2.4311  0.5187  1.4801
10362TIP3   OH252500   4.300   0.667  17.236  0.4283 -0.9627  0.3204
10362TIP3    H152501   4.353   0.588  17.229  0.1037 -1.4503  2.5013
10362TIP3    H252502   4.255   0.658  17.321 -0.2143  1.1929  0.2684
10363TIP3   OH252503   0.104   2.948  17.158 -0.7124  0.3227 -0.7694
10363TIP3    H152504   0.176   2.989  17.111  0.8287 -2.4115 -0.9695
10363TIP3    H252505   0.112   2.981  17.248  0.8159  0.0334 -0.7805
10364TIP3   OH252506   5.053   4.238  11.285 -0.1479 -0.1646 -0.0378
10364TIP3    H152507   5.115   4.165  11.281  0.9911  0.7993 -0.6581
10364TIP3    H252508   5.107   4.316  11.277 -1.2924  0.7911  1.0894
10365TIP3   OH252509   1.201   3.028   2.041  0.3392 -0.4217  0.1231
10365TIP3    H152510   1.187   3.063   1.953 -1.4913 -1.7236 -0.1791
10365TIP3    H252511   1.275   2.969   2.032  1.0162  0.4678 -0.2254
10366TIP3   OH252512   3.639   1.229   0.086  0.2301  0.1944  0.1652
10366TIP3    H152513   3.696   1.296   0.123  1.7838 -0.0717 -1.6045
10366TIP3    H252514   3.572   1.278   0.038  0.8727  0.4961 -0.4300
10367TIP3   OH252515   4.807   5.880   5.308 -0.4744 -0.4134 -0.0579
10367TIP3    H152516   4.793   5.896   5.401  0.9019 -0.2838  0.1498
10367TIP3    H252517   4.879   5.817   5.305  0.0536  0.2077 -1.0412
10368TIP3   OH252518   5.474   6.743  15.636 -0.1183 -0.0526  0.0203
10368TIP3    H152519   5.470   6.827  15.681  1.0086 -0.2540  0.5310
10368TIP3    H252520   5.472   6.678  15.706  0.2976 -0.4081 -0.2941
10369TIP3   OH252521   5.186   5.260   5.535  0.0719 -0.1310  0.3556
10369TIP3    H152522   5.263   5.316   5.526  0.7379 -1.0380  0.2193
10369TIP3    H252523   5.139   5.270   5.452  0.0466  0.4194  0.4342
10370TIP3   OH252524   6.438   2.159   5.064 -0.3703  0.4790 -0.2520
10370TIP3    H152525   6.485   2.193   5.140  0.4350  1.2551 -1.0587
10370TIP3    H252526   6.393   2.236   5.028 -1.3164 -0.0249 -0.1536
10371TIP3   OH252527   5.795   4.702  13.246  0.2847 -0.4122  0.2566
10371TIP3    H152528   5.805   4.689  13.340 -0.7732 -0.3861  0.3829
10371TIP3    H252529   5.802   4.614  13.209  0.8652 -0.4024  0.3400
10372TIP3   OH252530   1.030   3.753   5.155 -0.2710 -0.8061 -0.1630
10372TIP3    H152531   1.031   3.757   5.251 -0.1965  0.2453 -0.1952
10372TIP3    H252532   0.949   3.796   5.130 -0.6260 -1.6889 -0.5585
10373TIP3   OH252533   4.489   2.097   2.130  0.1559 -0.2032  0.0968
10373TIP3    H152534   4.428   2.168   2.151 -1.0007 -0.9350 -0.6499
10373TIP3    H252535   4.458   2.023   2.183  0.8440 -0.3879  0.2465
10374TIP3   OH252536   4.964   5.683  12.983  0.2242 -0.9605 -0.4069
10374TIP3    H152537   5.006   5.725  12.908 -0.2307 -1.8171 -1.1610
10374TIP3    H252538   5.023   5.613  13.009 -0.0861 -1.2956 -0.5973
10375TIP3   OH252539   0.853   4.447  15.641  0.1816 -0.3105 -0.2485
10375TIP3    H152540   0.825   4.484  15.724 -0.5740 -0.2373 -0.5256
10375TIP3    H252541   0.870   4.355  15.660  0.0029 -0.2945 -0.0060
10376TIP3   OH252542   0.983   3.934  13.502  0.6118 -0.1473 -0.0746
10376TIP3    H152543   0.963   4.024  13.475  0.2865  0.0834  0.9191
10376TIP3    H252544   1.023   3.943  13.588  2.7171 -0.7896 -0.9041
10377TIP3   OH252545   4.028   0.616   5.819  0.5158  0.0904  0.3126
10377TIP3    H152546   3.951   0.670   5.802  0.3445 -0.5398 -0.9803
10377TIP3    H252547   4.079   0.620   5.738  0.6543 -1.4352  0.3053
10378TIP3   OH252548   4.825   5.406   2.239  0.4550  0.4026 -0.7518
10378TIP3    H152549   4.903   5.370   2.197  0.1023  0.3994 -1.4247
10378TIP3    H252550   4.844   5.499   2.250  0.3239  0.5225 -1.4770
10379TIP3   OH252551   1.537   2.547   3.268  0.1232  0.0988 -0.2352
10379TIP3    H152552   1.569   2.471   3.317  0.9216  0.9726  0.6612
10379TIP3    H252553   1.601   2.559   3.197 -2.2793 -2.5910 -3.1068
10380TIP3   OH252554   0.031   4.461  16.338  0.4362 -0.8667 -0.6688
10380TIP3    H152555  -0.053   4.449  16.294 -0.5251 -0.6844  1.0484
10380TIP3    H252556   0.084   4.387  16.310 -0.8502 -1.8617 -0.5424
10381TIP3   OH252557   5.189   0.814   4.227  0.1736 -0.4887 -0.0470
10381TIP3    H152558   5.272   0.861   4.223  0.1455 -0.4957 -1.0232
10381TIP3    H252559   5.214   0.721   4.228  0.1849 -0.4866 -0.1255
10382TIP3   OH252560   0.110   0.953  14.754 -0.2441  0.4496 -0.0849
10382TIP3    H152561   0.195   0.929  14.791 -0.0872  1.2254  0.0581
10382TIP3    H252562   0.053   0.965  14.831 -0.4060  0.2340 -0.1683
10383TIP3   OH252563   1.634   0.098  13.559  0.3786 -0.2191 -0.2715
10383TIP3    H152564   1.627   0.003  13.568  1.7641 -0.4759 -1.5307
10383TIP3    H252565   1.592   0.117  13.475 -2.4548  0.6985  1.2105
10384TIP3   OH252566   2.561   0.665  16.309 -0.3587 -0.0153  0.1553
10384TIP3    H152567   2.591   0.736  16.365  1.3052 -0.5750  0.0198
10384TIP3    H252568   2.474   0.643  16.342 -1.2095  2.5186 -0.2248
10385TIP3   OH252569   2.990   4.782   3.052 -0.2990 -0.5320  0.8313
10385TIP3    H152570   2.911   4.830   3.026  0.8460  0.0642 -1.8487
10385TIP3    H252571   3.020   4.827   3.131 -0.9426  1.2555  0.1129
10386TIP3   OH252572   2.611   6.055  11.700 -0.0033  0.0173 -0.0228
10386TIP3    H152573   2.537   6.028  11.646 -0.5667  1.5238 -0.0494
10386TIP3    H252574   2.665   6.108  11.641 -0.6244  1.6748  0.8531
10387TIP3   OH252575   2.998   6.502  16.487 -0.7076  0.5011 -0.4256
10387TIP3    H152576   2.961   6.415  16.496  0.5122 -0.0267 -0.2751
10387TIP3    H252577   2.977   6.547  16.569 -0.3557 -0.0525 -0.0259
10388TIP3   OH252578   6.014   4.301  16.284  0.5671  0.2617  0.3288
10388TIP3    H152579   6.109   4.310  16.280  0.6879 -0.5483  1.1718
10388TIP3    H252580   5.991   4.321  16.375 -0.1083  0.7177  0.0703
10389TIP3   OH252581   1.930   3.481   3.221 -0.4765  0.1721  0.4271
10389TIP3    H152582   1.960   3.568   3.248 -0.4813 -0.0577  1.1910
10389TIP3    H252583   1.834   3.486   3.224 -0.4746  0.0791  0.6857
10390TIP3   OH252584   6.377   1.838   3.028 -0.1601  0.2210 -0.3195
10390TIP3    H152585   6.283   1.849   3.013  0.1634  0.9727 -2.0563
10390TIP3    H252586   6.409   1.798   2.947  1.1395  0.6802 -0.0450
10391TIP3   OH252587   3.178   3.190  13.662 -0.3621 -0.4472 -0.3624
10391TIP3    H152588   3.138   3.121  13.608  0.9493 -1.9887  0.5238
10391TIP3    H252589   3.174   3.155  13.751 -0.1308  0.8867  0.1846
10392TIP3   OH252590   3.546   1.867  11.670 -0.2741  0.1072 -0.0788
10392TIP3    H152591   3.558   1.844  11.578  1.6838 -0.6143  0.3133
10392TIP3    H252592   3.538   1.783  11.715 -0.1435  0.4165  0.5346
10393TIP3   OH252593   5.239   4.184  12.371  0.3913  0.4200  0.6034
10393TIP3    H152594   5.272   4.112  12.317  0.7775  0.7838  0.3460
10393TIP3    H252595   5.208   4.249  12.307 -0.4869  0.2499  0.8348
10394TIP3   OH252596   6.125   5.857   6.137  0.2213 -0.6152  0.4428
10394TIP3    H152597   6.045   5.888   6.094  0.7263  0.0696 -0.0143
10394TIP3    H252598   6.187   5.845   6.065  0.5334 -1.1476  0.7992
10395TIP3   OH252599   2.294   1.180   0.303 -0.1873 -0.3761 -0.0427
10395TIP3    H152600   2.241   1.100   0.294 -0.9980  0.3099 -1.8635
10395TIP3    H252601   2.232   1.251   0.288  0.6471  0.5937  0.9702
10396TIP3   OH252602   4.978   6.328   3.705  0.0293 -0.2246  0.5907
10396TIP3    H152603   5.008   6.408   3.747 -0.9058  0.5473 -0.1698
10396TIP3    H252604   4.918   6.289   3.768  1.3678 -0.9401  1.4424
10397TIP3   OH252605   1.572   4.311   0.715 -0.7788  0.0785  0.7449
10397TIP3    H152606   1.522   4.361   0.651 -0.7149 -0.5142  0.2286
10397TIP3    H252607   1.640   4.372   0.746 -1.2148  0.5732  0.7402
10398TIP3   OH252608   4.063   5.287   0.244  0.2519 -0.3116 -0.6553
10398TIP3    H152609   4.078   5.315   0.334 -0.4730  0.0615 -0.6470
10398TIP3    H252610   4.074   5.366   0.191  2.6130 -0.8691 -1.1507
10399TIP3   OH252611   5.781   5.926   4.095 -0.1190 -0.2308  0.7272
10399TIP3    H152612   5.760   5.875   4.174 -0.3513 -1.1901  0.0632
10399TIP3    H252613   5.764   5.866   4.023 -0.5576  0.8564 -0.0969
10400TIP3   OH252614   3.271   5.480  14.474  0.1141 -0.3407  0.2433
10400TIP3    H152615   3.185   5.520  14.490  0.1231  0.2467 -1.1264
10400TIP3    H252616   3.330   5.553  14.458  0.7261 -0.7835  0.4238
10401TIP3   OH252617   1.668   6.629  11.738  0.1253  0.3414 -0.3528
10401TIP3    H152618   1.648   6.657  11.827 -0.9150  1.5555 -0.9398
10401TIP3    H252619   1.651   6.706  11.684  2.1746  0.0857 -1.4584
10402TIP3   OH252620   6.070   6.625   0.983  0.4497  0.3970 -0.5742
10402TIP3    H152621   6.026   6.586   0.908 -0.9437 -0.0974  0.4441
10402TIP3    H252622   6.086   6.551   1.043  0.4829  0.9427  0.1055
10403TIP3   OH252623   2.968   2.675  11.234 -0.2958  0.1522  0.0473
10403TIP3    H152624   2.904   2.622  11.282  0.1424  0.8721  1.5101
10403TIP3    H252625   2.977   2.633  11.149  0.8808 -2.7756  1.5026
10404TIP3   OH252626   4.747   3.803   0.613  0.4290 -0.0587  0.0184
10404TIP3    H152627   4.741   3.871   0.547 -0.1352 -0.3642 -0.2510
10404TIP3    H252628   4.776   3.725   0.565  0.2058 -0.2330  0.1639
10405TIP3   OH252629   2.140   6.397   1.661  0.5228 -0.3401 -0.1816
10405TIP3    H152630   2.058   6.438   1.634 -0.2913 -2.1916 -0.6739
10405TIP3    H252631   2.175   6.456   1.728  0.4470  2.1864 -2.1756
10406TIP3   OH252632   5.331   6.224  14.746 -0.4413 -0.2674 -0.1155
10406TIP3    H152633   5.335   6.133  14.777  0.0799 -0.6392 -1.2096
10406TIP3    H252634   5.363   6.219  14.655  1.0542  1.2258  0.2789
10407TIP3   OH252635   3.102   4.437   3.385  0.3825  0.6366 -0.5284
10407TIP3    H152636   3.041   4.510   3.374  1.6201  1.5851 -1.3014
10407TIP3    H252637   3.150   4.457   3.465 -0.0349  0.0804 -0.1272
10408TIP3   OH252638   0.800   6.102  14.911 -0.4382 -0.8302 -0.2314
10408TIP3    H152639   0.819   6.034  14.975 -0.6579 -1.6296 -0.9900
10408TIP3    H252640   0.796   6.056  14.827  0.4867  0.2888 -0.9252
10409TIP3   OH252641   3.061   2.844   3.291 -0.2592  0.1882 -0.0676
10409TIP3    H152642   3.005   2.911   3.329 -0.6630 -0.3873  0.3900
10409TIP3    H252643   3.017   2.818   3.210 -1.7826 -1.6672  1.2574
10410TIP3   OH252644   5.303   6.056   0.522 -0.1814 -0.1080  0.3592
10410TIP3    H152645   5.244   6.126   0.549 -1.6362 -1.4228  0.8033
10410TIP3    H252646   5.366   6.098   0.464 -0.8967  1.5785  0.7421
10411TIP3   OH252647   3.034   4.492  13.677  0.5243 -0.2478 -0.0115
10411TIP3    H152648   2.961   4.511  13.736 -0.8112  0.6488 -1.8647
10411TIP3    H252649   3.094   4.565  13.689  0.1864  0.0131  0.1112
10412TIP3   OH252650   1.329   2.766   0.167 -0.0811 -0.5221  0.0717
10412TIP3    H152651   1.421   2.745   0.150  0.2329  0.5471  0.3996
10412TIP3    H252652   1.286   2.759   0.081  0.9373  2.0656 -0.7479
10413TIP3   OH252653   3.034   2.032   2.087  0.2935 -0.0010  0.0315
10413TIP3    H152654   3.040   2.026   1.992  0.8872  0.1988  0.0521
10413TIP3    H252655   3.014   1.943   2.115  0.7451 -0.1933 -0.2381
10414TIP3   OH252656   5.198   4.178   2.341  0.3372 -0.0077 -0.3425
10414TIP3    H152657   5.159   4.099   2.379 -0.6299  1.0154  0.9050
10414TIP3    H252658   5.142   4.198   2.266 -1.5626  1.3111  1.2934
10415TIP3   OH252659   2.709   3.998  14.498 -0.2815  0.1066 -0.5079
10415TIP3    H152660   2.622   4.033  14.517 -0.1446  0.1723  0.0413
10415TIP3    H252661   2.761   4.022  14.575 -0.3205 -1.7347  0.1413
10416TIP3   OH252662   6.464   3.719  15.222  0.7810 -0.3392 -0.2326
10416TIP3    H152663   6.548   3.674  15.219  1.6626  1.2531 -1.6680
10416TIP3    H252664   6.484   3.808  15.191 -1.2133  0.4520  0.5871
10417TIP3   OH252665   1.370   0.649  10.736  0.6462  0.3037 -0.3046
10417TIP3    H152666   1.427   0.634  10.661  1.3949 -1.2298  0.5186
10417TIP3    H252667   1.430   0.659  10.810 -0.0672  1.9882  0.0874
10418TIP3   OH252668   3.789   4.568   0.557 -0.3872 -0.4696  0.1749
10418TIP3    H152669   3.822   4.658   0.562 -1.8665  0.0335  2.1917
10418TIP3    H252670   3.696   4.577   0.538 -0.5166 -1.5968  0.1763
10419TIP3   OH252671   3.808   3.688   2.252  0.2458  0.1242 -0.2576
10419TIP3    H152672   3.844   3.766   2.294 -1.4845  0.6589  0.2814
10419TIP3    H252673   3.780   3.718   2.165  4.1839 -1.0576 -2.1788
10420TIP3   OH252674   6.014   5.256  15.398 -0.2964 -0.0552  0.3716
10420TIP3    H152675   6.000   5.304  15.480 -0.5295  2.5158 -1.0654
10420TIP3    H252676   6.054   5.320  15.340  0.6912 -2.0733 -1.2823
10421TIP3   OH252677   2.916   1.301  13.880 -0.6812  0.4386  0.0218
10421TIP3    H152678   2.982   1.337  13.821  1.8820 -3.8354 -0.1489
10421TIP3    H252679   2.855   1.256  13.822 -1.5640  1.1420  0.3899
10422TIP3   OH252680   2.976   5.078  16.856 -0.2831 -0.2380  0.6722
10422TIP3    H152681   2.996   5.139  16.927 -0.4741 -0.9601  1.3755
10422TIP3    H252682   3.043   5.010  16.863 -1.0234 -0.9615  0.9626
10423TIP3   OH252683   0.422   3.211   0.506 -0.0808  0.6011  0.0400
10423TIP3    H152684   0.511   3.198   0.537 -0.8728 -1.6612  1.5935
10423TIP3    H252685   0.408   3.141   0.442 -0.7987  0.8217 -0.0614
10424TIP3   OH252686   2.314   3.336  10.465 -0.3870  0.0162 -0.3673
10424TIP3    H152687   2.306   3.287  10.383 -1.5304 -0.0851 -0.2039
10424TIP3    H252688   2.359   3.276  10.524 -1.2127 -0.6126 -0.3631
10425TIP3   OH252689   1.918   4.337   1.485  0.1023  0.2585 -0.3091
10425TIP3    H152690   1.894   4.334   1.578  0.5430  1.9779 -0.1042
10425TIP3    H252691   1.836   4.321   1.439 -0.0028 -1.3131  0.3455
10426TIP3   OH252692   3.896   1.611  13.259  0.2500 -0.3554  0.3678
10426TIP3    H152693   3.852   1.544  13.310 -1.0903  0.4215  0.2763
10426TIP3    H252694   3.863   1.601  13.170  2.0808 -1.2792 -0.2560
10427TIP3   OH252695   0.846   0.665  17.321  0.7141  0.3295 -0.0713
10427TIP3    H152696   0.879   0.691  17.234 -1.6518  2.5447 -0.4327
10427TIP3    H252697   0.786   0.735  17.345 -1.1399 -1.8041  1.9730
10428TIP3   OH252698   3.230   0.382  11.874  0.5492  0.1872 -0.2392
10428TIP3    H152699   3.262   0.316  11.812 -0.0493 -1.0324  0.7044
10428TIP3    H252700   3.135   0.372  11.873  0.4449  1.1091 -0.1347
10429TIP3   OH252701   6.657   4.427   4.221  0.0122 -0.2440 -0.0620
10429TIP3    H152702   6.575   4.399   4.182 -0.3775  2.1159 -1.1027
10429TIP3    H252703   6.724   4.376   4.177 -0.7647 -0.9362 -0.4613
10430TIP3   OH252704   2.953   4.283  11.326 -0.2491  0.2986 -0.1498
10430TIP3    H152705   2.968   4.354  11.388  1.1202  2.0112 -2.2938
10430TIP3    H252706   2.898   4.321  11.258  0.4744 -0.7003 -1.3383
10431TIP3   OH252707   1.032   2.692   5.186  0.5527  0.2594 -0.7521
10431TIP3    H152708   0.951   2.665   5.231  1.8666 -0.7959  1.1122
10431TIP3    H252709   1.010   2.689   5.093 -1.4632 -0.2777 -0.3033
10432TIP3   OH252710   3.107   5.951  16.077  0.0086  0.0481 -0.4537
10432TIP3    H152711   3.049   5.977  16.149 -1.4729  1.2962 -2.0001
10432TIP3    H252712   3.086   5.859  16.061  0.3555 -0.2419  0.6770
10433TIP3   OH252713   2.047   3.301  14.004  0.1009 -0.1664 -0.1714
10433TIP3    H152714   2.127   3.247  14.009 -1.9527 -3.4869 -0.2242
10433TIP3    H252715   2.014   3.304  14.093  0.6631  2.0176  0.0247
10434TIP3   OH252716   5.589   5.108  14.698 -0.3556  0.2192  0.6672
10434TIP3    H152717   5.663   5.057  14.731  0.6248  0.4194 -1.1437
10434TIP3    H252718   5.514   5.048  14.706  0.6911 -1.4010 -1.0016
10435TIP3   OH252719   0.021   1.935  10.690  0.4697  0.4254 -0.3815
10435TIP3    H152720  -0.049   1.891  10.640  1.5245  1.2426 -2.6860
10435TIP3    H252721   0.084   1.865  10.709 -0.5390 -0.1592  1.0635
10436TIP3   OH252722   4.840   1.300   6.796  0.0991  0.3728  0.2018
10436TIP3    H152723   4.832   1.369   6.730  1.9100 -0.3460 -0.8361
10436TIP3    H252724   4.887   1.230   6.752 -0.2987 -0.9065  1.7200
10437TIP3   OH252725   6.660   6.091  12.044 -0.0208 -0.6388 -0.1385
10437TIP3    H152726   6.616   6.142  11.975  0.4347 -0.4886 -0.3262
10437TIP3    H252727   6.753   6.100  12.023  0.0582 -1.7084 -0.2815
10438TIP3   OH252728   0.206   0.627  14.915  0.4547  0.3417  0.1318
10438TIP3    H152729   0.193   0.635  14.821  1.2808  1.2660  0.0776
10438TIP3    H252730   0.155   0.699  14.953 -1.2928 -1.0463  0.5527
10439TIP3   OH252731   4.542   4.949   4.351  0.0422 -0.6126  0.2948
10439TIP3    H152732   4.634   4.950   4.377  0.3291  0.8504 -0.6405
10439TIP3    H252733   4.505   4.875   4.398  1.3751 -0.3863  1.8009
10440TIP3   OH252734   0.226   5.947   1.393  0.3238 -0.4142  0.5060
10440TIP3    H152735   0.150   5.971   1.446 -0.2704  0.7252 -0.7863
10440TIP3    H252736   0.189   5.906   1.315  0.9926  0.4522 -0.2934
10441TIP3   OH252737   3.914   0.527   5.213 -0.1916  0.4656  1.0223
10441TIP3    H152738   3.954   0.496   5.295 -0.5202 -1.1226  0.6010
10441TIP3    H252739   3.969   0.601   5.187  0.5541  0.3293  2.1271
10442TIP3   OH252740   5.567   4.390   3.892  0.5264  0.2729 -0.2697
10442TIP3    H152741   5.572   4.341   3.810  0.1988  1.8213 -1.2627
10442TIP3    H252742   5.477   4.376   3.923  0.3855  0.3744 -0.6295
10443TIP3   OH252743   0.383   0.810   5.926  0.2512  0.3731  0.6711
10443TIP3    H152744   0.441   0.744   5.889  0.9482  0.5319  1.4357
10443TIP3    H252745   0.431   0.844   6.002 -1.3476 -0.3392  2.0775
10444TIP3   OH252746   0.596   4.622  11.362 -0.0042 -0.6497 -0.0218
10444TIP3    H152747   0.509   4.586  11.348 -0.8944  1.1330  0.5869
10444TIP3    H252748   0.589   4.713  11.331  1.1355  0.0279  1.5786
10445TIP3   OH252749   6.635   6.580   0.613  0.1732  0.2878  0.2592
10445TIP3    H152750   6.690   6.586   0.534  0.8465  0.0306  0.6980
10445TIP3    H252751   6.680   6.635   0.677 -0.9318  1.3374  0.1603
10446TIP3   OH252752   5.817   5.925  16.700  0.5130  0.4568  0.0282
10446TIP3    H152753   5.891   5.929  16.760  0.8500 -2.3760 -0.0721
10446TIP3    H252754   5.854   5.947  16.614  0.6862  1.4447  0.3437
10447TIP3   OH252755   3.539   5.726   4.294  0.9232 -0.0195  0.0398
10447TIP3    H152756   3.534   5.661   4.364 -0.3337  0.9833  0.9330
10447TIP3    H252757   3.486   5.690   4.224  0.0751  0.1107  0.6002
10448TIP3   OH252758   0.525   5.445  15.352  0.0069 -0.7629 -0.3099
10448TIP3    H152759   0.564   5.454  15.265  0.3410  0.1101 -0.0811
10448TIP3    H252760   0.430   5.452  15.337  0.1117  0.5257 -0.4910
10449TIP3   OH252761   5.011   6.157   2.335  0.3143  0.0205 -0.3653
10449TIP3    H152762   5.037   6.138   2.425 -0.0541  0.7303 -0.1038
10449TIP3    H252763   5.081   6.214   2.302 -0.7069  1.6907  0.2438
10450TIP3   OH252764   2.139   0.709  16.921 -0.1706 -0.6150  0.0698
10450TIP3    H152765   2.224   0.666  16.932 -0.0973 -0.3481  0.5516
10450TIP3    H252766   2.143   0.747  16.833  0.2875 -0.4216  0.1729
10451TIP3   OH252767   6.488   0.659   6.413 -0.6397 -0.1056 -0.2837
10451TIP3    H152768   6.423   0.622   6.473 -1.1607 -0.5872 -1.1241
10451TIP3    H252769   6.494   0.595   6.341  2.9257 -1.6055  1.1068
10452TIP3   OH252770   3.135   4.331   0.751 -0.1294  0.1041 -0.0850
10452TIP3    H152771   3.229   4.333   0.736 -0.0293  0.1564  0.5170
10452TIP3    H252772   3.097   4.306   0.667  0.4542 -0.4415 -0.1900
10453TIP3   OH252773   3.748   1.351   3.400 -0.4912 -0.4389  0.1442
10453TIP3    H152774   3.787   1.426   3.444 -0.8812 -0.1110 -0.0610
10453TIP3    H252775   3.802   1.336   3.323 -1.6115  0.9622 -0.9707
10454TIP3   OH252776   4.691   1.465   5.720  0.0878  0.0793 -0.2397
10454TIP3    H152777   4.639   1.545   5.721 -1.0375 -0.6028 -1.0139
10454TIP3    H252778   4.666   1.421   5.639  2.3675  0.0008 -0.9703
10455TIP3   OH252779   2.708   1.888  11.036 -0.0539  0.3168  0.1116
10455TIP3    H152780   2.661   1.938  10.969 -2.2206 -0.7732  0.7240
10455TIP3    H252781   2.757   1.822  10.987 -1.5235 -0.4006 -0.4714
10456TIP3   OH252782   6.288   3.844   5.487  0.1097 -0.2267  0.4152
10456TIP3    H152783   6.229   3.773   5.465  0.6206 -0.2718 -0.9233
10456TIP3    H252784   6.363   3.832   5.428  1.0512  0.3393  1.4495
10457TIP3   OH252785   3.004   0.724   3.561 -0.0436  0.1261 -0.2435
10457TIP3    H152786   3.068   0.778   3.608  1.3261  0.5883 -2.4945
10457TIP3    H252787   3.049   0.641   3.546  0.4295  0.7502 -2.5884
10458TIP3   OH252788   2.622   1.049   5.136 -0.2679 -0.6133  0.2886
10458TIP3    H152789   2.606   1.074   5.227 -2.8012 -2.3750  0.4316
10458TIP3    H252790   2.595   0.957   5.131  1.5810 -1.1295 -1.8512
10459TIP3   OH252791   6.267   5.148   4.201  1.0182  0.2491 -0.1945
10459TIP3    H152792   6.333   5.204   4.160  0.8920 -1.1140 -2.3826
10459TIP3    H252793   6.318   5.094   4.262  1.7031  0.1862 -0.8101
10460TIP3   OH252794   6.433   3.688   2.467  0.2793  0.5793 -0.1708
10460TIP3    H152795   6.342   3.661   2.453  0.5618  0.3684 -1.8522
10460TIP3    H252796   6.467   3.625   2.530 -0.6231  0.4238  0.1801
10461TIP3   OH252797   3.097   1.993   2.733  0.6884 -0.3696 -0.6614
10461TIP3    H152798   3.014   1.945   2.737  0.8439 -0.7708 -1.7674
10461TIP3    H252799   3.073   2.084   2.754  0.4021 -0.9013  1.4765
10462TIP3   OH252800   5.623   5.417  14.022  0.4112 -0.3356 -0.2763
10462TIP3    H152801   5.604   5.361  14.096 -1.2386 -0.2552 -0.5988
10462TIP3    H252802   5.593   5.504  14.048 -1.5402 -0.5750 -1.5045
10463TIP3   OH252803   6.384   0.523   4.405  0.0327 -0.3648 -0.1801
10463TIP3    H152804   6.339   0.451   4.450 -2.9755  0.9650 -0.7790
10463TIP3    H252805   6.397   0.490   4.316 -0.8315 -0.4014 -0.3048
10464TIP3   OH252806   1.318   0.801  15.859 -0.3296  0.1464  0.4607
10464TIP3    H152807   1.341   0.891  15.881 -0.6287 -0.2586  2.6256
10464TIP3    H252808   1.400   0.753  15.866 -0.3234  0.1068  0.1248
10465TIP3   OH252809   1.293   5.234  11.937  0.7530  0.4227 -0.2801
10465TIP3    H152810   1.204   5.201  11.949  0.5966  0.7098 -0.6548
10465TIP3    H252811   1.344   5.156  11.915  0.9067 -0.0132  1.4248
10466TIP3   OH252812   6.012   4.106   4.711 -0.1470 -0.0216  0.8378
10466TIP3    H152813   6.058   4.073   4.634  0.6655 -1.0712  1.7387
10466TIP3    H252814   5.979   4.192   4.685  0.3274 -0.2476 -0.5840
10467TIP3   OH252815   1.365   0.475   2.948  0.3517  0.0676  0.1020
10467TIP3    H152816   1.358   0.569   2.968  0.2363 -0.1848  1.3043
10467TIP3    H252817   1.284   0.455   2.901 -0.2026  0.3252  0.9141
10468TIP3   OH252818   0.118   3.435  14.494 -0.6009  0.5109 -0.0990
10468TIP3    H152819   0.055   3.419  14.423 -0.9369 -0.4969  0.4120
10468TIP3    H252820   0.071   3.492  14.555 -0.2288  1.5772 -0.7821
10469TIP3   OH252821   3.430   6.298   2.570 -0.2599  0.9429 -0.6279
10469TIP3    H152822   3.507   6.309   2.514  0.3254 -0.4406 -0.1392
10469TIP3    H252823   3.454   6.338   2.653  1.3967 -2.4778  0.7371
10470TIP3   OH252824   4.849   5.417  16.553  0.6376 -0.2381  0.1789
10470TIP3    H152825   4.783   5.429  16.484  0.9331 -1.6096 -0.3850
10470TIP3    H252826   4.829   5.484  16.618 -0.9648 -0.2641 -0.2521
10471TIP3   OH252827   2.846   6.319  13.391  0.0419 -0.3496  0.0254
10471TIP3    H152828   2.870   6.299  13.300  1.3526  0.6601  0.1202
10471TIP3    H252829   2.756   6.349  13.386 -0.2298 -1.2509 -0.8023
10472TIP3   OH252830   3.005   3.053   1.923 -0.2788 -0.1551  0.1706
10472TIP3    H152831   3.036   3.137   1.889  1.1439 -1.3287 -1.6024
10472TIP3    H252832   3.079   3.017   1.972 -0.9737 -0.2904  1.1611
10473TIP3   OH252833   2.688   3.363   3.259 -0.1349 -0.0483 -0.0921
10473TIP3    H152834   2.669   3.276   3.225  0.6809  0.0015 -0.6957
10473TIP3    H252835   2.601   3.401   3.276 -0.5035 -1.3802  1.2978
10474TIP3   OH252836   2.247   1.368  11.996  0.1716 -0.4135  0.0494
10474TIP3    H152837   2.178   1.428  11.966 -0.6169  0.9486  3.9905
10474TIP3    H252838   2.232   1.288  11.946 -2.0089  1.0052 -1.7857
10475TIP3   OH252839   5.675   5.332   1.266 -0.3185 -0.2072  0.5597
10475TIP3    H152840   5.624   5.404   1.229  1.3014  1.8973  2.1652
10475TIP3    H252841   5.762   5.343   1.227 -0.1959 -1.7418  0.3461
10476TIP3   OH252842   2.796   3.157   1.720  0.3979 -0.0058  0.3993
10476TIP3    H152843   2.855   3.158   1.795  1.3897 -0.2046 -0.3633
10476TIP3    H252844   2.765   3.247   1.712  0.1047 -0.0312  1.1772
10477TIP3   OH252845   5.198   0.291  16.998 -0.2207 -0.1837 -0.2376
10477TIP3    H152846   5.208   0.301  17.092  0.6505  0.5777 -0.3917
10477TIP3    H252847   5.284   0.313  16.962  0.3194 -3.1723 -1.0545
10478TIP3   OH252848   2.840   2.122   1.355 -0.7416  0.3727  0.2937
10478TIP3    H152849   2.858   2.032   1.382 -0.7165  0.3478  0.1942
10478TIP3    H252850   2.889   2.176   1.416 -0.8841  0.3224  0.4527
10479TIP3   OH252851   0.612   3.610  13.075  0.3120  0.0821 -0.0045
10479TIP3    H152852   0.611   3.618  13.170 -1.0581 -0.6998  0.0730
10479TIP3    H252853   0.647   3.694  13.045 -0.2052  0.7451  1.1607
10480TIP3   OH252854   2.416   2.312  14.566  0.7642  0.5436  0.4443
10480TIP3    H152855   2.442   2.273  14.649  0.1429 -0.1643  0.3136
10480TIP3    H252856   2.495   2.309  14.512  0.5453 -1.3031  0.1570
10481TIP3   OH252857   2.672   1.646   4.226  0.0180 -0.0830 -0.0894
10481TIP3    H152858   2.730   1.601   4.287  0.4771  1.4893  0.6706
10481TIP3    H252859   2.584   1.617   4.250  0.1255  1.0046  1.7956
10482TIP3   OH252860   1.376   4.446   2.183  0.1090 -0.0411  0.2446
10482TIP3    H152861   1.390   4.417   2.093 -1.1686 -0.3358  0.1219
10482TIP3    H252862   1.405   4.372   2.237  0.6555  0.0451  0.0767
10483TIP3   OH252863   0.339   4.338  13.410  0.0508 -0.2028 -0.3752
10483TIP3    H152864   0.302   4.425  13.394  1.2670  0.4509  0.2564
10483TIP3    H252865   0.315   4.288  13.332 -2.5177  0.0398  0.1768
10484TIP3   OH252866   5.933   0.644  14.398  0.7388  0.1430  0.8970
10484TIP3    H152867   5.858   0.696  14.428 -0.5518 -0.1589 -1.4807
10484TIP3    H252868   5.987   0.707  14.350  0.5774 -0.1357  0.3334
10485TIP3   OH252869   3.316   6.319   5.309  0.4705 -0.5113 -0.1981
10485TIP3    H152870   3.403   6.288   5.333  0.8700  1.1226  0.5980
10485TIP3    H252871   3.315   6.412   5.333 -0.9733 -0.1008 -1.5984
10486TIP3   OH252872   0.605   1.794  14.818  0.0512  0.2929  0.0586
10486TIP3    H152873   0.576   1.804  14.908 -0.0771  1.7821 -0.1321
10486TIP3    H252874   0.594   1.880  14.779  1.0465 -0.0818 -1.1137
10487TIP3   OH252875   4.530   0.208  14.129  0.6643 -0.0300 -0.4461
10487TIP3    H152876   4.606   0.175  14.177  1.0143  3.1810  1.4806
10487TIP3    H252877   4.456   0.197  14.190  0.5854  1.5216 -0.2292
10488TIP3   OH252878   4.598   0.180  15.498  0.1486 -0.1956 -0.5621
10488TIP3    H152879   4.672   0.137  15.455 -0.8863 -1.4813 -1.1391
10488TIP3    H252880   4.521   0.132  15.467 -0.7229 -0.6894  2.1024
10489TIP3   OH252881   4.989   6.714   3.211 -0.0885  0.0002 -0.1237
10489TIP3    H152882   4.953   6.708   3.299  1.5237  0.6733  0.6241
10489TIP3    H252883   5.065   6.657   3.211  0.0578  0.1655 -1.0183
10490TIP3   OH252884   3.727   6.255   0.306  0.0951  0.3962 -0.5223
10490TIP3    H152885   3.730   6.323   0.239  0.9134  1.1112  0.2163
10490TIP3    H252886   3.655   6.281   0.363 -0.3902 -0.0377 -0.9235
10491TIP3   OH252887   2.247   3.309   1.389  0.2383  0.4142 -0.2611
10491TIP3    H152888   2.164   3.306   1.436 -0.3762 -2.7239 -1.3194
10491TIP3    H252889   2.314   3.306   1.458 -0.4422  2.4505  0.5717
10492TIP3   OH252890   5.601   5.209  13.197  0.6193 -0.3604 -0.2292
10492TIP3    H152891   5.628   5.122  13.227 -2.9673 -1.4890  0.1503
10492TIP3    H252892   5.584   5.258  13.278 -2.3830 -1.1201 -0.3115
10493TIP3   OH252893   1.774   6.727   6.033  0.6865  0.5141 -0.2392
10493TIP3    H152894   1.723   6.742   6.112  1.2992  1.3935  0.0051
10493TIP3    H252895   1.854   6.779   6.045  2.5681 -2.2833  0.2268
10494TIP3   OH252896   3.585   5.058  15.645 -0.2704  0.7150 -0.1402
10494TIP3    H152897   3.673   5.076  15.612 -0.3001  1.6844  0.2774
10494TIP3    H252898   3.527   5.089  15.576 -0.3062  1.2417  0.1272
10495TIP3   OH252899   4.773   4.266  14.699  0.0710 -0.5287  0.3628
10495TIP3    H152900   4.726   4.343  14.730 -0.4490 -0.9054  0.5314
10495TIP3    H252901   4.823   4.236  14.774 -0.4470 -0.8844  0.5773
10496TIP3   OH252902   5.527   6.467   5.298 -0.3385  0.1475  0.9614
10496TIP3    H152903   5.547   6.375   5.283 -0.1245  0.1495  1.2339
10496TIP3    H252904   5.530   6.506   5.211  0.5429  0.0845  0.9515
10497TIP3   OH252905   3.156   2.301   5.289  0.5778 -0.1492 -0.4233
10497TIP3    H152906   3.129   2.364   5.222  2.0975 -0.5393 -1.4546
10497TIP3    H252907   3.135   2.343   5.372 -0.4634  0.7559 -1.1231
10498TIP3   OH252908   3.245   2.268   3.368  0.2455 -0.4920  0.2003
10498TIP3    H152909   3.195   2.350   3.360  0.3800 -0.3161  1.0011
10498TIP3    H252910   3.181   2.200   3.347  0.1592 -0.1819 -0.5824
10499TIP3   OH252911   5.813   5.374   0.572  0.3344 -0.2243 -0.0752
10499TIP3    H152912   5.721   5.349   0.567  0.0892  0.7985 -0.8165
10499TIP3    H252913   5.814   5.468   0.553  1.7538 -0.6290 -2.3220
10500TIP3   OH252914   1.681   5.572  15.572 -0.6927  0.1625  0.1090
10500TIP3    H152915   1.639   5.644  15.525 -1.2154  1.2815  2.1725
10500TIP3    H252916   1.714   5.612  15.652 -0.0439 -1.7030  0.8191
10501TIP3   OH252917   3.509   1.519  12.881 -0.1121 -0.1507  0.5533
10501TIP3    H152918   3.430   1.541  12.831  0.2287  2.0179  0.8631
10501TIP3    H252919   3.511   1.423  12.882 -0.5800 -0.3249 -2.8585
10502TIP3   OH252920   1.848   5.710  14.537  0.4543 -0.5380 -0.2639
10502TIP3    H152921   1.819   5.801  14.546  1.2621 -0.1278 -1.3862
10502TIP3    H252922   1.847   5.695  14.442 -0.3870 -1.9608 -0.0459
10503TIP3   OH252923   2.424   2.730  14.063 -0.1706 -0.4447  0.0473
10503TIP3    H152924   2.480   2.674  14.010 -4.1291 -2.2931 -2.5971
10503TIP3    H252925   2.389   2.794  14.002 -0.6202  0.9635  1.6966
10504TIP3   OH252926   2.996   3.750   2.566  0.1058 -0.1634  0.0053
10504TIP3    H152927   3.026   3.836   2.596  3.9898 -1.8739  1.7424
10504TIP3    H252928   3.041   3.737   2.482 -0.8510 -0.3409 -0.4908
10505TIP3   OH252929   6.091   0.246   4.119 -0.3219 -0.1620  0.4769
10505TIP3    H152930   6.022   0.311   4.107  0.2608  0.2326 -0.9615
10505TIP3    H252931   6.096   0.201   4.035 -1.1139 -2.5262  1.6216
10506TIP3   OH252932   1.504   5.928   1.219 -0.8955 -0.2797  0.6378
10506TIP3    H152933   1.427   5.876   1.241 -0.4400 -0.9084  0.7720
10506TIP3    H252934   1.546   5.878   1.148 -1.3973  0.8062 -0.4555
10507TIP3   OH252935   0.571   2.916  14.718 -0.1178  0.1266  0.3368
10507TIP3    H152936   0.665   2.921  14.706  0.0048  1.0852  1.4945
10507TIP3    H252937   0.554   2.827  14.747  0.1227 -0.7629 -2.0404
10508TIP3   OH252938   3.923   0.335  13.724  0.2998  0.7585  0.0215
10508TIP3    H152939   3.982   0.373  13.658 -0.1421  0.3330 -0.6282
10508TIP3    H252940   3.849   0.395  13.727 -0.4259 -0.0427 -1.0476
10509TIP3   OH252941   5.525   4.581  14.895  0.2465 -0.3020 -0.0109
10509TIP3    H152942   5.591   4.599  14.828  0.2608 -0.5559 -0.0627
10509TIP3    H252943   5.522   4.662  14.947  0.3537 -0.1655 -0.2149
10510TIP3   OH252944   2.737   4.160   4.565  0.1211  0.3731 -0.5029
10510TIP3    H152945   2.759   4.246   4.530  2.5716 -0.3698 -0.9323
10510TIP3    H252946   2.650   4.172   4.605  0.0517  2.8089 -1.2456
10511TIP3   OH252947   0.010   3.600  13.157  0.3418  0.0542  0.2746
10511TIP3    H152948  -0.021   3.646  13.235  0.9576 -0.6874  0.9669
10511TIP3    H252949   0.089   3.647  13.131 -1.1688  1.8809 -1.4290
10512TIP3   OH252950   1.967   3.083  12.851  0.3136 -0.0569 -0.4283
10512TIP3    H152951   1.890   3.141  12.851 -0.1511 -0.5771  1.8640
10512TIP3    H252952   1.936   3.003  12.893  1.3878 -1.3794 -2.0707
10513TIP3   OH252953   3.412   0.720   0.993 -0.2200  0.0247 -0.5264
10513TIP3    H152954   3.435   0.799   1.042 -2.2841 -0.5647  1.5850
10513TIP3    H252955   3.338   0.745   0.939  0.2389 -0.0546 -1.2065
10514TIP3   OH252956   3.299   3.092  14.555 -0.2146  0.0494  0.3820
10514TIP3    H152957   3.378   3.145  14.560 -0.2945  0.2066  0.0119
10514TIP3    H252958   3.303   3.036  14.632  2.0073 -2.4030 -1.3559
10515TIP3   OH252959   5.605   5.371   4.092 -0.0882  0.7861 -0.2351
10515TIP3    H152960   5.667   5.309   4.132 -2.4696 -1.5139  0.1897
10515TIP3    H252961   5.567   5.418   4.166 -0.0668  0.9523 -0.3301
10516TIP3   OH252962   1.987   5.945   0.761  0.3141  0.3355  0.3458
10516TIP3    H152963   2.060   5.884   0.765 -0.7859 -0.9848  1.9144
10516TIP3    H252964   1.957   5.953   0.852 -2.2632 -0.2134 -0.3571
10517TIP3   OH252965   2.227   3.455   2.445  0.7436 -0.0252 -0.0573
10517TIP3    H152966   2.165   3.528   2.443  0.0277 -0.6395 -0.6676
10517TIP3    H252967   2.250   3.441   2.353 -0.5725 -1.7693 -0.1673
10518TIP3   OH252968   1.526   4.739   3.103 -0.6442 -0.4486  0.2140
10518TIP3    H152969   1.592   4.676   3.132  0.3169  0.9474  1.1931
10518TIP3    H252970   1.536   4.741   3.008 -0.3144 -1.3500  0.2124
10519TIP3   OH252971   2.287   4.650   0.298  0.0435 -0.2746 -0.3517
10519TIP3    H152972   2.251   4.720   0.353  2.5542  0.7649  0.1208
10519TIP3    H252973   2.238   4.657   0.216 -1.5093  0.3373  0.5900
10520TIP3   OH252974   3.406   6.622   3.313  0.4219  0.9522  0.3233
10520TIP3    H152975   3.406   6.527   3.299  1.1537  0.9147  0.5199
10520TIP3    H252976   3.345   6.656   3.247  0.1804  0.3504  0.2306
10521TIP3   OH252977   5.600   6.032  13.125 -0.3049 -0.4305 -0.1885
10521TIP3    H152978   5.561   6.100  13.070  0.0709 -0.1947 -0.1740
10521TIP3    H252979   5.597   5.953  13.072  0.7652 -0.0412 -0.8755
10522TIP3   OH252980   6.006   4.369  14.907 -0.0914  0.4278  0.6950
10522TIP3    H152981   6.031   4.357  14.816  1.4143 -0.9939  1.2318
10522TIP3    H252982   6.007   4.464  14.920  0.3256  0.6206 -0.6018
10523TIP3   OH252983   2.546   6.212  11.920 -0.5184  0.8009  0.1467
10523TIP3    H152984   2.582   6.162  11.847 -1.4660 -1.8535  1.3858
10523TIP3    H252985   2.615   6.275  11.943  1.5168 -1.1441 -0.3321
10524TIP3   OH252986   0.932   6.663   3.218 -0.5878 -0.5742  0.0954
10524TIP3    H152987   0.873   6.632   3.287 -0.8365 -1.3405 -0.4495
10524TIP3    H252988   0.961   6.583   3.173  0.7801 -0.2072  0.2713
10525TIP3   OH252989   3.683   1.622  10.780  0.1763 -0.3270  0.4584
10525TIP3    H152990   3.778   1.619  10.767  0.0720 -0.4421 -0.3370
10525TIP3    H252991   3.653   1.534  10.758 -0.4542  0.5060 -2.3226
10526TIP3   OH252992   2.083   6.151  12.987  0.7513 -0.1057 -0.0282
10526TIP3    H152993   2.168   6.111  13.003  0.1300 -1.8860 -0.8899
10526TIP3    H252994   2.023   6.105  13.047  0.0144 -0.5226 -1.0468
10527TIP3   OH252995   1.281   6.245  13.580 -0.2564 -0.4465  0.5437
10527TIP3    H152996   1.196   6.233  13.537 -0.3811 -0.1227  0.6963
10527TIP3    H252997   1.320   6.320  13.535 -0.2368 -0.3239  0.7649
10528TIP3   OH252998   0.199   4.568   4.030 -0.1553 -0.2784  0.4491
10528TIP3    H152999   0.251   4.613   4.096 -1.3973  0.9090  0.6879
10528TIP3    H253000   0.180   4.482   4.067  3.6632 -1.8048 -0.7153
10529TIP3   OH253001   1.588   6.252  11.450 -0.8210  0.4425 -0.4146
10529TIP3    H153002   1.570   6.302  11.529  3.6419  1.8429  0.0202
10529TIP3    H253003   1.609   6.319  11.384 -0.4402 -0.7682 -1.5649
10530TIP3   OH253004   5.747   4.578  15.865 -0.6488  0.5734 -0.0831
10530TIP3    H153005   5.788   4.619  15.788 -0.7982  2.9738  1.0534
10530TIP3    H253006   5.794   4.614  15.940  0.6291 -2.9802  1.0272
10531TIP3   OH253007   3.719   4.691   4.988 -0.1020 -0.5903 -0.0675
10531TIP3    H153008   3.711   4.630   5.060 -0.6343 -0.5471 -0.0866
10531TIP3    H253009   3.659   4.658   4.921  0.2939 -0.5632 -0.4408
10532TIP3   OH253010   4.840   6.416   1.079 -0.0738  0.1718 -0.2222
10532TIP3    H153011   4.878   6.409   0.991  2.1648 -1.0672  0.7377
10532TIP3    H253012   4.886   6.489   1.119  2.0440 -1.7821  1.1987
10533TIP3   OH253013   0.249   2.211  11.238  0.1089 -0.0232  0.9526
10533TIP3    H153014   0.302   2.290  11.231 -0.1501  0.1930  1.4349
10533TIP3    H253015   0.255   2.171  11.151 -0.4894  0.9805  0.4388
10534TIP3   OH253016   2.783   1.391   5.699  0.1884 -0.4990  0.7441
10534TIP3    H153017   2.794   1.302   5.668  1.0169 -0.6970  1.5503
10534TIP3    H253018   2.855   1.440   5.658 -1.9212  0.5046 -2.0537
10535TIP3   OH253019   6.131   3.846  11.622 -0.2590  0.6259  0.1162
10535TIP3    H153020   6.142   3.844  11.527  0.9460  2.1326  0.1847
10535TIP3    H253021   6.047   3.890  11.636 -0.6058  0.0857 -0.2469
10536TIP3   OH253022   5.487   4.754   0.606 -0.1048 -0.0969 -0.4313
10536TIP3    H153023   5.415   4.805   0.644  1.3762  1.4668  0.4064
10536TIP3    H253024   5.506   4.687   0.672 -1.1677 -0.9302 -0.9365
10537TIP3   OH253025   3.139   0.675   5.533 -0.3420  0.0429  0.0097
10537TIP3    H153026   3.179   0.648   5.616 -0.2139 -1.4645 -0.5123
10537TIP3    H253027   3.093   0.597   5.502  1.0165  0.0423 -2.1675
10538TIP3   OH253028   5.947   0.652   1.519 -0.0965 -0.2203  0.0625
10538TIP3    H153029   6.027   0.601   1.507  0.3198  0.3475  0.3589
10538TIP3    H253030   5.893   0.599   1.579  0.3037 -0.3394  0.3188
10539TIP3   OH253031   6.081   1.259  12.191 -0.9250 -0.5424 -0.0687
10539TIP3    H153032   6.007   1.247  12.131  0.4093  0.9076 -2.1602
10539TIP3    H253033   6.113   1.170  12.207 -0.9904 -0.9757 -2.0446
10540TIP3   OH253034   1.119   4.484  14.260 -0.1505  0.6736  0.3265
10540TIP3    H153035   1.073   4.469  14.177  0.0596 -0.5155  0.4078
10540TIP3    H253036   1.212   4.486  14.237  0.0480 -1.4434  0.7194
10541TIP3   OH253037   6.077   5.792  14.388 -0.0877 -0.1912  0.6626
10541TIP3    H153038   6.053   5.722  14.449 -0.2688  0.7217  1.6867
10541TIP3    H253039   6.166   5.816  14.414  0.5527 -1.0434 -0.6753
10542TIP3   OH253040   1.896   4.244   5.522 -0.2872 -0.0428  0.2954
10542TIP3    H153041   1.946   4.221   5.445 -0.3627  0.2108  0.1683
10542TIP3    H253042   1.845   4.321   5.496 -1.3205 -0.7480  0.1762
10543TIP3   OH253043   3.671   0.383   0.913 -0.2766 -0.1470 -0.4323
10543TIP3    H153044   3.671   0.411   0.822  0.5526  1.1137 -0.0657
10543TIP3    H253045   3.692   0.462   0.963 -0.4219 -0.8755  0.8331
10544TIP3   OH253046   0.952   5.421   0.302  0.0280 -0.5042  0.3341
10544TIP3    H153047   0.938   5.355   0.234  0.5528  1.5986 -1.9740
10544TIP3    H253048   1.044   5.447   0.292 -0.1889  0.6415  1.0945
10545TIP3   OH253049   0.323   0.079   1.984 -0.0640  0.1817 -0.1977
10545TIP3    H153050   0.320   0.054   2.077 -0.5341  0.8805 -0.0236
10545TIP3    H253051   0.417   0.077   1.962 -0.0112 -0.8166  0.0525
10546TIP3   OH253052   1.732   2.789   4.851  0.3272 -0.4346  0.0099
10546TIP3    H153053   1.737   2.842   4.930  0.3485 -0.3291 -0.0620
10546TIP3    H253054   1.653   2.736   4.862 -0.4624  0.5926 -0.5287
10547TIP3   OH253055   2.976   4.067  16.456  0.7529  0.2492 -0.1239
10547TIP3    H153056   2.988   4.161  16.475  0.6990  0.0966  0.6953
10547TIP3    H253057   2.890   4.062  16.415  0.1201  0.4065  1.1144
10548TIP3   OH253058   0.247   5.641  15.375  0.3770 -0.5421 -0.4360
10548TIP3    H153059   0.178   5.690  15.419  1.8683  1.1592  0.1222
10548TIP3    H253060   0.235   5.551  15.404 -1.0426 -0.1186  0.3648
10549TIP3   OH253061   5.455   0.020  17.278  0.6828  0.0171  0.1327
10549TIP3    H153062   5.402  -0.052  17.243 -0.0315  0.2154  0.7677
10549TIP3    H253063   5.391   0.079  17.318  1.3107  0.7385  0.0936
10550TIP3   OH253064   3.620   5.010  14.400  0.0211 -0.0558 -0.2805
10550TIP3    H153065   3.661   4.997  14.314  0.1311 -1.4207 -0.0484
10550TIP3    H253066   3.630   5.103  14.418  0.3556  0.1719 -1.5724
10551TIP3   OH253067   4.679   0.117   3.836  0.1497 -0.3145 -0.3680
10551TIP3    H153068   4.696   0.023   3.841 -1.2050 -0.5607 -0.1677
10551TIP3    H253069   4.655   0.142   3.926  1.3854  0.4133 -0.2175
10552TIP3   OH253070   5.897   5.549  15.412 -0.0697 -0.1177  0.2523
10552TIP3    H153071   5.856   5.635  15.401  0.2578 -0.0102 -0.1656
10552TIP3    H253072   5.867   5.499  15.336  2.1083  0.5804 -1.1562
10553TIP3   OH253073   3.836   6.238  16.250 -0.2563 -0.5330 -0.0865
10553TIP3    H153074   3.802   6.151  16.270  0.7005 -0.9825 -0.3338
10553TIP3    H253075   3.762   6.297  16.263 -0.4659 -1.1580  1.8491
10554TIP3   OH253076   4.873   2.291   3.563 -0.1046  0.2463 -0.1850
10554TIP3    H153077   4.886   2.385   3.545  0.7780 -0.0836 -1.4757
10554TIP3    H253078   4.833   2.257   3.483 -0.9390 -0.3862  0.4915
10555TIP3   OH253079   2.989   1.463  16.079 -0.1763  0.7314 -0.9386
10555TIP3    H153080   2.940   1.522  16.022 -0.1219  0.6821 -1.0384
10555TIP3    H253081   2.924   1.401  16.111 -0.1050  0.4160 -1.3944
10556TIP3   OH253082   4.915   0.810  14.380  0.2052 -0.6525 -0.2489
10556TIP3    H153083   4.934   0.903  14.392  0.6841 -0.3736 -2.6543
10556TIP3    H253084   4.999   0.766  14.389  0.1360 -0.7341 -0.0079
10557TIP3   OH253085   4.376   0.419   5.051 -0.2229  0.1484 -0.2914
10557TIP3    H153086   4.411   0.363   4.982 -1.5679 -0.3710 -0.5692
10557TIP3    H253087   4.397   0.373   5.132  0.0762  0.0388 -0.4291
10558TIP3   OH253088   5.234   5.807  12.334  0.5129  0.2950  0.2949
10558TIP3    H153089   5.237   5.863  12.257 -0.8730  2.2899  1.5950
10558TIP3    H253090   5.192   5.726  12.304  0.0205  1.0160 -1.0274
10559TIP3   OH253091   2.657   2.653  13.319 -0.2679 -0.1306 -0.2080
10559TIP3    H153092   2.574   2.699  13.330 -0.0010  0.3202 -0.0386
10559TIP3    H253093   2.703   2.703  13.251 -0.4048 -0.7644 -0.7702
10560TIP3   OH253094   2.656   5.828  14.484 -0.1219 -0.2074 -0.3956
10560TIP3    H153095   2.702   5.912  14.478 -0.5764  0.0940  0.2723
10560TIP3    H253096   2.607   5.822  14.402  0.6404 -0.2601 -0.8573
10561TIP3   OH253097   4.917   1.035   4.820 -0.1572 -0.0863 -0.0569
10561TIP3    H153098   4.875   1.121   4.816 -0.7644 -0.4403 -2.5213
10561TIP3    H253099   4.850   0.977   4.857 -0.0818  0.2876  0.6874
10562TIP3   OH253100   5.752   3.060  11.379 -0.0926 -0.6262  0.2275
10562TIP3    H153101   5.801   3.007  11.442  0.0621 -0.9969 -0.1985
10562TIP3    H253102   5.794   3.146  11.381 -0.0896 -0.6375  0.6282
10563TIP3   OH253103   6.213   1.183   0.799 -0.5411  0.0320 -0.4236
10563TIP3    H153104   6.223   1.244   0.726  1.8570 -0.9284 -0.9959
10563TIP3    H253105   6.175   1.235   0.869 -2.7992  1.0179 -2.2620
10564TIP3   OH253106   1.986   5.675  16.993 -0.2709  0.3071  0.3614
10564TIP3    H153107   1.938   5.749  17.030  0.4847  0.6028  0.7759
10564TIP3    H253108   1.993   5.613  17.065 -0.0731  0.2489  0.2918
10565TIP3   OH253109   4.102   3.713   1.068  0.3532 -0.1376 -0.2712
10565TIP3    H153110   4.105   3.643   1.133  0.3199 -2.4352 -2.5998
10565TIP3    H253111   4.009   3.733   1.057  0.1744 -1.3996 -1.2259
10566TIP3   OH253112   5.230   6.710  13.108  0.1304 -0.0098  0.4811
10566TIP3    H153113   5.315   6.751  13.095  0.3574  0.4704  2.9535
10566TIP3    H253114   5.250   6.629  13.155 -0.8073  0.4212  1.6468
10567TIP3   OH253115   2.161   1.795   4.516  0.4618 -0.2969 -0.2192
10567TIP3    H153116   2.233   1.857   4.502 -0.3163  0.6340 -0.2326
10567TIP3    H253117   2.185   1.748   4.596  2.0831 -1.4907 -1.3408
10568TIP3   OH253118   3.032   5.824   6.192 -0.4737  0.0059 -0.4327
10568TIP3    H153119   3.035   5.728   6.195 -0.9330 -0.0314 -0.9938
10568TIP3    H253120   2.995   5.844   6.106  0.1977  0.6992 -0.5770
10569TIP3   OH253121   2.836   4.910  13.590 -0.0774  0.1530 -0.2619
10569TIP3    H153122   2.861   4.908  13.682 -0.2184 -1.4280 -0.2322
10569TIP3    H253123   2.851   5.000  13.563  0.6158  0.4796  1.1256
10570TIP3   OH253124   3.972   0.412  14.217  0.2888 -0.3485 -1.0006
10570TIP3    H153125   4.044   0.454  14.263 -0.5620  1.0072 -0.8296
10570TIP3    H253126   3.985   0.436  14.125  1.2546 -1.9586 -1.3250
10571TIP3   OH253127   2.315   0.416   5.621 -0.2017 -0.0508  0.0271
10571TIP3    H153128   2.251   0.357   5.661 -0.7055  0.5338  0.0896
10571TIP3    H253129   2.398   0.393   5.663 -0.5200 -0.2313  0.5598
10572TIP3   OH253130   6.562   5.739   1.018 -0.4437  0.1458  0.4668
10572TIP3    H153131   6.601   5.816   1.059  0.1596  0.0840  0.0334
10572TIP3    H253132   6.549   5.765   0.926 -0.3843 -0.2137  0.3545
10573TIP3   OH253133   1.958   0.217   1.324 -0.4765 -0.1502 -0.2282
10573TIP3    H153134   2.050   0.198   1.305 -0.8660 -2.7253  0.0188
10573TIP3    H253135   1.959   0.266   1.405  0.6863 -0.2681 -0.1555
10574TIP3   OH253136   3.753   1.370  14.393 -0.4418  0.2929  0.1911
10574TIP3    H153137   3.751   1.366  14.297  2.2944  0.8593  0.0219
10574TIP3    H253138   3.728   1.460  14.413 -0.2076  0.4161 -0.0566
10575TIP3   OH253139   4.815   6.650  12.506  0.1855 -0.0179 -0.0125
10575TIP3    H153140   4.910   6.637  12.509  0.1711  0.1494  1.4197
10575TIP3    H253141   4.804   6.745  12.507  0.0024 -0.0072 -1.0790
10576TIP3   OH253142   3.757   0.876   2.848 -0.2186  0.4909 -0.3442
10576TIP3    H153143   3.680   0.927   2.874 -0.0561 -0.2474  1.7548
10576TIP3    H253144   3.723   0.787   2.835 -0.0879  0.6157 -1.6678
10577TIP3   OH253145   5.821   4.235  12.497  0.3710  0.2425 -0.3202
10577TIP3    H153146   5.788   4.147  12.478  0.2905  0.1363  0.2844
10577TIP3    H253147   5.775   4.292  12.435 -1.1458  0.1325  0.6401
10578TIP3   OH253148   3.789   0.105   0.196  0.0769 -0.6040  0.5134
10578TIP3    H153149   3.799   0.199   0.215  0.3547 -0.5382  0.0586
10578TIP3    H253150   3.876   0.068   0.212  0.2015 -0.6238 -0.1802
10579TIP3   OH253151   3.395   3.856   4.591  0.7233 -0.3312 -0.2611
10579TIP3    H153152   3.384   3.835   4.499 -0.6469 -1.2731  0.0828
10579TIP3    H253153   3.481   3.822   4.614  0.7094 -0.8810 -0.9864
10580TIP3   OH253154   5.255   5.875  14.072 -0.3518  0.4812  0.3834
10580TIP3    H153155   5.213   5.920  13.999 -0.7121 -0.9054 -0.3105
10580TIP3    H253156   5.186   5.820  14.110  1.0437 -3.3863 -2.0079
10581TIP3   OH253157   0.728   5.105   2.789 -0.2833  0.1903 -0.2685
10581TIP3    H153158   0.771   5.105   2.704  2.4584 -2.3552  0.9393
10581TIP3    H253159   0.717   5.012   2.811  0.8958  0.6538  2.8912
10582TIP3   OH253160   0.273   3.514   3.773  0.1855  0.1202 -0.1703
10582TIP3    H153161   0.209   3.457   3.732 -1.4427  1.8535 -0.1526
10582TIP3    H253162   0.348   3.512   3.713  0.1917 -1.9951 -0.1545
10583TIP3   OH253163   2.818   5.824   1.429  0.3024 -0.4073 -0.2639
10583TIP3    H153164   2.758   5.864   1.366  0.5012  1.1293  0.4797
10583TIP3    H253165   2.811   5.878   1.507  2.2665 -0.4749  0.0251
10584TIP3   OH253166   4.476   6.011  17.011 -0.6593 -0.4716 -0.5173
10584TIP3    H153167   4.555   6.042  16.968 -0.4373  0.1872  0.3570
10584TIP3    H253168   4.479   6.049  17.099 -1.4692 -1.2096 -0.1570
10585TIP3   OH253169   6.737   4.391   0.260  0.2089  0.2233  0.2188
10585TIP3    H153170   6.757   4.444   0.337 -1.2023  0.8320  0.1855
10585TIP3    H253171   6.671   4.441   0.212 -0.8467 -1.3373 -0.0364
10586TIP3   OH253172   5.894   1.051   0.520  0.9229  0.5590 -0.0591
10586TIP3    H153173   5.876   0.995   0.595  2.1872 -0.8319 -0.7614
10586TIP3    H253174   5.887   0.993   0.444  0.8265  1.6810 -0.9355
10587TIP3   OH253175   0.789   0.613   3.203  0.1064  0.6720 -0.0215
10587TIP3    H153176   0.705   0.573   3.221  0.3051  0.1501 -0.2315
10587TIP3    H253177   0.769   0.706   3.188 -0.6296  0.3118 -1.5053
10588TIP3   OH253178   5.598   2.331   0.396  0.0271  0.2045  0.1341
10588TIP3    H153179   5.564   2.252   0.438 -1.3021  0.8483  0.3352
10588TIP3    H253180   5.693   2.319   0.394 -0.0835 -0.9618  1.0182
10589TIP3   OH253181   4.895   3.096  10.463 -0.0346  0.2669  0.1402
10589TIP3    H153182   4.987   3.121  10.464  0.4303 -0.8025 -2.9013
10589TIP3    H253183   4.850   3.172  10.427  0.1854 -0.2891 -1.3853
10590TIP3   OH253184   5.523   4.513  13.911 -0.3310  0.3715  0.1412
10590TIP3    H153185   5.618   4.509  13.896 -0.3018 -2.0289  0.5783
10590TIP3    H253186   5.495   4.592  13.864  1.7735  0.7562 -0.5909
10591TIP3   OH253187   3.327   4.287  13.336 -0.2027  0.1374 -0.0265
10591TIP3    H153188   3.349   4.201  13.369  1.2173  0.3880 -0.2476
10591TIP3    H253189   3.327   4.277  13.241 -2.1693 -0.0918 -0.0378
10592TIP3   OH253190   3.564   0.479   3.615 -0.2616 -0.2353  0.2864
10592TIP3    H153191   3.592   0.401   3.568  0.9472  0.3380  0.0163
10592TIP3    H253192   3.503   0.523   3.555  1.0861  0.3722 -0.6801
10593TIP3   OH253193   2.735   4.713  10.910 -0.2006 -0.1377 -0.3026
10593TIP3    H153194   2.738   4.619  10.891  0.0730 -0.4749  1.2249
10593TIP3    H253195   2.811   4.750  10.867  0.1895 -0.7844 -0.1763
10594TIP3   OH253196   1.511   4.958   5.419 -0.1559  0.6536 -0.3765
10594TIP3    H153197   1.605   4.971   5.412 -0.2429  1.2589 -0.4677
10594TIP3    H253198   1.489   4.899   5.346 -0.0729  1.7232 -1.2935
10595TIP3   OH253199   3.699   4.936   2.067  0.1764  0.3366  0.0600
10595TIP3    H153200   3.626   4.878   2.086 -0.8446  2.0913  1.8129
10595TIP3    H253201   3.712   4.928   1.972 -3.5023  1.3237 -0.6524
10596TIP3   OH253202   2.362   6.695  16.437  0.3618 -0.2266  0.4021
10596TIP3    H153203   2.444   6.737  16.409  0.1273  0.6318  0.9550
10596TIP3    H253204   2.300   6.714  16.367  0.7269 -1.2116 -0.2053
10597TIP3   OH253205   2.688   2.119   3.123  0.4079  0.0176  0.0387
10597TIP3    H153206   2.653   2.197   3.080 -1.4241 -1.3683 -1.1523
10597TIP3    H253207   2.776   2.108   3.086  0.1926  0.8201 -0.7385
10598TIP3   OH253208   6.679   3.345  11.075 -0.3899 -0.1349 -0.0440
10598TIP3    H153209   6.692   3.404  11.001  0.4251  0.2194  0.3783
10598TIP3    H253210   6.599   3.376  11.117 -0.4948  0.0683 -0.3929
10599TIP3   OH253211   5.050   1.606  17.277  0.2754  0.2121  0.2966
10599TIP3    H153212   4.957   1.593  17.261  0.8621 -2.2604 -1.9032
10599TIP3    H253213   5.078   1.670  17.212  0.4343 -0.4821 -0.3265
10600TIP3   OH253214   3.314   2.892  13.829 -0.4137 -0.0239 -0.4174
10600TIP3    H153215   3.269   2.812  13.858  0.0694  0.6035  2.2623
10600TIP3    H253216   3.284   2.960  13.889 -0.1692  1.6923 -2.1335
10601TIP3   OH253217   5.320   2.272   5.613 -0.3302 -0.8822 -0.3149
10601TIP3    H153218   5.305   2.240   5.701 -2.5876  0.6479 -0.0581
10601TIP3    H253219   5.243   2.244   5.563 -0.5621  0.7993 -0.9964
10602TIP3   OH253220   4.416   4.453   1.676  0.0413  0.6080  0.0779
10602TIP3    H153221   4.361   4.376   1.659 -0.5159  1.4839 -2.6534
10602TIP3    H253222   4.501   4.416   1.702 -0.6312 -0.8726  0.3144
10603TIP3   OH253223   1.674   4.171   0.066  0.1525  0.2174 -0.3496
10603TIP3    H153224   1.590   4.145   0.028  0.2235  0.5133 -0.7200
10603TIP3    H253225   1.671   4.139   0.156 -0.2417 -0.0210 -0.4455
10604TIP3   OH253226   1.354   1.058   5.257  0.2338 -0.8271 -0.0895
10604TIP3    H153227   1.291   1.099   5.197 -0.0814 -0.0244  0.7629
10604TIP3    H253228   1.363   1.121   5.328 -0.0274 -2.1254  1.1232
10605TIP3   OH253229   1.694   0.216   5.062 -0.1153  0.0118 -0.1378
10605TIP3    H153230   1.673   0.258   4.978  0.1290  0.5074  0.0477
10605TIP3    H253231   1.624   0.243   5.121  0.1632  0.3385  0.0425
10606TIP3   OH253232   5.658   4.778  14.304 -0.0078  0.5779  0.5387
10606TIP3    H153233   5.625   4.693  14.333 -2.0144  1.4784  1.1136
10606TIP3    H253234   5.730   4.758  14.244  2.1791 -1.4483  3.5606
10607TIP3   OH253235   2.668   3.616  13.322 -0.3091  0.6022 -0.1411
10607TIP3    H153236   2.726   3.540  13.311 -0.8384  0.2636 -0.6924
10607TIP3    H253237   2.598   3.585  13.379  0.5126  1.2841  1.2813
10608TIP3   OH253238   4.794   2.054   5.622 -0.3144  0.4054 -0.0318
10608TIP3    H153239   4.817   2.098   5.704  0.2847 -0.3960  0.2415
10608TIP3    H253240   4.698   2.061   5.618 -0.3649  0.3464  0.8023
10609TIP3   OH253241   0.369   5.035   6.373 -0.6543  0.4659 -0.0226
10609TIP3    H153242   0.328   4.948   6.372 -3.3475  1.6196 -1.8931
10609TIP3    H253243   0.445   5.026   6.314 -1.6364 -0.3330 -1.2194
10610TIP3   OH253244   1.058   3.548   4.559  0.0276  0.1937  0.3839
10610TIP3    H153245   1.047   3.560   4.653 -0.5921 -0.8035  0.4539
10610TIP3    H253246   1.068   3.454   4.547  0.8734  0.3772 -0.4835
10611TIP3   OH253247   1.435   0.373  12.544 -0.3255  1.0352 -0.2115
10611TIP3    H153248   1.509   0.314  12.531 -1.5079 -0.5934  0.0774
10611TIP3    H253249   1.358   0.315  12.544 -1.4375  2.4146  1.4148
10612TIP3   OH253250   5.737   3.582   1.194  0.6308  0.5801 -0.3524
10612TIP3    H153251   5.694   3.650   1.246  1.3766  0.9924 -0.2539
10612TIP3    H253252   5.811   3.555   1.248  0.1271 -0.5803 -0.2324
10613TIP3   OH253253   5.446   1.264   3.651  0.4664  0.1723 -0.0138
10613TIP3    H153254   5.440   1.172   3.676  2.3131  0.2686  0.9506
10613TIP3    H253255   5.458   1.262   3.556  1.4060 -0.6518  0.1059
10614TIP3   OH253256   5.516   2.327  14.869  0.1279  0.0712  0.1311
10614TIP3    H153257   5.483   2.337  14.958  0.3184 -1.0053  0.3298
10614TIP3    H253258   5.577   2.400  14.857 -0.7418  0.8818  0.4731
10615TIP3   OH253259   6.222   6.188   1.145 -0.1706 -0.1161  0.5304
10615TIP3    H153260   6.199   6.127   1.075 -1.0792 -1.1045  1.6524
10615TIP3    H253261   6.139   6.227   1.172 -0.1880 -1.3318  2.4515
10616TIP3   OH253262   1.262   4.090   1.377  0.5194  0.4976 -0.5332
10616TIP3    H153263   1.206   4.057   1.447 -0.5309  2.2794 -0.4635
10616TIP3    H253264   1.347   4.105   1.419  0.3251  0.1602 -0.0163
10617TIP3   OH253265   4.420   1.458  14.007  0.4294 -0.4586  0.1448
10617TIP3    H153266   4.461   1.544  14.012 -0.0499 -0.1273 -1.0332
10617TIP3    H253267   4.398   1.436  14.097 -0.0111  0.9509  0.4049
10618TIP3   OH253268   3.844   3.693   3.065 -0.1696 -0.0401 -1.1969
10618TIP3    H153269   3.810   3.620   3.116  1.7486  0.8538  1.6500
10618TIP3    H253270   3.900   3.652   2.999  1.8276 -1.2796  1.0720
10619TIP3   OH253271   0.747   1.023  17.051 -0.1466 -0.3198 -0.5238
10619TIP3    H153272   0.738   1.084  16.977 -0.0399 -0.8497 -0.9784
10619TIP3    H253273   0.699   1.065  17.123  0.8886  0.8521 -0.4921
10620TIP3   OH253274   5.283   2.216  15.568 -0.0805 -0.2910 -0.0054
10620TIP3    H153275   5.196   2.194  15.603 -0.1643  0.1249  0.0517
10620TIP3    H253276   5.337   2.228  15.646  0.4081 -2.0141 -0.0456
10621TIP3   OH253277   4.699   6.181   3.629  0.5476 -0.2352  0.0917
10621TIP3    H153278   4.621   6.231   3.652 -1.3418 -2.6942 -0.4622
10621TIP3    H253279   4.748   6.171   3.711 -1.5140 -1.4602  1.2548
10622TIP3   OH253280   0.884   0.184  12.872 -0.2156 -0.6173 -0.0442
10622TIP3    H153281   0.965   0.223  12.838  0.2231 -0.8515  0.7172
10622TIP3    H253282   0.883   0.206  12.965 -1.6774  0.4746 -0.2879
10623TIP3   OH253283   5.205   5.581   3.978 -0.2174  0.2176  0.1605
10623TIP3    H153284   5.292   5.574   3.939 -0.4421 -2.1167 -0.1111
10623TIP3    H253285   5.167   5.660   3.939  0.7991 -0.2098 -1.8210
10624TIP3   OH253286   4.913   3.551  15.937  0.1563  0.7819 -0.1034
10624TIP3    H153287   4.826   3.578  15.907 -0.6427  1.1813  2.3582
10624TIP3    H253288   4.966   3.630  15.932 -0.2688  1.1144  0.4971
10625TIP3   OH253289   4.855   1.179   2.008 -0.3005 -0.3285 -0.4752
10625TIP3    H153290   4.776   1.211   1.964 -1.5005 -0.7597  1.2586
10625TIP3    H253291   4.846   1.084   2.008 -0.2898 -0.3426  0.5776
10626TIP3   OH253292   6.191   4.684  11.841 -0.9452  0.4942 -0.2002
10626TIP3    H153293   6.224   4.608  11.793 -0.0261  0.2857  0.7262
10626TIP3    H253294   6.145   4.736  11.775 -1.3170 -0.7005 -0.9100
10627TIP3   OH253295   3.695   0.009  12.565  0.3507  0.7249  0.8304
10627TIP3    H153296   3.660   0.094  12.594 -1.1329 -0.2550  2.0347
10627TIP3    H253297   3.727  -0.032  12.645  0.4266 -0.1298  0.3671
10628TIP3   OH253298   6.403   4.398  12.729  0.4695 -0.3556 -0.5370
10628TIP3    H153299   6.372   4.483  12.760 -0.6970 -1.5773  1.8932
10628TIP3    H253300   6.498   4.401  12.742  0.4170  0.4921 -0.2970
10629TIP3   OH253301   1.081   6.125  15.670 -0.2083 -0.5840  0.1536
10629TIP3    H153302   1.074   6.061  15.741  1.6894 -1.7929 -0.6714
10629TIP3    H253303   1.089   6.073  15.590 -1.5369  0.7353 -0.8999
10630TIP3   OH253304   6.032   5.909  10.959  0.3294  0.0815 -0.1589
10630TIP3    H153305   5.941   5.882  10.970  0.1658  0.1590 -1.1946
10630TIP3    H253306   6.067   5.850  10.892  1.3745 -0.6594  0.9986
10631TIP3   OH253307   5.546   5.094   4.382  0.1533  0.1064  0.6487
10631TIP3    H153308   5.489   5.040   4.436  1.8182 -0.3136  2.0692
10631TIP3    H253309   5.543   5.181   4.422  1.4582 -0.2274  1.5386
10632TIP3   OH253310   2.199   4.257  17.221 -0.2444  0.4325  0.4286
10632TIP3    H153311   2.161   4.345  17.223  1.8877  1.3898  1.7417
10632TIP3    H253312   2.232   4.242  17.310 -1.8332 -2.3386  0.6729
10633TIP3   OH253313   3.475   3.334   2.769  0.0154 -0.2728 -0.3751
10633TIP3    H153314   3.434   3.252   2.795 -1.7705  1.3499  2.6090
10633TIP3    H253315   3.415   3.373   2.706  0.2062 -0.6723 -0.8047
10634TIP3   OH253316   3.949   4.574   6.648 -0.3855 -0.4821 -0.0992
10634TIP3    H153317   3.922   4.659   6.614  0.7439 -0.1312 -0.1571
10634TIP3    H253318   3.869   4.522   6.649 -0.8513  0.1791 -1.2614
10635TIP3   OH253319   1.084   1.699   4.200 -0.2420 -0.0803 -0.2282
10635TIP3    H153320   1.032   1.724   4.277 -0.6321  1.5315 -0.9726
10635TIP3    H253321   1.020   1.663   4.138 -0.3084  0.7999 -0.6851
10636TIP3   OH253322   2.584   5.386   6.884  0.5647 -0.0753 -0.2889
10636TIP3    H153323   2.593   5.305   6.833  0.8043 -0.2397  0.0108
10636TIP3    H253324   2.571   5.454   6.818 -1.2464 -0.5602 -0.4804
10637TIP3   OH253325   0.818   4.368  15.189 -0.3174  0.0976 -0.7179
10637TIP3    H153326   0.890   4.383  15.127 -1.4301  1.3784 -1.7601
10637TIP3    H253327   0.849   4.404  15.272 -0.0047  1.2996 -1.3324
10638TIP3   OH253328   0.682   0.244  15.880 -0.7146 -0.9975 -0.1657
10638TIP3    H153329   0.762   0.297  15.881  1.7202 -4.3399  0.9282
10638TIP3    H253330   0.620   0.293  15.934  1.2814  0.8195  0.6053
10639TIP3   OH253331   5.172   5.929  13.109  0.6818 -0.2521  0.2034
10639TIP3    H153332   5.087   5.973  13.110  1.0385  0.4625 -0.1811
10639TIP3    H253333   5.178   5.886  13.194  0.1130  0.0473  0.3983
10640TIP3   OH253334   4.507   1.724   3.758 -0.2062  0.1468 -0.2013
10640TIP3    H153335   4.551   1.783   3.819 -0.6150  1.9526 -1.5974
10640TIP3    H253336   4.415   1.746   3.766 -0.6007 -1.6216  0.5928
10641TIP3   OH253337   1.640   5.960  14.015  0.1798  0.0732 -0.1888
10641TIP3    H153338   1.573   5.905  13.974 -1.0942 -0.0062  1.8324
10641TIP3    H253339   1.637   5.935  14.108  1.3220  1.8112  0.3547
10642TIP3   OH253340   4.656   5.452  17.186 -0.5226 -0.0475 -0.0314
10642TIP3    H153341   4.735   5.473  17.137 -0.4823 -1.3610 -0.5688
10642TIP3    H253342   4.606   5.394  17.128 -1.6733  0.4003  0.4785
10643TIP3   OH253343   1.995   1.432  14.139  0.2086 -1.3805  0.0817
10643TIP3    H153344   1.927   1.418  14.072 -0.5074  0.9893  0.2128
10643TIP3    H253345   2.049   1.503  14.103  1.8066 -2.2763  0.6206
10644TIP3   OH253346   2.624   3.993   5.392  0.1665 -0.1290 -0.0382
10644TIP3    H153347   2.563   3.965   5.460  2.1434 -2.1023  1.0383
10644TIP3    H253348   2.569   4.006   5.315 -1.9335  0.6761  1.4895
10645TIP3   OH253349   0.315   5.126   1.499  0.5735 -0.3976 -0.5012
10645TIP3    H153350   0.265   5.142   1.578 -0.0458 -1.0308 -0.7592
10645TIP3    H253351   0.298   5.203   1.444 -2.6172 -1.9140 -1.8551
10646TIP3   OH253352   4.807   1.189  14.258 -0.2655 -0.3283 -0.3124
10646TIP3    H153353   4.738   1.195  14.192 -1.5124  2.9426  1.0870
10646TIP3    H253354   4.888   1.177  14.208 -1.3557  0.3447 -2.3259
10647TIP3   OH253355   3.601   5.886  14.193  0.2413  1.1349 -0.2615
10647TIP3    H153356   3.633   5.889  14.283  1.2426  2.2896 -0.6204
10647TIP3    H253357   3.680   5.885  14.139 -0.1804 -3.5065 -1.1858
10648TIP3   OH253358   3.432   2.432   1.073 -0.3730  0.6610  0.1529
10648TIP3    H153359   3.432   2.506   1.012  0.2366  2.2263  1.9566
10648TIP3    H253360   3.497   2.372   1.038  2.1670  2.8814  0.7431
10649TIP3   OH253361   1.824   2.974  17.018 -0.3011 -0.1220 -0.4474
10649TIP3    H153362   1.849   2.910  17.085  0.8739 -0.7320 -1.4321
10649TIP3    H253363   1.775   2.923  16.953 -1.1630  0.4033 -0.2258
10650TIP3   OH253364   4.441   0.837   2.121 -0.2588  0.7235 -0.1346
10650TIP3    H153365   4.447   0.861   2.214 -0.3428 -1.0625  0.3739
10650TIP3    H253366   4.400   0.750   2.122  1.7515 -0.3283 -1.6669
10651TIP3   OH253367   6.329   3.139   0.451  0.1786 -0.2736 -0.5646
10651TIP3    H153368   6.393   3.144   0.380 -0.5129 -0.8135 -1.2472
10651TIP3    H253369   6.257   3.194   0.421 -0.5687 -1.3463 -0.7857
10652TIP3   OH253370   3.507   6.522   0.802  1.1846 -0.2863 -0.2282
10652TIP3    H153371   3.452   6.599   0.821  0.0890 -1.0356 -0.2937
10652TIP3    H253372   3.578   6.557   0.748  1.3060  0.8719  0.6380
10653TIP3   OH253373   0.509   4.753  16.684  0.6502  0.0560 -0.5380
10653TIP3    H153374   0.582   4.704  16.722 -2.0646 -3.6872  0.4521
10653TIP3    H253375   0.517   4.739  16.589 -0.2321 -2.8937 -0.2751
10654TIP3   OH253376   5.349   4.667   6.425 -0.8907  0.5022 -0.2203
10654TIP3    H153377   5.333   4.715   6.506  1.9346 -0.0975  0.7985
10654TIP3    H253378   5.317   4.578   6.442 -2.3854  0.9180 -0.6557
10655TIP3   OH253379   4.997   1.757  12.165 -0.1118 -0.2299  0.2608
10655TIP3    H153380   4.906   1.732  12.146 -0.6092  2.1072 -0.8213
10655TIP3    H253381   5.016   1.827  12.103  1.5535  1.1514  2.1920
10656TIP3   OH253382   4.535   5.809   1.345  0.0045 -0.9802 -0.3180
10656TIP3    H153383   4.473   5.865   1.299  0.7800  0.2743  0.1346
10656TIP3    H253384   4.586   5.767   1.275 -0.8776 -1.4937 -0.6698
10657TIP3   OH253385   4.207   6.551  12.512 -0.1726 -0.1535  0.1711
10657TIP3    H153386   4.123   6.562  12.557 -0.5313 -1.8821 -0.0164
10657TIP3    H253387   4.258   6.494  12.571  0.2371 -0.4824 -0.4934
10658TIP3   OH253388   3.428   0.459  12.588  0.2312  0.0758 -0.0727
10658TIP3    H153389   3.415   0.457  12.493 -1.0685  0.3210  0.0756
10658TIP3    H253390   3.344   0.430  12.624  0.6328  0.2082  1.0074
10659TIP3   OH253391   6.724   0.768   1.310 -0.8104 -0.8640  0.3423
10659TIP3    H153392   6.683   0.714   1.243  0.5933 -1.5544  0.0026
10659TIP3    H253393   6.684   0.854   1.299 -1.1787 -1.1658 -0.8561
10660TIP3   OH253394   2.422   5.711  10.958  0.0213  0.5612 -0.3469
10660TIP3    H153395   2.335   5.719  10.999  0.3275 -0.1276  0.4666
10660TIP3    H253396   2.464   5.796  10.975 -0.0524  0.4750  0.3225
10661TIP3   OH253397   5.185   0.490   2.170 -0.3413 -0.5697  0.1434
10661TIP3    H153398   5.263   0.440   2.195  0.1835  0.1257 -0.0587
10661TIP3    H253399   5.125   0.479   2.243 -0.2837 -1.5776  0.0567
10662TIP3   OH253400   6.564   4.144  12.902  0.2251  0.3979  0.5841
10662TIP3    H153401   6.587   4.201  12.829 -0.3045 -1.3890 -1.0850
10662TIP3    H253402   6.546   4.059  12.861  0.4150 -0.8297  2.8692
10663TIP3   OH253403   2.794   2.192   0.152 -0.1884  0.1593 -0.0281
10663TIP3    H153404   2.811   2.109   0.106  0.0995 -0.3059  0.8998
10663TIP3    H253405   2.746   2.245   0.088 -1.4713 -1.1667 -0.2188
10664TIP3   OH253406   2.776   6.631  17.193  0.3547  0.4563  0.7938
10664TIP3    H153407   2.848   6.573  17.167  1.0501  0.5674  2.3420
10664TIP3    H253408   2.719   6.634  17.116  1.8470  0.1285 -0.3843
10665TIP3   OH253409   2.782   0.345   1.708  0.3306 -0.2728 -0.1266
10665TIP3    H153410   2.793   0.399   1.630 -0.4670  0.9708  0.5782
10665TIP3    H253411   2.830   0.392   1.777 -1.0483 -0.0059  0.6890
10666TIP3   OH253412   6.671   0.230  15.141 -0.3666 -0.1046 -0.2171
10666TIP3    H153413   6.723   0.186  15.207 -2.3138 -0.4898  1.1475
10666TIP3    H253414   6.616   0.292  15.190 -1.5382 -0.0670 -1.4968
10667TIP3   OH253415   4.329   5.243   5.622 -0.4122  0.1836  0.2613
10667TIP3    H153416   4.264   5.309   5.645 -0.3650 -0.2687  1.8532
10667TIP3    H253417   4.312   5.222   5.530 -1.8773  0.7766  0.3786
10668TIP3   OH253418   4.563   2.832   2.145  0.1983  0.2287  0.6090
10668TIP3    H153419   4.553   2.796   2.233  1.3339 -0.0175  0.6551
10668TIP3    H253420   4.592   2.758   2.092 -0.7197  0.3177 -0.0396
10669TIP3   OH253421   0.190   0.812   4.880  0.8621 -0.1610  0.6161
10669TIP3    H153422   0.210   0.876   4.813 -3.4140  1.4926  0.6035
10669TIP3    H253423   0.187   0.728   4.834 -0.2789  0.6972 -0.9631
10670TIP3   OH253424   6.480   5.408  17.362 -0.3405  0.1916  0.3892
10670TIP3    H153425   6.522   5.329  17.329 -2.1938 -1.6050  2.0323
10670TIP3    H253426   6.391   5.404  17.326 -0.7766  0.9675  1.3522
10671TIP3   OH253427   2.342   4.518  15.646 -0.3029 -0.2915  0.0625
10671TIP3    H153428   2.382   4.500  15.731  0.9245  0.7610 -0.2603
10671TIP3    H253429   2.411   4.560  15.595 -1.5166  0.6266 -0.8969
10672TIP3   OH253430   4.041   5.972   5.185  0.8371  0.5006  0.0341
10672TIP3    H153431   4.004   5.985   5.272  0.1876  0.5224 -0.2469
10672TIP3    H253432   3.995   6.034   5.128  1.4991  0.7308 -0.2640
10673TIP3   OH253433   0.725   3.162   3.105 -0.9015  0.1780  0.0595
10673TIP3    H153434   0.759   3.213   3.031 -2.5957  1.7296  0.2739
10673TIP3    H253435   0.791   3.169   3.173  0.3580 -0.6790 -1.0300
10674TIP3   OH253436   5.217   5.815  15.485 -0.2663  0.1510 -0.4721
10674TIP3    H153437   5.185   5.901  15.514 -1.0794 -0.3691  0.2181
10674TIP3    H253438   5.140   5.758  15.491  0.0046 -0.4009 -1.9227
10675TIP3   OH253439   4.488   3.562  13.430  0.4037  0.0956 -0.7098
10675TIP3    H153440   4.497   3.644  13.480  1.0632  0.6997 -1.7820
10675TIP3    H253441   4.518   3.494  13.490 -0.8628  0.5139  0.4737
10676TIP3   OH253442   1.224   4.113   0.323  0.2344 -0.1804  0.1923
10676TIP3    H153443   1.227   4.125   0.228  0.3640 -2.0663 -0.0731
10676TIP3    H253444   1.292   4.048   0.342 -0.7279 -0.8893  1.3936
10677TIP3   OH253445   2.790   2.803  13.102  0.0710 -0.2455  0.6486
10677TIP3    H153446   2.819   2.862  13.172 -0.2673  0.5476  0.1395
10677TIP3    H253447   2.833   2.838  13.023 -0.0715 -0.7356  0.3523
10678TIP3   OH253448   6.634   2.112   4.089 -0.6231  0.3107  0.0873
10678TIP3    H153449   6.556   2.099   4.036 -0.4902  0.6703 -0.2043
10678TIP3    H253450   6.690   2.168   4.035  0.6531 -1.4779 -0.5535
10679TIP3   OH253451   6.106   2.340  13.697  0.0025  0.4263 -0.0616
10679TIP3    H153452   6.083   2.429  13.672 -2.5564 -0.4427 -1.1461
10679TIP3    H253453   6.041   2.316  13.764  1.2411 -0.3291  0.9252
10680TIP3   OH253454   0.371   3.267   5.656 -0.0382  0.5399 -0.2726
10680TIP3    H153455   0.411   3.281   5.742  0.9883  1.0648 -0.8125
10680TIP3    H253456   0.427   3.316   5.596 -0.5181 -0.1264 -1.2886
10681TIP3   OH253457   0.618   4.564  13.450  0.2691 -0.4348 -0.1853
10681TIP3    H153458   0.690   4.501  13.450 -0.9000 -1.8370 -0.9353
10681TIP3    H253459   0.576   4.552  13.535  0.6925  0.1126  0.1022
10682TIP3   OH253460   6.152   4.165  13.319  0.1487 -0.1168 -0.0564
10682TIP3    H153461   6.095   4.222  13.370 -1.8065 -1.4542 -0.6181
10682TIP3    H253462   6.155   4.084  13.369  2.3195  0.1881  0.3827
10683TIP3   OH253463   5.041   5.939   4.469  0.0285 -0.1084  0.0624
10683TIP3    H153464   5.106   5.992   4.423  1.0714 -2.2998 -1.1250
10683TIP3    H253465   5.088   5.900   4.543 -0.8098  0.8146  1.1205
10684TIP3   OH253466   4.727   3.282   0.537  0.1071 -0.1536  0.1798
10684TIP3    H153467   4.752   3.200   0.581 -1.7880 -0.4427  0.7955
10684TIP3    H253468   4.672   3.255   0.464 -0.5784  0.5697  0.4155
10685TIP3   OH253469   2.716   1.903   4.142 -0.5199 -0.4835 -0.0388
10685TIP3    H153470   2.648   1.949   4.193  0.6284  0.7572  0.4249
10685TIP3    H253471   2.711   1.813   4.172 -2.3599 -0.5555 -0.4389
10686TIP3   OH253472   0.565   5.482  15.088  0.0458  0.0358  0.6506
10686TIP3    H153473   0.511   5.406  15.069  0.4271  0.0178 -0.4234
10686TIP3    H253474   0.653   5.458  15.059  0.7413 -0.0723  2.7178
10687TIP3   OH253475   1.403   4.835  12.488  0.1077 -0.0472 -0.0962
10687TIP3    H153476   1.477   4.775  12.474  0.2524 -0.1226  0.8926
10687TIP3    H253477   1.371   4.855  12.400  0.6789 -0.8002 -0.4867
10688TIP3   OH253478   4.630   4.405   4.780 -0.6452 -0.5972 -0.5635
10688TIP3    H153479   4.582   4.403   4.863  0.7092 -1.9480  0.2436
10688TIP3    H253480   4.623   4.315   4.746  0.7882 -0.6758 -0.7057
10689TIP3   OH253481   6.587   1.400   2.641 -0.1182  0.2380 -0.1981
10689TIP3    H153482   6.674   1.370   2.667  0.4273  1.8847  0.0063
10689TIP3    H253483   6.559   1.456   2.713 -0.4729  1.3205 -1.1382
10690TIP3   OH253484   5.161   0.949   1.797  0.2130  0.0186 -0.1392
10690TIP3    H153485   5.162   1.020   1.733 -0.7109 -0.6466 -0.9415
10690TIP3    H253486   5.121   0.987   1.875 -1.4394  0.0990 -0.9724
10691TIP3   OH253487   0.790   4.391   5.088  0.7944 -0.4297  0.1342
10691TIP3    H153488   0.755   4.383   5.176 -2.4379 -0.9649 -1.0390
10691TIP3    H253489   0.744   4.323   5.038  2.1119  0.1872 -2.0800
10692TIP3   OH253490   5.669   1.889   1.147 -0.1469 -0.2476  0.7081
10692TIP3    H153491   5.626   1.819   1.195 -0.4563 -0.6942 -0.2039
10692TIP3    H253492   5.599   1.931   1.098  0.6234 -2.0620 -2.1514
10693TIP3   OH253493   0.845   0.430  16.066  0.2361 -0.3146  0.2728
10693TIP3    H153494   0.802   0.400  16.146 -0.9687 -1.2751 -0.6958
10693TIP3    H253495   0.865   0.522  16.082 -0.6142 -0.3131  1.4119
10694TIP3   OH253496   1.605   2.977   5.553 -0.0917 -0.7117  0.5884
10694TIP3    H153497   1.628   3.056   5.504 -0.9549 -1.2223 -0.6997
10694TIP3    H253498   1.510   2.982   5.563 -0.0874 -1.3253  0.9792
10695TIP3   OH253499   2.220   2.565  14.163 -0.4896  0.1927 -0.6342
10695TIP3    H153500   2.222   2.535  14.254  0.0504 -0.0141 -0.7100
10695TIP3    H253501   2.286   2.634  14.159 -1.5870  1.2876 -0.5118
10696TIP3   OH253502   0.341   4.609  11.216  0.6376  0.3906 -0.1477
10696TIP3    H153503   0.251   4.582  11.197  0.7231  0.8132 -1.2287
10696TIP3    H253504   0.394   4.534  11.188  0.5677 -0.4348  1.7788
10697TIP3   OH253505   3.965   2.035   3.265  0.1805 -0.4712 -0.4428
10697TIP3    H153506   3.886   2.086   3.282 -0.1969 -0.8643 -0.9793
10697TIP3    H253507   4.023   2.055   3.339 -0.6077 -0.5625  0.2100
10698TIP3   OH253508   4.089   2.840   6.123  0.7077 -0.1642 -0.1907
10698TIP3    H153509   4.149   2.797   6.061  0.8968  0.6089 -0.5624
10698TIP3    H253510   4.093   2.786   6.202  1.4266 -0.4730 -0.4273
10699TIP3   OH253511   5.475   3.180  15.858  0.0666  0.2752 -0.1536
10699TIP3    H153512   5.512   3.147  15.940 -0.7738 -1.6402 -0.4808
10699TIP3    H253513   5.481   3.105  15.798 -1.9864  0.6888 -0.9550
10700TIP3   OH253514   3.867   5.406  12.948 -0.4727 -0.0844  0.1600
10700TIP3    H153515   3.795   5.464  12.924  0.1784  0.8366  0.3603
10700TIP3    H253516   3.943   5.443  12.904  0.4101  0.6083  2.1333
10701TIP3   OH253517   2.471   6.418  11.695 -0.0135 -0.5098  0.1249
10701TIP3    H153518   2.556   6.377  11.681  0.0325 -0.5674  0.5585
10701TIP3    H253519   2.407   6.349  11.678  0.0720 -0.8590  1.1632
10702TIP3   OH253520   6.425   5.879   3.099  0.0330  0.0056 -0.3175
10702TIP3    H153521   6.393   5.819   3.032 -2.3642  0.6057  0.1800
10702TIP3    H253522   6.477   5.825   3.158 -0.8698 -1.2987 -0.6730
10703TIP3   OH253523   0.661   3.132  12.413 -0.2402 -0.0168  0.6651
10703TIP3    H153524   0.684   3.149  12.322  0.5795 -1.0394  0.6553
10703TIP3    H253525   0.588   3.191  12.431 -0.7029 -0.1007 -0.7781
10704TIP3   OH253526   5.804   2.630   3.746 -0.1147  0.0856 -0.0881
10704TIP3    H153527   5.868   2.561   3.726  0.3341  0.7008 -0.8770
10704TIP3    H253528   5.818   2.695   3.677  1.9314  2.6925  2.5585
10705TIP3   OH253529   5.275   0.364  11.764 -0.4838 -0.8238  0.3255
10705TIP3    H153530   5.237   0.450  11.753  1.0173 -0.1397  0.1771
10705TIP3    H253531   5.369   0.381  11.778 -0.3566 -2.3437  1.6058
10706TIP3   OH253532   6.653   0.173  17.192  1.0429  0.5460 -0.3486
10706TIP3    H153533   6.583   0.181  17.126 -0.3208  0.5407  1.0381
10706TIP3    H253534   6.690   0.261  17.198  0.7031  0.7109 -0.6263
10707TIP3   OH253535   3.514   5.782   3.623  0.0553  0.0865  0.3318
10707TIP3    H153536   3.472   5.698   3.640 -1.7023  0.6393 -0.9720
10707TIP3    H253537   3.457   5.847   3.664  1.0301  0.7027  0.7417
10708TIP3   OH253538   2.065   4.966  16.267 -0.9951  0.1179 -0.0516
10708TIP3    H153539   2.129   5.035  16.286 -0.3200  0.4423 -2.9978
10708TIP3    H253540   2.092   4.892  16.321  1.6764  0.3739 -0.9133
10709TIP3   OH253541   5.396   2.291  15.163  0.2588  0.3494 -0.3003
10709TIP3    H153542   5.445   2.209  15.152  2.4681  1.5193  0.1707
10709TIP3    H253543   5.423   2.323  15.249 -2.0304  0.6937  0.3533
10710TIP3   OH253544   2.933   4.279   5.535 -0.5292 -0.3468 -0.1144
10710TIP3    H153545   2.978   4.196   5.548 -1.0714 -0.3724  2.0145
10710TIP3    H253546   3.002   4.341   5.514  0.2728 -0.7698  1.1914
10711TIP3   OH253547   3.135   0.642  16.363 -0.0344 -0.3044  0.3404
10711TIP3    H153548   3.208   0.680  16.412 -0.9238  1.7242  0.1830
10711TIP3    H253549   3.177   0.593  16.292  1.1845 -0.2856  1.0255
10712TIP3   OH253550   6.134   0.504   1.113  0.2464  0.1848  0.4441
10712TIP3    H153551   6.072   0.501   1.040 -0.4487  0.0918  1.0297
10712TIP3    H253552   6.171   0.415   1.117  0.4753  0.2586  0.0546
10713TIP3   OH253553   3.505   4.473   2.445 -0.3285  0.2347 -0.3557
10713TIP3    H153554   3.583   4.528   2.435 -0.8490  1.1963  0.5967
10713TIP3    H253555   3.511   4.439   2.534 -0.8352  0.0697 -0.3822
10714TIP3   OH253556   4.505   2.222   2.765  0.3500  0.0448 -0.6489
10714TIP3    H153557   4.584   2.171   2.780 -0.5366 -1.4182 -0.6998
10714TIP3    H253558   4.436   2.172   2.809 -0.5035  1.4439 -0.3354
10715TIP3   OH253559   2.040   2.450   5.638  0.0866 -0.3530 -0.0468
10715TIP3    H153560   2.050   2.544   5.655  0.0005 -0.4657  0.6812
10715TIP3    H253561   2.095   2.433   5.562  0.3476  0.2338  0.0048
10716TIP3   OH253562   3.345   3.033   1.048 -0.0517 -0.2095 -0.1736
10716TIP3    H153563   3.369   2.969   1.115  0.5457  1.0184  0.8500
10716TIP3    H253564   3.250   3.028   1.043 -0.1806  0.1784  1.3465
10717TIP3   OH253565   6.388   1.150   1.629  0.7563  0.1743 -0.1753
10717TIP3    H153566   6.473   1.141   1.585  0.5596 -1.0543 -0.3390
10717TIP3    H253567   6.407   1.202   1.707  1.4758  0.7464 -0.7186
10718TIP3   OH253568   2.507   0.054   1.269  0.0108 -0.1234 -0.4888
10718TIP3    H153569   2.503  -0.040   1.255  2.2942 -0.1659 -1.2080
10718TIP3    H253570   2.582   0.067   1.328 -1.0342  1.1594  0.6292
10719TIP3   OH253571   6.044   5.126  12.629  0.2879 -0.1713 -0.0261
10719TIP3    H153572   6.091   5.203  12.661 -1.1721  0.9775 -0.5527
10719TIP3    H253573   6.021   5.077  12.708  0.4496  0.4030  0.3803
10720TIP3   OH253574   1.518   3.501  13.694  0.0097 -0.0620 -0.1647
10720TIP3    H153575   1.531   3.419  13.647 -0.9428 -0.0209 -0.5395
10720TIP3    H253576   1.561   3.567  13.639  0.9149 -0.3174  0.2197
10721TIP3   OH253577   3.581   6.075  17.086 -0.7587  0.0289  0.1700
10721TIP3    H153578   3.538   6.158  17.106 -2.5143 -0.2948 -1.8617
10721TIP3    H253579   3.529   6.010  17.132  0.2061 -0.0451  1.1976
10722TIP3   OH253580   5.180   1.619   4.549  0.3544 -0.1881 -0.1388
10722TIP3    H153581   5.123   1.542   4.550  0.7450 -0.5341 -1.5753
10722TIP3    H253582   5.190   1.643   4.641 -2.0533 -0.1318  0.1732
10723TIP3   OH253583   5.379   5.980  14.874  0.2117  0.9457  0.1187
10723TIP3    H153584   5.422   5.945  14.796  1.8038  2.1803  0.4000
10723TIP3    H253585   5.358   5.902  14.926 -0.7303  0.1130 -1.4342
10724TIP3   OH253586   4.965   2.495   1.293  0.2855  0.3961 -0.5619
10724TIP3    H153587   4.945   2.406   1.322 -0.7695 -0.0022 -2.3123
10724TIP3    H253588   4.895   2.515   1.230  0.2292  2.6547  0.1413
10725TIP3   OH253589   2.699   1.676   1.948  0.1619  0.2389  0.0203
10725TIP3    H153590   2.688   1.587   1.913  2.2222 -0.7181  1.6035
10725TIP3    H253591   2.779   1.671   2.000  0.0193  2.9156  0.5972
10726TIP3   OH253592   4.092   1.714  13.675 -0.1458 -0.0160 -0.0927
10726TIP3    H153593   4.068   1.653  13.745  0.2139 -0.7113 -0.5574
10726TIP3    H253594   4.168   1.673  13.633  1.4371  1.7700  0.8877
10727TIP3   OH253595   6.694   2.206   0.317  0.1334  0.0118 -0.0870
10727TIP3    H153596   6.614   2.186   0.365 -1.7052  2.3296 -1.9444
10727TIP3    H253597   6.748   2.254   0.379  1.0139 -3.0711  1.7550
10728TIP3   OH253598   4.946   5.180   3.594 -0.3284 -0.2013 -0.1029
10728TIP3    H153599   4.978   5.232   3.520 -0.2234 -0.2715 -0.1064
10728TIP3    H253600   4.911   5.245   3.655  1.0715  0.0087  0.5273
10729TIP3   OH253601   4.534   2.501   2.752  0.0794 -0.4583  0.5357
10729TIP3    H153602   4.509   2.413   2.725  0.3572 -0.1429 -0.8318
10729TIP3    H253603   4.579   2.489   2.836  0.0368 -1.6059  0.4030
10730TIP3   OH253604   2.143   3.394  11.552  0.6661 -0.3748  0.4786
10730TIP3    H153605   2.061   3.348  11.570  1.4109 -1.1043  2.2279
10730TIP3    H253606   2.156   3.383  11.458 -0.3593 -1.7735  0.4586
10731TIP3   OH253607   3.379   5.445   1.993  0.2433  0.1490 -0.2285
10731TIP3    H153608   3.403   5.360   2.031 -1.4387 -0.8405 -1.2410
10731TIP3    H253609   3.295   5.466   2.033  0.7642  1.5137  0.2166
10732TIP3   OH253610   1.434   0.718  13.552  0.0406 -0.1603 -0.3189
10732TIP3    H153611   1.465   0.800  13.515 -1.2145 -0.2356 -1.6497
10732TIP3    H253612   1.505   0.688  13.609  0.4662  1.8900  0.3032
10733TIP3   OH253613   6.543   6.105   4.930 -0.8781 -0.0120  0.3231
10733TIP3    H153614   6.524   6.166   4.859 -1.0074 -0.4463 -0.0250
10733TIP3    H253615   6.458   6.069   4.955 -0.7576 -0.3875  0.2063
10734TIP3   OH253616   2.261   4.782  16.411 -0.3297 -0.3467 -0.0579
10734TIP3    H153617   2.271   4.737  16.327 -0.6267 -0.2830 -0.1291
10734TIP3    H253618   2.340   4.835  16.420  0.0339 -0.8916  0.0342
10735TIP3   OH253619   3.454   5.647   5.481  0.9243  0.0485 -0.0332
10735TIP3    H153620   3.437   5.580   5.415  2.4007 -0.3774 -0.0055
10735TIP3    H253621   3.549   5.651   5.489  0.8101  0.5457  1.6066
10736TIP3   OH253622   1.176   2.150  12.546  0.1799 -0.5015 -0.6300
10736TIP3    H153623   1.174   2.076  12.484 -1.0315 -0.2312 -0.9407
10736TIP3    H253624   1.217   2.221  12.496 -0.9380 -0.2354 -1.2188
10737TIP3   OH253625   6.201   1.240   6.359 -0.2971 -0.2396 -0.3397
10737TIP3    H153626   6.220   1.186   6.436 -3.0376  0.1999  0.7830
10737TIP3    H253627   6.239   1.325   6.379  1.2687 -0.8306 -0.6874
10738TIP3   OH253628   0.436   2.343  13.510 -0.3202 -0.4187  0.1472
10738TIP3    H153629   0.398   2.404  13.447  0.3656 -0.9967 -0.8693
10738TIP3    H253630   0.513   2.389  13.544 -0.5367 -0.2101  0.3529
10739TIP3   OH253631   4.760   4.709  17.090 -0.2556 -0.1631  0.3354
10739TIP3    H153632   4.809   4.647  17.145  0.9682  0.0191 -0.5031
10739TIP3    H253633   4.670   4.678  17.094  0.4636 -2.7127 -0.9488
10740TIP3   OH253634   0.083   1.017  15.062  0.4328  0.2277  0.4000
10740TIP3    H153635   0.153   1.028  15.126  0.3198 -0.5217  0.6578
10740TIP3    H253636   0.068   0.922  15.057 -0.2108  0.3387 -0.0302
10741TIP3   OH253637   0.348   2.600  13.406 -0.5743  0.4493  0.5072
10741TIP3    H153638   0.334   2.597  13.312  0.5071  0.5324  0.3399
10741TIP3    H253639   0.439   2.627  13.417  0.0383 -1.8441  1.5465
10742TIP3   OH253640   0.916   2.251  13.166 -0.5175 -0.1381  0.1215
10742TIP3    H153641   0.947   2.177  13.115  0.8602 -1.3854  2.5638
10742TIP3    H253642   0.974   2.254  13.242 -0.6153  3.4012  0.2186
10743TIP3   OH253643   3.692   6.160  14.695 -0.5359 -0.2171 -0.2125
10743TIP3    H153644   3.653   6.128  14.614  1.1364 -0.9224 -0.7925
10743TIP3    H253645   3.773   6.204  14.666 -0.0805 -0.1956  1.0460
10744TIP3   OH253646   1.323   5.780  16.734 -0.5133 -0.2542 -0.2996
10744TIP3    H153647   1.305   5.738  16.650 -1.3163  0.1600 -0.3456
10744TIP3    H253648   1.276   5.863  16.730  1.0531  0.6707 -0.2116
10745TIP3   OH253649   0.762   1.242   1.736 -0.0052  0.2231  0.2540
10745TIP3    H153650   0.733   1.253   1.645 -0.1849  2.0251  0.4976
10745TIP3    H253651   0.857   1.252   1.733  0.0965 -0.6590  0.1581
10746TIP3   OH253652   4.838   3.425   5.822 -0.3556 -0.4157 -0.1048
10746TIP3    H153653   4.801   3.513   5.815  1.5655  0.3181 -2.1626
10746TIP3    H253654   4.789   3.372   5.759  1.5945  0.4578 -2.5256
10747TIP3   OH253655   5.404   3.361   5.092 -0.1509  0.0854  0.4455
10747TIP3    H153656   5.432   3.275   5.126  0.1054  0.0677  0.1940
10747TIP3    H253657   5.332   3.340   5.032  1.0318 -0.1226 -0.9318
10748TIP3   OH253658   0.506   1.374  17.196 -0.6232 -0.1560 -0.0110
10748TIP3    H153659   0.505   1.424  17.115 -1.8841 -0.7026 -0.3537
10748TIP3    H253660   0.473   1.287  17.171 -2.6667  0.1542  1.3713
10749TIP3   OH253661   0.864   1.437   4.977  0.6123 -0.1391  0.2456
10749TIP3    H153662   0.858   1.429   4.881  2.4040 -2.3425  0.2434
10749TIP3    H253663   0.821   1.520   4.996  0.4263  0.5065 -2.5048
10750TIP3   OH253664   2.506   2.857   3.267 -0.2945  0.3345 -0.2587
10750TIP3    H153665   2.480   2.814   3.349  1.2510  0.2763  0.2271
10750TIP3    H253666   2.515   2.785   3.205  0.1784  0.1765 -0.0158
10751TIP3   OH253667   0.019   2.548   0.448  1.0712  1.2884  0.4338
10751TIP3    H153668   0.108   2.513   0.452  0.5447 -0.4880 -1.6478
10751TIP3    H253669   0.002   2.562   0.355 -2.1631 -2.3409  0.2363
10752TIP3   OH253670   2.672   2.226  12.926 -0.0405  0.2110 -0.5051
10752TIP3    H153671   2.758   2.266  12.938 -0.4961  0.7776  1.1338
10752TIP3    H253672   2.648   2.194  13.013 -1.6446  0.3761 -0.8553
10753TIP3   OH253673   3.840   5.144  13.035 -0.6259  0.1501  1.3001
10753TIP3    H153674   3.822   5.236  13.013  0.6361  0.6984  2.3797
10753TIP3    H253675   3.932   5.144  13.061 -0.6220 -1.4307  1.3643
10754TIP3   OH253676   6.582   1.371  15.037  0.2085 -0.6345 -0.5353
10754TIP3    H153677   6.614   1.441  14.980 -0.3753 -0.6465 -0.8858
10754TIP3    H253678   6.566   1.414  15.121  0.8787 -0.5751 -0.4362
10755TIP3   OH253679   0.272   2.683  14.508 -0.1935 -0.7477 -0.4912
10755TIP3    H153680   0.293   2.771  14.475  1.2583 -0.8669  0.0099
10755TIP3    H253681   0.179   2.673  14.492 -0.4992  1.0730 -0.1243
10756TIP3   OH253682   3.394   4.155  12.708  0.1336 -0.2769  0.0190
10756TIP3    H153683   3.470   4.137  12.763 -0.9012 -1.8168  1.0201
10756TIP3    H253684   3.319   4.140  12.765 -0.9560 -0.0070 -1.2867
10757TIP3   OH253685   2.265   1.930  17.055 -0.0802 -0.2040 -0.4560
10757TIP3    H153686   2.210   1.867  17.008  0.4005  0.3554 -1.8123
10757TIP3    H253687   2.292   1.884  17.135 -0.6514 -1.2958 -0.8737
10758TIP3   OH253688   2.728   2.676  16.857 -0.3493  0.1937 -0.0466
10758TIP3    H153689   2.675   2.711  16.785 -1.1448 -1.4659 -0.3178
10758TIP3    H253690   2.736   2.583  16.837 -1.2250 -0.4799  2.3801
10759TIP3   OH253691   4.693   1.597   6.149 -0.5565  0.1665  0.8440
10759TIP3    H153692   4.726   1.518   6.105  0.9700  1.8050 -1.1615
10759TIP3    H253693   4.755   1.614   6.219  0.0172  0.4234  0.2853
10760TIP3   OH253694   4.427   0.241   6.123 -0.2171  0.4256  0.3096
10760TIP3    H153695   4.445   0.213   6.212  1.3040  0.4318  0.0293
10760TIP3    H253696   4.440   0.336   6.124 -0.7462  0.5040  0.1999
10761TIP3   OH253697   0.439   6.737   3.620  0.2099  0.5375 -0.4465
10761TIP3    H153698   0.527   6.700   3.611  0.1067  0.2563 -0.3198
10761TIP3    H253699   0.442   6.783   3.704  0.5907  1.5312 -0.9931
10762TIP3   OH253700   3.604   3.155   4.014 -0.2867 -0.3296 -0.3002
10762TIP3    H153701   3.650   3.161   3.931  0.1807  0.5951  0.0092
10762TIP3    H253702   3.671   3.124   4.076 -0.7858 -1.6098 -0.3789
10763TIP3   OH253703   5.845   3.236   2.196 -0.0587  0.4852  0.0128
10763TIP3    H153704   5.772   3.175   2.180  0.1178 -0.1706  1.4912
10763TIP3    H253705   5.876   3.260   2.109 -0.9475 -0.5651 -0.6275
10764TIP3   OH253706   5.883   4.819  12.623 -0.1793 -0.0618 -0.2165
10764TIP3    H153707   5.914   4.856  12.540  1.2601  1.3010  0.8567
10764TIP3    H253708   5.958   4.827  12.682  0.8634 -5.9284 -0.0899
10765TIP3   OH253709   1.039   1.956   1.913 -0.0374 -0.1373  0.4273
10765TIP3    H153710   1.113   1.918   1.961  0.4575 -0.8505 -0.8638
10765TIP3    H253711   0.964   1.903   1.940 -0.3557  1.2900  2.6133
10766TIP3   OH253712   0.444   0.936   5.429 -0.3905  0.1969  0.1242
10766TIP3    H153713   0.372   0.873   5.430 -0.8345  0.7043  1.0154
10766TIP3    H253714   0.474   0.940   5.520 -0.1891  1.0568  0.0286
10767TIP3   OH253715   5.834   3.997  16.289 -0.7328 -0.6998 -0.1999
10767TIP3    H153716   5.769   3.997  16.359  1.5155  2.8011  2.2191
10767TIP3    H253717   5.918   3.988  16.334  0.7099 -2.5629 -2.9413
10768TIP3   OH253718   0.964   3.579   0.938  0.2011 -0.3034 -0.3606
10768TIP3    H153719   0.991   3.502   0.987  0.8833  0.7942  1.0673
10768TIP3    H253720   1.034   3.593   0.875 -0.3778 -1.3613 -1.2755
10769TIP3   OH253721   2.318   6.176  12.394  0.6054  0.2887  0.4075
10769TIP3    H153722   2.356   6.264  12.399  0.6732  0.4615 -2.0966
10769TIP3    H253723   2.394   6.118  12.388  0.5507  0.0526  1.6954
10770TIP3   OH253724   4.535   5.503   5.218 -0.3059  0.1472  0.2502
10770TIP3    H153725   4.455   5.522   5.268 -0.6795 -0.0856 -0.2507
10770TIP3    H253726   4.576   5.588   5.203 -0.7456  0.3234  0.0392
10771TIP3   OH253727   4.797   5.906   2.647  0.0125 -0.6332  0.3502
10771TIP3    H153728   4.751   5.868   2.573  1.1422 -0.1154 -0.6467
10771TIP3    H253729   4.803   6.000   2.627 -2.4557  0.1357  2.6061
10772TIP3   OH253730   3.678   3.541   3.232  0.3552  0.5034 -0.1123
10772TIP3    H153731   3.633   3.542   3.147  1.5339  0.0194 -0.7695
10772TIP3    H253732   3.649   3.459   3.272 -0.0095  0.6086 -0.1527
10773TIP3   OH253733   0.564   0.032   0.798  0.2594 -0.0763 -0.2253
10773TIP3    H153734   0.650   0.044   0.838  0.4305 -0.6250 -0.4189
10773TIP3    H253735   0.572   0.073   0.712  0.9323 -1.7484 -1.0009
10774TIP3   OH253736   5.369   2.939  15.009 -0.6226 -0.0592 -0.3599
10774TIP3    H153737   5.381   2.987  15.091 -1.0898 -1.2099  0.4001
10774TIP3    H253738   5.450   2.957  14.960  0.0057  0.0336  0.6669
10775TIP3   OH253739   4.305   3.323   5.120  0.0170 -0.2479 -0.2759
10775TIP3    H153740   4.291   3.411   5.154  1.1217 -0.3953  0.5997
10775TIP3    H253741   4.361   3.280   5.185  0.1011 -1.3554 -1.0504
10776TIP3   OH253742   1.453   6.497  14.047  0.1233 -0.4589 -0.5521
10776TIP3    H153743   1.422   6.411  14.078 -0.4935 -0.3844 -0.9368
10776TIP3    H253744   1.547   6.486  14.036 -0.1531 -1.6198 -2.2108
10777TIP3   OH253745   3.748   4.681  13.360  0.1528 -0.1809  0.4179
10777TIP3    H153746   3.841   4.683  13.339  0.0037  0.6229 -0.1881
10777TIP3    H253747   3.745   4.693  13.455  0.6452  0.4727  0.3588
10778TIP3   OH253748   6.177   2.539   5.910 -0.1501 -0.3855  0.3163
10778TIP3    H153749   6.251   2.570   5.859  0.2318 -0.6289  0.7183
10778TIP3    H253750   6.118   2.614   5.917 -0.8877 -0.7047 -1.6769
10779TIP3   OH253751   6.146   5.639   3.375  0.2265 -0.1859  0.0270
10779TIP3    H153752   6.176   5.576   3.441  1.5770 -0.1039 -0.4754
10779TIP3    H253753   6.140   5.587   3.294 -1.7629 -0.3700  0.2455
10780TIP3   OH253754   1.612   5.290   2.089 -0.1233  0.8416 -0.3034
10780TIP3    H153755   1.522   5.287   2.057 -0.1669 -0.5969 -0.1166
10780TIP3    H253756   1.606   5.273   2.183  0.4227 -0.7826 -0.5263
10781TIP3   OH253757   3.188   2.563  12.418  0.0018  0.5224  0.6583
10781TIP3    H153758   3.175   2.504  12.492 -0.4685 -0.6661 -0.3457
10781TIP3    H253759   3.102   2.570  12.377  0.2692  1.1162  0.1769
10782TIP3   OH253760   0.795   5.777  11.522  0.7329 -0.3457 -0.1067
10782TIP3    H153761   0.722   5.814  11.472 -1.3952 -1.9091  1.6839
10782TIP3    H253762   0.861   5.847  11.523 -1.3886  1.7834 -0.4092
10783TIP3   OH253763   3.535   4.782   0.543  0.4979 -0.1604 -0.4480
10783TIP3    H153764   3.453   4.770   0.590  0.6535 -0.0410 -0.1475
10783TIP3    H253765   3.508   4.798   0.452  0.0931  1.7047 -0.0467
10784TIP3   OH253766   2.987   6.075   2.155  0.0738  0.3405  0.3334
10784TIP3    H153767   3.053   6.134   2.189  1.1352 -1.4349  1.5094
10784TIP3    H253768   3.006   5.990   2.196 -2.1624 -0.5344 -0.2681
10785TIP3   OH253769   0.015   5.025   4.864  0.2966  0.1004 -0.0130
10785TIP3    H153770   0.028   4.956   4.928 -0.4116 -1.4191 -1.4401
10785TIP3    H253771   0.102   5.063   4.852  1.0756 -1.7209 -0.4681
10786TIP3   OH253772   3.593   5.598   2.389 -0.2918  0.0999  0.3136
10786TIP3    H153773   3.503   5.569   2.377 -0.6573  1.1021  0.5890
10786TIP3    H253774   3.592   5.650   2.469  0.3755  0.7333 -0.0738
10787TIP3   OH253775   1.315   0.188   2.343  0.3219 -0.1806 -0.0320
10787TIP3    H153776   1.298   0.257   2.407  1.4173  0.0430  0.0386
10787TIP3    H253777   1.336   0.235   2.262 -1.5996 -0.4626 -0.7347
10788TIP3   OH253778   2.427   2.145   0.716  0.2790 -0.4304 -0.2879
10788TIP3    H153779   2.430   2.053   0.691  1.0266 -0.5248  0.1044
10788TIP3    H253780   2.517   2.175   0.709  0.4257 -0.2837  1.5288
10789TIP3   OH253781   0.107   2.133  12.629 -0.2537 -0.2536 -0.0552
10789TIP3    H153782   0.122   2.041  12.651  0.5179 -0.3302 -0.8112
10789TIP3    H253783   0.101   2.178  12.713 -0.7742 -1.0181  0.3196
10790TIP3   OH253784   1.847   0.092   0.790  0.1398 -0.9726 -0.7486
10790TIP3    H153785   1.905   0.143   0.847  0.7749 -2.2885 -0.1663
10790TIP3    H253786   1.760   0.128   0.807  0.7222  0.9272 -1.5092
10791TIP3   OH253787   6.328   1.634   0.950 -0.3990 -0.2971 -0.1506
10791TIP3    H153788   6.301   1.603   1.036  0.6540  0.1461  0.3481
10791TIP3    H253789   6.334   1.729   0.958  3.5173 -0.4184  0.5137
10792TIP3   OH253790   5.139   4.890   4.107  0.2875  0.2620 -0.3388
10792TIP3    H153791   5.167   4.942   4.182  1.8990  0.7553 -1.2286
10792TIP3    H253792   5.188   4.808   4.116 -1.3445 -0.6855  0.4155
10793TIP3   OH253793   6.334   1.819   6.770  0.1370  0.0409 -0.2468
10793TIP3    H153794   6.403   1.834   6.835  0.4195 -1.6456 -0.1132
10793TIP3    H253795   6.366   1.862   6.691  0.2633  1.2398  0.4393
10794TIP3   OH253796   2.921   0.067  11.351  0.1236  0.1573 -0.1720
10794TIP3    H153797   3.012   0.040  11.361 -0.2577 -1.6783 -1.1192
10794TIP3    H253798   2.903   0.059  11.257 -0.1661  3.6246 -0.5427
10795TIP3   OH253799   0.771   1.336   3.878 -0.0716 -0.1499  0.0062
10795TIP3    H153800   0.803   1.255   3.838 -1.7418 -0.9938  0.2902
10795TIP3    H253801   0.694   1.309   3.928  0.0840  1.4172  1.1670
10796TIP3   OH253802   3.831   4.301  11.477 -0.0460 -0.0041  0.0154
10796TIP3    H153803   3.795   4.289  11.388 -0.9646 -0.8373  0.4788
10796TIP3    H253804   3.905   4.240  11.481  1.4585  1.6726 -0.9209
10797TIP3   OH253805   4.798   2.920  14.649  0.6203  0.0538 -0.1119
10797TIP3    H153806   4.834   2.834  14.628  0.4463 -0.3335  1.0883
10797TIP3    H253807   4.714   2.924  14.604 -0.1787 -1.1235  1.1965
10798TIP3   OH253808   2.634   6.560   0.960  0.2729 -0.2664 -0.1029
10798TIP3    H153809   2.604   6.536   1.047  3.5313  1.8220  1.7951
10798TIP3    H253810   2.653   6.477   0.917  1.3147 -1.3253  2.2733
10799TIP3   OH253811   2.040   0.638   6.494  0.2005 -0.7858  0.0576
10799TIP3    H153812   1.965   0.607   6.544  0.8234 -0.2836  1.3508
10799TIP3    H253813   2.059   0.568   6.432 -0.6219 -1.4049  0.4897
10800TIP3   OH253814   4.151   5.475   0.850 -0.2956 -0.1635 -0.1524
10800TIP3    H153815   4.070   5.445   0.809  0.5251 -0.4514 -1.6449
10800TIP3    H253816   4.170   5.559   0.808 -0.8451  0.9133  1.6405
10801TIP3   OH253817   1.036   5.640  11.180  0.2642 -0.2564 -0.4436
10801TIP3    H153818   1.063   5.728  11.206 -0.0184 -0.1700 -0.4464
10801TIP3    H253819   1.096   5.617  11.109  0.3237 -0.0592 -0.4580
10802TIP3   OH253820   2.934   1.881  15.792 -0.2161  0.1885 -0.0007
10802TIP3    H153821   2.842   1.894  15.766  0.2772 -0.3970 -2.2496
10802TIP3    H253822   2.947   1.787  15.788  0.5577  0.2902  0.0516
10803TIP3   OH253823   3.028   2.375  13.541  0.8985 -0.6942  0.1467
10803TIP3    H153824   3.105   2.409  13.494  0.6582  2.1459  1.6537
10803TIP3    H253825   2.954   2.402  13.487  0.7895 -0.5197  0.3871
10804TIP3   OH253826   4.436   2.822   1.809  0.3722  0.2883  0.0691
10804TIP3    H153827   4.443   2.750   1.871  2.7109 -0.1688 -0.6354
10804TIP3    H253828   4.512   2.812   1.752 -0.2467  2.2597 -1.1925
10805TIP3   OH253829   0.769   0.805  11.409 -0.6544  0.7665  0.0839
10805TIP3    H153830   0.705   0.738  11.433 -0.1883  0.4687  0.4915
10805TIP3    H253831   0.770   0.804  11.313  2.0487 -2.4316 -0.0143
10806TIP3   OH253832   4.330   6.254   3.308  0.2170 -0.1583  0.0995
10806TIP3    H153833   4.386   6.195   3.359 -0.3331  1.1680  2.4337
10806TIP3    H253834   4.389   6.324   3.279  0.6851 -1.3068 -1.8568
10807TIP3   OH253835   0.332   5.879   0.244 -1.2634 -0.2125 -0.2782
10807TIP3    H153836   0.301   5.895   0.155  0.1762  0.6056 -0.6542
10807TIP3    H253837   0.320   5.963   0.288  0.5087  0.1645 -0.4725
10808TIP3   OH253838   4.648   6.511  14.804  0.3607 -0.1744 -0.1718
10808TIP3    H153839   4.728   6.471  14.837  0.2200  1.1520  2.0056
10808TIP3    H253840   4.672   6.602  14.786 -0.5599  0.1784  0.2859
10809TIP3   OH253841   4.887   1.647   0.906  0.5592  0.7780 -0.1043
10809TIP3    H153842   4.894   1.623   0.999 -0.8367  2.4091  0.4730
10809TIP3    H253843   4.939   1.580   0.861  0.5300 -0.6134  1.7581
10810TIP3   OH253844   5.630   1.017  14.818 -0.2173  0.6744 -0.4856
10810TIP3    H153845   5.670   1.045  14.901 -0.7308 -1.1738  0.4426
10810TIP3    H253846   5.583   1.095  14.787 -0.9379  1.1319  1.5460
10811TIP3   OH253847   1.745   3.658   6.212  0.4688 -0.3606 -0.1767
10811TIP3    H153848   1.718   3.575   6.172 -1.8345  0.0118  0.4318
10811TIP3    H253849   1.770   3.713   6.137  1.9792 -1.5560 -0.5870
10812TIP3   OH253850   0.524   3.125   6.206 -0.1920 -1.1119 -0.2588
10812TIP3    H153851   0.451   3.163   6.157  0.8517 -1.2880 -2.0110
10812TIP3    H253852   0.493   3.124   6.297 -2.0326 -0.4030 -0.8265
10813TIP3   OH253853   3.745   1.691   4.518 -0.1260  0.1708 -0.2259
10813TIP3    H153854   3.834   1.684   4.552 -0.3021 -0.5694  0.1020
10813TIP3    H253855   3.755   1.736   4.434  0.5693  0.0027 -0.2402
10814TIP3   OH253856   1.070   4.647   5.841  0.0656 -0.4943 -0.4091
10814TIP3    H153857   1.089   4.597   5.921  0.6146  1.8997  1.0379
10814TIP3    H253858   1.140   4.622   5.780  1.6179  0.0917  1.0574
10815TIP3   OH253859   5.263   6.543  17.178  0.4391 -0.3500  0.1642
10815TIP3    H153860   5.231   6.454  17.160 -0.6579 -0.1890  1.2380
10815TIP3    H253861   5.217   6.598  17.114  1.3720 -0.5637 -0.7306
10816TIP3   OH253862   5.085   0.590   0.013  0.3135  0.1058 -0.0722
10816TIP3    H153863   5.055   0.539   0.088 -0.7422 -0.2513 -0.7082
10816TIP3    H253864   5.022   0.662   0.006  0.4456  0.1776 -0.5679
10817TIP3   OH253865   0.480   1.565  17.002  0.5210  0.6007 -0.1050
10817TIP3    H153866   0.562   1.613  16.995  1.0492 -0.3069 -0.3896
10817TIP3    H253867   0.414   1.622  16.962  0.8521  1.6660  0.8308
10818TIP3   OH253868   2.243   1.049  15.451  0.1092 -0.3551  0.0783
10818TIP3    H153869   2.259   1.139  15.424 -0.3481 -0.3306 -0.1174
10818TIP3    H253870   2.195   1.010  15.378 -0.1322 -0.6163  0.3732
10819TIP3   OH253871   2.409   6.307   4.935  0.0055 -0.3095 -0.5459
10819TIP3    H153872   2.453   6.239   4.884  2.7677  0.7199  0.2833
10819TIP3    H253873   2.451   6.389   4.908 -0.1248  0.5215  1.5899
10820TIP3   OH253874   6.026   6.176   2.763 -0.6069  0.5723  0.2854
10820TIP3    H153875   6.014   6.267   2.790  1.1927  1.0248 -0.3413
10820TIP3    H253876   6.098   6.178   2.700  0.4647 -1.4529  1.3267
10821TIP3   OH253877   0.332   6.173   1.871 -0.0708  0.4102  0.6933
10821TIP3    H153878   0.381   6.108   1.921  0.1243  1.6809  2.2305
10821TIP3    H253879   0.351   6.256   1.914 -2.0972  1.1965  0.1689
10822TIP3   OH253880   3.455   2.860  17.137 -0.3440 -0.3190 -0.4089
10822TIP3    H153881   3.378   2.881  17.083  0.2258  1.9964 -0.4230
10822TIP3    H253882   3.418   2.832  17.221 -1.2253  1.1696 -0.2731
10823TIP3   OH253883   1.679   0.361   1.622 -0.3953 -0.2162  0.2733
10823TIP3    H153884   1.641   0.449   1.615 -0.2582  0.0961  2.5864
10823TIP3    H253885   1.772   0.374   1.606 -0.7343 -0.4505 -2.1830
10824TIP3   OH253886   2.929   1.945   4.367 -0.3925  0.0193 -0.8381
10824TIP3    H153887   3.010   1.908   4.331  0.3899 -0.8092  1.5568
10824TIP3    H253888   2.882   1.869   4.401 -0.5575  0.8198  0.7854
10825TIP3   OH253889   5.112   1.235  15.917  0.5878  0.5463 -0.0697
10825TIP3    H153890   5.111   1.266  15.826 -1.5078 -0.3152 -0.3924
10825TIP3    H253891   5.200   1.256  15.948  1.7233 -0.0330 -2.6150
10826TIP3   OH253892   1.975   5.462  14.096 -0.2215  0.0728 -0.0835
10826TIP3    H153893   1.920   5.403  14.044 -0.9339  0.0297  0.6960
10826TIP3    H253894   1.940   5.454  14.185  1.6102 -0.6287  0.6153
10827TIP3   OH253895   1.429   0.039  12.790 -0.5654  0.8355 -0.0183
10827TIP3    H153896   1.477   0.120  12.810  0.4015  0.7979 -1.9508
10827TIP3    H253897   1.484  -0.031  12.826 -1.5045  0.9954  1.8400
10828TIP3   OH253898   2.529   4.597  16.362 -0.4165 -0.3774  0.2309
10828TIP3    H153899   2.531   4.529  16.429 -0.1758 -1.0046 -0.4110
10828TIP3    H253900   2.619   4.632  16.361 -0.9206  1.0896  1.6930
10829TIP3   OH253901   6.751   4.152  15.593  0.3646  0.1051  0.5393
10829TIP3    H153902   6.748   4.223  15.657 -0.0346  0.9478 -0.3847
10829TIP3    H253903   6.815   4.090  15.629  1.3639  1.3386  0.9640
10830TIP3   OH253904   4.100   2.228  13.687  0.0941 -0.0159 -0.3668
10830TIP3    H153905   4.104   2.150  13.742  0.9622 -0.4552 -1.0376
10830TIP3    H253906   4.031   2.281  13.727  0.8358 -0.2237  1.2708
10831TIP3   OH253907   5.558   0.069  11.702 -0.1500 -0.1629  0.1133
10831TIP3    H153908   5.561   0.111  11.616  1.3501 -0.1161  0.1569
10831TIP3    H253909   5.577   0.140  11.764 -1.4494 -0.1469  0.5239
10832TIP3   OH253910   4.274   0.133  15.393 -0.0126 -0.5586  0.5383
10832TIP3    H153911   4.332   0.103  15.323 -0.1145 -1.1303  0.6948
10832TIP3    H253912   4.186   0.108  15.362 -0.1525  0.0474  0.4310
10833TIP3   OH253913   6.476   3.851   4.620 -0.2548 -0.0745 -0.7406
10833TIP3    H153914   6.380   3.847   4.624 -0.1807 -1.4449  1.8959
10833TIP3    H253915   6.499   3.924   4.677  0.2627 -1.8434  1.4923
10834TIP3   OH253916   4.487   3.430  14.300 -0.3525  0.3476  0.1740
10834TIP3    H153917   4.473   3.498  14.367  0.4363 -0.6309  1.3746
10834TIP3    H253918   4.561   3.462  14.249 -1.0770  1.1915 -0.4023
10835TIP3   OH253919   2.494   3.383  16.213  0.2280 -0.3976  0.1935
10835TIP3    H153920   2.455   3.470  16.209  0.0306 -0.5087 -0.5605
10835TIP3    H253921   2.568   3.387  16.152  1.1252 -0.3252  1.2611
10836TIP3   OH253922   4.608   0.145  11.140  0.0770 -0.5447 -0.3826
10836TIP3    H153923   4.592   0.224  11.191  1.7585 -0.5161  0.1549
10836TIP3    H253924   4.619   0.177  11.050 -0.0572 -0.2542 -0.2972
10837TIP3   OH253925   4.037   0.727   4.117  0.5820 -0.5076 -0.7167
10837TIP3    H153926   4.059   0.687   4.033  1.5300 -0.6670 -0.4024
10837TIP3    H253927   4.114   0.711   4.172  0.0227 -0.2982  0.1428
10838TIP3   OH253928   3.654   6.549  11.540 -0.2482 -0.6115  0.1321
10838TIP3    H153929   3.708   6.500  11.478 -1.4106 -1.6091 -0.1340
10838TIP3    H253930   3.617   6.482  11.598 -1.6013 -0.0359 -0.0219
10839TIP3   OH253931   1.187   1.078   3.555 -0.4565 -0.1300  0.4549
10839TIP3    H153932   1.210   1.010   3.618  1.6840 -1.0027 -1.1478
10839TIP3    H253933   1.145   1.030   3.483  1.5086  0.0665 -0.9133
10840TIP3   OH253934   0.080   6.125  13.292  0.0434 -0.1641  0.1194
10840TIP3    H153935   0.124   6.177  13.359 -1.8107  0.4875  0.8894
10840TIP3    H253936   0.147   6.063  13.262  2.6999  3.1304 -1.4940
10841TIP3   OH253937   0.957   2.200   3.207  1.1177 -0.6384 -0.2152
10841TIP3    H153938   0.964   2.291   3.179  0.3519 -0.5671 -0.2038
10841TIP3    H253939   0.960   2.204   3.303 -1.2350 -0.3641 -0.0977
10842TIP3   OH253940   5.494   4.814   5.227 -0.9115  0.2298  0.1133
10842TIP3    H153941   5.413   4.764   5.234 -0.8507 -0.4119 -2.6747
10842TIP3    H253942   5.477   4.878   5.158  0.1363  1.8420  1.2718
10843TIP3   OH253943   0.598   0.647   0.331 -0.1047 -0.0037  0.3119
10843TIP3    H153944   0.644   0.636   0.415  1.0817 -1.3143 -0.4612
10843TIP3    H253945   0.509   0.619   0.348  0.5925 -2.1797  0.7141
10844TIP3   OH253946   6.361   3.904   4.996  0.5957  0.3397 -0.3907
10844TIP3    H153947   6.398   3.825   4.958 -1.9338 -1.3952  0.4897
10844TIP3    H253948   6.290   3.928   4.936  0.1397  0.8344  0.3308
10845TIP3   OH253949   4.435   0.604   3.570 -0.0357  0.2025 -0.0976
10845TIP3    H153950   4.470   0.689   3.542  0.3985 -0.5949 -2.1887
10845TIP3    H253951   4.442   0.549   3.492  1.5102 -2.3341  1.6910
10846TIP3   OH253952   3.969   1.063  16.043 -0.5710  0.2191 -0.2819
10846TIP3    H153953   3.993   1.152  16.069 -0.3815 -0.0914  0.6387
10846TIP3    H253954   4.053   1.019  16.031 -0.6669 -0.0380 -0.0074
10847TIP3   OH253955   2.266   0.930   3.574  0.2940  0.3458 -0.9903
10847TIP3    H153956   2.286   0.878   3.653 -0.2791 -0.9744 -1.6721
10847TIP3    H253957   2.345   0.923   3.520 -0.0292 -0.4146 -1.3784
10848TIP3   OH253958   3.260   4.312   4.227 -0.1468 -0.3328 -0.0551
10848TIP3    H153959   3.246   4.388   4.284  1.1093 -0.7926  0.9043
10848TIP3    H253960   3.243   4.237   4.283 -2.6671 -0.8227 -1.3341
10849TIP3   OH253961   3.451   3.276   3.604  0.0899  0.1695 -0.4160
10849TIP3    H153962   3.447   3.340   3.533 -1.3911 -0.8551 -1.3265
10849TIP3    H253963   3.473   3.193   3.562 -0.4300 -0.3835  0.3500
10850TIP3   OH253964   6.044   5.772   2.594  0.3122  0.5884  0.1869
10850TIP3    H153965   6.018   5.827   2.668  1.0441  1.9586 -0.5306
10850TIP3    H253966   6.096   5.702   2.633  2.1478  2.2283  0.8771
10851TIP3   OH253967   6.412   3.521   3.374 -0.2970 -0.4366  0.6437
10851TIP3    H153968   6.331   3.470   3.372  0.3634 -1.6117  2.0955
10851TIP3    H253969   6.410   3.567   3.458  0.1708  0.1702  0.3360
10852TIP3   OH253970   2.853   1.800   1.392  0.3912 -1.3107  0.8956
10852TIP3    H153971   2.818   1.711   1.391 -0.7703 -0.8731 -0.0778
10852TIP3    H253972   2.842   1.829   1.482 -0.8928 -1.5289  0.8181
10853TIP3   OH253973   0.042   4.857  15.263 -0.2184  0.2810  0.1942
10853TIP3    H153974   0.043   4.904  15.347 -2.2535 -2.1486  1.7209
10853TIP3    H253975   0.046   4.764  15.288  0.3474 -0.4971 -2.5001
10854TIP3   OH253976   5.726   6.366   3.187  0.2803  0.2337  0.4569
10854TIP3    H153977   5.754   6.290   3.136 -0.7683  0.7158 -0.8874
10854TIP3    H253978   5.637   6.344   3.215 -0.0985  1.0272 -0.0934
10855TIP3   OH253979   4.629   1.667   4.341 -0.1324 -0.0280 -0.1029
10855TIP3    H153980   4.636   1.671   4.246  2.6578  1.9003  0.0592
10855TIP3    H253981   4.540   1.635   4.358 -0.1055 -2.1794 -3.3139
10856TIP3   OH253982   3.894   1.549   4.084 -0.0840  0.9893 -0.1972
10856TIP3    H153983   3.855   1.613   4.024  0.6880  0.1892 -1.6186
10856TIP3    H253984   3.988   1.552   4.063  0.1160  0.2524  0.5635
10857TIP3   OH253985   1.290   3.576   4.368  0.6259 -0.1494  0.2829
10857TIP3    H153986   1.222   3.535   4.421 -0.4776 -1.4391 -1.9686
10857TIP3    H253987   1.243   3.616   4.295  2.1271  0.8023 -0.2134
10858TIP3   OH253988   6.253   4.527   0.616  0.2817  0.6876 -0.0286
10858TIP3    H153989   6.280   4.569   0.697 -0.0819  0.2716  0.3177
10858TIP3    H253990   6.221   4.441   0.644  1.3008  0.0468 -0.7401
10859TIP3   OH253991   6.743   1.668   2.402  0.3690  0.3109  0.3813
10859TIP3    H153992   6.736   1.711   2.487 -0.7120  0.9529 -0.0209
10859TIP3    H253993   6.834   1.640   2.397  0.4225  0.1450  1.8037
10860TIP3   OH253994   4.660   3.533   5.011  0.0635  0.2227 -0.5765
10860TIP3    H153995   4.716   3.460   5.035 -0.0843  0.8254  1.8376
10860TIP3    H253996   4.715   3.588   4.954  1.9172  0.6819  1.5199
10861TIP3   OH253997   1.498   0.005   1.866  0.0056 -0.0373 -0.9572
10861TIP3    H153998   1.558   0.042   1.930  0.3760 -0.2824 -1.1594
10861TIP3    H253999   1.420   0.060   1.871 -0.2231 -0.4501  0.1645
10862TIP3   OH254000   6.264   1.103  13.254 -0.1587 -0.2166 -0.3154
10862TIP3    H154001   6.320   1.102  13.176 -0.5312 -0.6017 -0.5837
10862TIP3    H254002   6.320   1.137  13.324  0.2687 -0.1595 -0.6835
10863TIP3   OH254003   5.205   4.463  13.589 -0.0198  0.1110 -0.2597
10863TIP3    H154004   5.137   4.445  13.524  0.1134 -0.0890 -0.3434
10863TIP3    H254005   5.246   4.544  13.559  1.7075 -1.2555 -1.8238
10864TIP3   OH254006   0.889   4.454  16.079 -0.3101  0.4356  0.4568
10864TIP3    H154007   0.939   4.383  16.039 -2.9281 -0.2231 -1.9907
10864TIP3    H254008   0.918   4.533  16.034  0.6353  0.5582  1.2388
10865TIP3   OH254009   5.080   3.117  12.282  0.2739  0.2486  0.1023
10865TIP3    H154010   5.123   3.174  12.346  0.2861  1.2532 -0.7756
10865TIP3    H254011   5.061   3.037  12.331 -0.6998  1.3822  1.6673
10866TIP3   OH254012   2.646   0.842  13.720 -0.1576 -0.3080 -0.0693
10866TIP3    H154013   2.650   0.909  13.787 -0.0846  0.0334 -0.4098
10866TIP3    H254014   2.576   0.783  13.749  0.5408 -0.7260  0.8028
10867TIP3   OH254015   1.534   4.566   2.387 -0.1545 -0.4263 -0.3112
10867TIP3    H154016   1.626   4.584   2.368 -0.0644  2.5382  2.0829
10867TIP3    H254017   1.536   4.486   2.439  0.8803 -1.1883 -1.4770
10868TIP3   OH254018   4.861   5.406  15.398 -0.3610  0.2853 -0.3847
10868TIP3    H154019   4.823   5.328  15.359 -1.8117  0.2403  1.0289
10868TIP3    H254020   4.811   5.420  15.478  1.6308  1.1098  0.7987
10869TIP3   OH254021   0.061   0.960   1.705 -0.3440 -0.4478  0.4662
10869TIP3    H154022  -0.033   0.947   1.722 -1.5539  3.1405 -2.3183
10869TIP3    H254023   0.082   0.897   1.636 -1.2650  0.0407 -0.2820
10870TIP3   OH254024   6.745   3.763  12.431 -0.6002  0.7588  0.0284
10870TIP3    H154025   6.772   3.798  12.346  0.1665  1.8967  0.7148
10870TIP3    H254026   6.658   3.798  12.445 -1.6188 -1.0920 -1.1718
10871TIP3   OH254027   4.349   5.849   5.791 -0.3754  0.1448 -0.4226
10871TIP3    H154028   4.418   5.869   5.855  0.2031 -2.6843 -0.0612
10871TIP3    H254029   4.388   5.783   5.733 -2.9155 -2.0375  0.1724
10872TIP3   OH254030   4.738   2.940   2.630  0.2367 -0.5946  0.6038
10872TIP3    H154031   4.644   2.947   2.611  0.9011 -0.3016 -3.7554
10872TIP3    H254032   4.758   2.847   2.613  0.8895 -0.4120  0.3604
10873TIP3   OH254033   2.248   6.408   4.592 -1.3241 -0.0647 -0.2016
10873TIP3    H154034   2.223   6.499   4.579  0.3758  0.2950 -1.3101
10873TIP3    H254035   2.308   6.411   4.667  0.8568  0.2074 -1.8562
10874TIP3   OH254036   5.209   1.074  15.281 -0.4618  0.0841  0.0243
10874TIP3    H154037   5.272   1.003  15.267  0.2481  0.3436  1.6656
10874TIP3    H254038   5.178   1.096  15.194  1.2824 -0.4635 -0.7762
10875TIP3   OH254039   3.863   4.006  16.153  0.1748  0.1036  0.7667
10875TIP3    H154040   3.864   3.941  16.224  0.4464 -0.3963  0.3194
10875TIP3    H254041   3.934   3.978  16.095  0.2138  0.7409  0.5075
10876TIP3   OH254042   3.192   4.736  15.272 -0.7789 -0.4756 -0.6421
10876TIP3    H154043   3.254   4.677  15.229 -0.4146 -2.5015  2.3533
10876TIP3    H254044   3.242   4.816  15.288  0.5456 -1.4119  0.1012
10877TIP3   OH254045   5.511   1.250   0.047 -0.0570  0.3155 -0.2300
10877TIP3    H154046   5.551   1.318   0.102  0.2086 -0.1812  0.1990
10877TIP3    H254047   5.459   1.299  -0.017  0.3903  0.9359 -0.1324
10878TIP3   OH254048   0.270   1.395   3.463  0.2966  0.6287  0.3444
10878TIP3    H154049   0.293   1.313   3.418  1.4141  1.1478 -0.0452
10878TIP3    H254050   0.277   1.462   3.395  0.6088  1.2311  0.9669
10879TIP3   OH254051   1.412   1.197   6.144  0.7620 -0.6557  0.3102
10879TIP3    H154052   1.408   1.274   6.087 -2.7930 -1.1212 -0.2807
10879TIP3    H254053   1.501   1.199   6.180  0.8226  3.8543  0.5128
10880TIP3   OH254054   1.130   0.215   0.632  0.1492  0.3745 -0.2921
10880TIP3    H154055   1.173   0.278   0.690  1.4543  0.1424 -0.9750
10880TIP3    H254056   1.057   0.264   0.594 -0.2877  0.7462  0.9630
10881TIP3   OH254057   5.409   5.194   5.962  0.1231 -0.1840  0.6176
10881TIP3    H154058   5.354   5.203   6.040 -1.5801  0.2001 -0.5681
10881TIP3    H254059   5.439   5.282   5.943 -0.5172 -0.0569  0.1415
10882TIP3   OH254060   6.622   1.856  15.118 -0.1330 -0.3240 -0.1102
10882TIP3    H154061   6.572   1.879  15.196 -0.3148 -2.4441  0.4740
10882TIP3    H254062   6.564   1.798  15.069  1.0451 -1.3407 -0.3489
10883TIP3   OH254063   4.093   2.976  15.548 -0.1573  0.6566 -0.0817
10883TIP3    H154064   4.081   2.883  15.526 -2.8455  0.8507  0.2028
10883TIP3    H254065   4.116   3.017  15.464  1.1525 -0.2469 -0.1950
10884TIP3   OH254066   6.649   0.249  14.190  0.3424 -0.5399 -0.1914
10884TIP3    H154067   6.721   0.217  14.137  0.2443 -1.7912  0.3674
10884TIP3    H254068   6.678   0.334  14.223  1.3521 -0.7997 -0.3766
10885TIP3   OH254069   0.574   0.157   0.563 -0.2789  0.6304 -0.2530
10885TIP3    H154070   0.552   0.214   0.489 -0.2301  1.4619  0.3639
10885TIP3    H254071   0.661   0.124   0.542 -0.3520  0.6944 -0.6669
10886TIP3   OH254072   1.285   4.431   2.688 -0.0939 -0.1570  0.4354
10886TIP3    H154073   1.270   4.424   2.594 -0.2746 -1.7111  0.5565
10886TIP3    H254074   1.203   4.466   2.723 -0.1051  0.2156  0.0492
10887TIP3   OH254075   6.257   1.341   5.304 -0.3853  0.4315  0.8465
10887TIP3    H154076   6.186   1.344   5.240  0.7690 -0.1250 -0.4897
10887TIP3    H254077   6.252   1.253   5.341  0.5062 -0.1295 -0.3227
10888TIP3   OH254078   3.788   5.542  14.938 -0.2857  0.0364  0.0487
10888TIP3    H154079   3.777   5.630  14.904 -1.1419  0.5068  1.4820
10888TIP3    H254080   3.808   5.489  14.860  1.4952  1.6667 -0.6935
10889TIP3   OH254081   3.132   4.381   2.776 -0.1551  0.0149  0.0790
10889TIP3    H154082   3.041   4.405   2.793  0.3044  1.3830  0.7455
10889TIP3    H254083   3.133   4.354   2.684 -0.7933  2.5305 -0.7401
10890TIP3   OH254084   5.761   5.106  15.663 -0.5122  0.2190  0.1255
10890TIP3    H154085   5.698   5.110  15.735 -0.5581 -0.7172  0.1457
10890TIP3    H254086   5.708   5.095  15.585 -0.3737 -1.2037  0.2034
10891TIP3   OH254087   2.030   6.234   4.674 -0.4444 -0.9268  0.1677
10891TIP3    H154088   1.984   6.247   4.591 -0.4021 -0.1250  0.2589
10891TIP3    H254089   2.116   6.272   4.660 -0.4593 -0.7273  0.5964
10892TIP3   OH254090   6.315   6.395   2.369  0.3749  0.3708  0.1691
10892TIP3    H154091   6.393   6.431   2.328 -0.2361 -1.3426 -2.7839
10892TIP3    H254092   6.344   6.311   2.405 -0.2558 -0.9904 -2.2454
10893TIP3   OH254093   5.978   5.419   1.090 -0.1116  0.6686 -0.2238
10893TIP3    H154094   5.943   5.368   1.017 -0.6421 -0.0627  0.5250
10893TIP3    H254095   5.933   5.503   1.084  0.1875  0.7828 -1.0018
10894TIP3   OH254096   5.201   0.845  13.030  0.1614  0.7254  0.2691
10894TIP3    H154097   5.215   0.928  12.985  0.4870  0.9638  0.8056
10894TIP3    H254098   5.286   0.821  13.067  0.4238 -0.5756 -1.0730
10895TIP3   OH254099   2.828   3.282  14.071 -0.2678  0.4225  0.0934
10895TIP3    H154100   2.870   3.268  13.986 -0.9574 -2.0773  0.0940
10895TIP3    H254101   2.859   3.209  14.125 -1.9301  0.4616  1.1432
10896TIP3   OH254102   3.570   4.846   1.451  0.1259 -0.1565  0.4779
10896TIP3    H154103   3.660   4.864   1.424 -0.1319 -0.4901 -0.6524
10896TIP3    H254104   3.558   4.899   1.530  0.8311  1.0434 -0.1913
10897TIP3   OH254105   4.219   1.457  10.785 -0.1617 -0.6608  0.5215
10897TIP3    H154106   4.141   1.506  10.759  1.4974  1.8414 -0.1567
10897TIP3    H254107   4.230   1.478  10.878  0.8844  0.9071  0.0932
10898TIP3   OH254108   0.304   2.440  13.831  1.1574 -0.5977 -0.3043
10898TIP3    H154109   0.246   2.439  13.755  1.0433  1.1698 -0.2602
10898TIP3    H254110   0.359   2.362  13.819 -0.8847 -2.0839 -0.5596
10899TIP3   OH254111   5.775   3.416  15.376 -0.2014 -0.0468 -0.1202
10899TIP3    H154112   5.770   3.412  15.281  1.2756 -1.5824 -0.1864
10899TIP3    H254113   5.868   3.425  15.395 -0.5123  0.7082  1.1888
10900TIP3   OH254114   1.374   1.695  13.122 -0.0029 -0.2664 -0.0917
10900TIP3    H154115   1.391   1.774  13.175 -0.1768 -1.6212  2.1052
10900TIP3    H254116   1.291   1.714  13.078  1.1572  1.7260 -1.6283
10901TIP3   OH254117   1.719   2.857  14.280 -0.0408  0.8588 -0.0466
10901TIP3    H154118   1.671   2.898  14.352 -0.1204  0.2030  0.2860
10901TIP3    H254119   1.808   2.845  14.316 -0.3197 -0.3157  0.2888
10902TIP3   OH254120   0.983   6.301  12.353 -0.2395 -0.0007 -0.9105
10902TIP3    H154121   0.937   6.220  12.334 -0.7768 -0.0802  0.6150
10902TIP3    H254122   1.072   6.286  12.322 -0.7082 -0.6061 -2.0035
10903TIP3   OH254123   2.741   5.822  17.019 -0.9871  0.2502 -0.1246
10903TIP3    H154124   2.695   5.891  16.972  1.7022  2.8806  0.7669
10903TIP3    H254125   2.810   5.794  16.959 -1.0291 -0.4803  0.1575
10904TIP3   OH254126   5.237   3.143  15.608  0.8507 -0.0013  0.2586
10904TIP3    H154127   5.239   3.201  15.532  0.3079 -0.9064 -0.4673
10904TIP3    H254128   5.323   3.100  15.607 -0.1425 -2.2288 -1.6783
10905TIP3   OH254129   6.344   4.582  15.372  0.2549 -0.1389 -0.2128
10905TIP3    H154130   6.385   4.533  15.300  0.2426  0.3165 -0.5299
10905TIP3    H254131   6.251   4.560  15.366  0.0969  0.6614 -0.9554
10906TIP3   OH254132   2.045   5.944   4.816  0.3421  0.0742 -0.3449
10906TIP3    H154133   2.106   5.970   4.885 -2.0890  2.6902  0.9989
10906TIP3    H254134   2.060   6.008   4.746  0.9744 -0.9638 -1.1868
10907TIP3   OH254135   0.091   2.243  11.986 -0.2454  0.5494  0.4816
10907TIP3    H154136   0.026   2.300  12.025  0.5214  1.2770  0.7121
10907TIP3    H254137   0.063   2.233  11.895 -0.9756  0.3945  0.7171
10908TIP3   OH254138   6.754   6.366  11.817  0.4890 -0.2923  0.6140
10908TIP3    H154139   6.663   6.334  11.819  0.3264 -0.0714 -1.1440
10908TIP3    H254140   6.751   6.450  11.862 -0.1499 -0.3550  0.6976
10909TIP3   OH254141   2.300   3.440   6.437 -0.2425  0.3546  0.1111
10909TIP3    H154142   2.264   3.528   6.452  0.8276  0.9448 -0.5950
10909TIP3    H254143   2.395   3.455   6.430 -0.1800 -0.6231 -1.6074
10910TIP3   OH254144   2.728   5.995   5.611  0.1293 -0.2615 -0.4515
10910TIP3    H154145   2.706   6.079   5.651 -0.9847 -0.8952  0.3192
10910TIP3    H254146   2.816   5.976   5.642 -0.0229  0.1196  0.2425
10911TIP3   OH254147   5.499   3.844   5.681  0.5729 -0.1959  0.4209
10911TIP3    H154148   5.516   3.897   5.603  1.7892 -1.2516 -0.0664
10911TIP3    H254149   5.586   3.820   5.713  0.0669 -1.6071  0.8088
10912TIP3   OH254150   3.175   2.751   1.346 -0.5914  0.2578  0.1179
10912TIP3    H154151   3.081   2.760   1.331 -1.4320 -0.8858  3.7409
10912TIP3    H254152   3.183   2.685   1.415  2.9482 -0.1810 -0.5002
10913TIP3   OH254153   2.951   0.967   1.550  0.3021  0.7031  0.2426
10913TIP3    H154154   2.959   1.049   1.599  0.5060  1.3360 -0.8162
10913TIP3    H254155   2.895   0.912   1.605  2.2633  0.5509  2.2325
10914TIP3   OH254156   0.249   0.611   4.275 -0.4556  0.1274  0.5912
10914TIP3    H154157   0.289   0.547   4.333 -0.6585  0.8234  1.5133
10914TIP3    H254158   0.173   0.643   4.323 -0.3435  1.0822  0.1631
10915TIP3   OH254159   6.471   3.239   5.662 -0.2947 -0.0981 -0.4240
10915TIP3    H154160   6.492   3.153   5.698 -0.9452 -0.2485 -0.3897
10915TIP3    H254161   6.417   3.221   5.585 -0.5317  0.2831 -0.3513
10916TIP3   OH254162   0.182   5.680   4.320  0.8795  0.5337 -0.5596
10916TIP3    H154163   0.189   5.591   4.355  1.3826  0.1223 -1.6623
10916TIP3    H254164   0.245   5.731   4.372 -0.1257  0.4935  0.7515
10917TIP3   OH254165   6.478   5.455  11.680  0.2650 -0.4942  0.0263
10917TIP3    H154166   6.412   5.517  11.713 -0.5805 -1.2771 -0.1575
10917TIP3    H254167   6.443   5.425  11.596  0.3640 -1.6427  0.3735
10918TIP3   OH254168   5.280   4.882   3.529 -0.6607 -0.4517 -0.1586
10918TIP3    H154169   5.214   4.914   3.591 -0.9556  0.1797 -0.7800
10918TIP3    H254170   5.258   4.926   3.447  1.2520  0.6819 -0.0970
10919TIP3   OH254171   2.374   4.469  16.162  0.6148  0.1365 -0.2225
10919TIP3    H154172   2.295   4.522  16.150  0.4916 -0.2938 -1.4707
10919TIP3    H254173   2.421   4.512  16.232 -1.2019 -0.1660  1.2625
10920TIP3   OH254174   1.590   0.308   4.800 -0.0299 -0.1677 -0.4169
10920TIP3    H154175   1.559   0.257   4.726 -0.3365 -1.6856  0.7068
10920TIP3    H254176   1.512   0.319   4.855  0.4926 -0.3169  0.3669
10921TIP3   OH254177   0.718   5.333   5.813  0.0440  0.0788  0.2722
10921TIP3    H154178   0.799   5.303   5.854 -1.9004 -0.5217  4.1332
10921TIP3    H254179   0.650   5.273   5.845 -2.4641  2.6537  0.2127
10922TIP3   OH254180   6.732   5.951   4.639  0.1181  0.1097 -0.7365
10922TIP3    H154181   6.687   6.033   4.661  0.3104  0.0261  0.0180
10922TIP3    H254182   6.784   5.972   4.562  0.2181  0.7237 -0.5057
10923TIP3   OH254183   0.999   4.672   4.737 -0.1024 -0.0702 -0.0747
10923TIP3    H154184   0.986   4.618   4.660  0.4806  1.9586 -1.6688
10923TIP3    H254185   1.094   4.675   4.749 -0.1641  0.0105  0.4394
10924TIP3   OH254186   5.442   6.174   4.840 -0.4753  0.2470 -0.6826
10924TIP3    H154187   5.370   6.231   4.816 -0.5831  0.5073  0.2298
10924TIP3    H254188   5.401   6.097   4.879 -0.2589  0.6506  0.3770
10925TIP3   OH254189   0.413   6.550  16.498  0.4466 -0.1045  0.2806
10925TIP3    H154190   0.359   6.478  16.531 -0.7419 -0.1749 -1.6965
10925TIP3    H254191   0.457   6.584  16.576 -0.6306 -1.5691  1.5933
10926TIP3   OH254192   6.082   3.837   0.477 -0.3999  0.4351 -0.3115
10926TIP3    H154193   6.131   3.790   0.409 -0.7753 -1.0351  0.3954
10926TIP3    H254194   6.074   3.774   0.549 -4.0749  0.2300 -0.7035
10927TIP3   OH254195   3.629   5.105   6.071 -0.5981 -0.0280 -0.0411
10927TIP3    H154196   3.552   5.151   6.037 -1.6242 -1.6887 -0.0797
10927TIP3    H254197   3.627   5.123   6.166  0.9120  2.6373 -0.4131
10928TIP3   OH254198   3.788   4.756  11.959  0.3952 -0.0014 -0.1655
10928TIP3    H154199   3.743   4.785  11.879 -0.8333  1.2358  0.9184
10928TIP3    H254200   3.866   4.711  11.927  0.1690  0.8307 -2.0578
10929TIP3   OH254201   0.965   1.740  16.163 -0.0123 -0.7780  0.2049
10929TIP3    H154202   0.869   1.738  16.156  0.0820 -3.5395 -1.7877
10929TIP3    H254203   0.982   1.773  16.251 -2.6776  2.0994 -0.1527
10930TIP3   OH254204   1.721   6.492  14.017  0.0507 -0.0184 -0.4962
10930TIP3    H154205   1.735   6.412  13.967  1.1359  1.0208 -1.9194
10930TIP3    H254206   1.761   6.475  14.102  0.1279 -1.0274 -0.7255
10931TIP3   OH254207   6.573   2.454  16.773 -0.0915  0.0339  0.1681
10931TIP3    H154208   6.523   2.411  16.703 -0.9531 -0.6282  1.1608
10931TIP3    H254209   6.641   2.391  16.796 -0.3084 -0.0965  0.4656
10932TIP3   OH254210   4.612   4.441  15.055 -0.2282 -0.6978 -0.0169
10932TIP3    H154211   4.596   4.381  14.982 -1.1035 -1.6917  0.9642
10932TIP3    H254212   4.574   4.397  15.131  2.4837 -0.6867  1.4649
10933TIP3   OH254213   2.258   5.364   2.833  0.0796  0.0466 -0.0408
10933TIP3    H154214   2.236   5.397   2.920  3.2431 -0.0703  0.9182
10933TIP3    H254215   2.176   5.370   2.783 -1.7716  0.3551  2.8355
10934TIP3   OH254216   1.318   5.241   3.763  0.1919  0.5765 -0.1117
10934TIP3    H154217   1.320   5.169   3.825  0.0872 -0.4171 -1.2140
10934TIP3    H254218   1.400   5.289   3.778  0.8077 -0.4470 -0.1171
10935TIP3   OH254219   4.195   4.006  14.838 -0.1769 -0.0080 -0.0323
10935TIP3    H154220   4.222   4.066  14.769  2.1721  0.2661  1.0378
10935TIP3    H254221   4.165   4.063  14.909 -0.8133 -0.2307 -0.1127
10936TIP3   OH254222   0.978   0.375  13.834  0.1506  0.4656 -0.5440
10936TIP3    H154223   0.994   0.431  13.757 -0.7631  2.0865  0.3798
10936TIP3    H254224   1.066   0.348  13.862  0.5583  0.6348 -1.5859
10937TIP3   OH254225   2.251   6.335   4.152  0.0516 -0.1213 -0.5522
10937TIP3    H154226   2.321   6.303   4.095  2.9975  2.3527  1.3304
10937TIP3    H254227   2.252   6.277   4.227  1.7106  1.1162  0.4495
10938TIP3   OH254228   4.319   5.353  15.719 -0.5185 -0.4031 -0.1606
10938TIP3    H154229   4.302   5.432  15.772  0.2557  1.3324 -2.3359
10938TIP3    H254230   4.410   5.331  15.737 -0.2374  0.2228 -0.7404
10939TIP3   OH254231   1.755   4.199   0.511  0.2569  0.2125 -0.6843
10939TIP3    H154232   1.683   4.232   0.565  0.0438 -2.0583  0.5039
10939TIP3    H254233   1.817   4.272   0.506 -1.0303  1.4068  0.2419
10940TIP3   OH254234   1.581   6.262  14.961 -0.3283  0.0939 -0.0202
10940TIP3    H154235   1.501   6.267  15.013 -0.0958  0.6027  0.2970
10940TIP3    H254236   1.577   6.340  14.905  0.8199  1.1133  1.2786
10941TIP3   OH254237   4.556   2.194  15.160  0.2193  0.1067 -0.4675
10941TIP3    H154238   4.608   2.158  15.232  0.2592 -0.5955 -0.8291
10941TIP3    H254239   4.584   2.143  15.083 -1.3891 -0.6895 -0.5719
10942TIP3   OH254240   5.221   4.502   1.103  0.3028 -0.0248 -0.0141
10942TIP3    H154241   5.226   4.429   1.042 -1.1664 -0.6066  0.5103
10942TIP3    H254242   5.288   4.564   1.073  0.6428 -0.9744 -1.2762
10943TIP3   OH254243   6.684   5.961   2.565  0.0927  0.8431 -0.2684
10943TIP3    H154244   6.611   5.946   2.626 -0.3189  1.5103 -0.5898
10943TIP3    H254245   6.760   5.974   2.622  0.8008 -3.5062  0.1049
10944TIP3   OH254246   4.782   0.460  14.706  0.6082 -0.0072 -0.0385
10944TIP3    H154247   4.836   0.383  14.687  1.6454  0.3639  1.2317
10944TIP3    H254248   4.721   0.429  14.773 -1.4024 -0.6584 -2.0740
10945TIP3   OH254249   3.998   4.597  16.734  0.0857 -0.4645  0.0318
10945TIP3    H154250   3.990   4.683  16.775  3.5676 -0.4160  0.9124
10945TIP3    H254251   4.013   4.617  16.641 -0.0218 -0.1801  0.0744
10946TIP3   OH254252   3.133   4.862  12.084 -0.4439  0.1847 -0.3309
10946TIP3    H154253   3.176   4.890  12.003  0.1299  2.1988  0.6127
10946TIP3    H254254   3.045   4.898  12.079  0.0490  1.5794  0.5440
10947TIP3   OH254255   0.350   5.748   1.165  0.7362  0.2254  0.3838
10947TIP3    H154256   0.432   5.790   1.192  1.6166 -1.2940  0.2301
10947TIP3    H254257   0.375   5.657   1.145 -0.7794  0.0105 -0.7856
10948TIP3   OH254258   3.113   2.841  15.572 -0.0814  0.4479 -0.1000
10948TIP3    H154259   3.084   2.932  15.576 -0.0160  0.5400 -1.3281
10948TIP3    H254260   3.122   2.823  15.478  0.2175 -0.7250  0.1414
10949TIP3   OH254261   3.991   6.025  11.428 -0.1762  0.2462  0.1453
10949TIP3    H154262   4.026   5.971  11.357  1.6940  1.8054 -0.2072
10949TIP3    H254263   3.913   5.978  11.458  0.4201 -1.7429 -1.2364
10950TIP3   OH254264   1.082   3.301  14.779 -0.9074  0.4456  0.1676
10950TIP3    H154265   1.166   3.304  14.823 -0.8884  0.7727  0.1126
10950TIP3    H254266   1.055   3.209  14.784  0.0579  0.0827 -0.9480
10951TIP3   OH254267   2.471   0.418  11.370  0.6759 -0.5211 -0.2559
10951TIP3    H154268   2.510   0.365  11.300  1.3309 -0.2599 -0.0925
10951TIP3    H254269   2.454   0.356  11.441  0.3291 -0.7246 -0.5139
10952TIP3   OH254270   5.026   2.043  12.096 -0.7816 -0.1958  0.3864
10952TIP3    H154271   5.003   2.107  12.030 -2.3191 -0.1397  0.9415
10952TIP3    H254272   5.101   2.081  12.141 -1.9936  1.5050  1.0716
10953TIP3   OH254273   1.798   2.722  11.699 -0.5384 -0.0271 -0.5423
10953TIP3    H154274   1.723   2.663  11.708 -0.0454 -0.8960 -1.7545
10953TIP3    H254275   1.760   2.806  11.676 -1.1800 -0.2454 -0.3002
10954TIP3   OH254276   4.739   6.211  12.473  0.0580 -0.2911 -0.1852
10954TIP3    H154277   4.827   6.189  12.441  0.3292 -0.3145  0.5482
10954TIP3    H254278   4.741   6.306  12.485  0.1185 -0.3400  0.2105
10955TIP3   OH254279   4.614   1.535  16.399  0.0306 -0.6762  0.0738
10955TIP3    H154280   4.708   1.523  16.387  0.1690 -1.2541  1.5779
10955TIP3    H254281   4.602   1.630  16.401  0.3351 -0.5640 -1.7095
10956TIP3   OH254282   2.524   1.075   0.410  0.1415  0.2582 -0.3140
10956TIP3    H154283   2.469   1.148   0.383 -1.3195 -1.1271 -1.2897
10956TIP3    H254284   2.550   1.097   0.500 -1.3225  1.3764 -0.1174
10957TIP3   OH254285   5.720   0.366  12.903 -0.3167  0.2708  0.1479
10957TIP3    H154286   5.639   0.342  12.858 -0.8644  0.0744  1.2070
10957TIP3    H254287   5.779   0.392  12.832 -1.9957  2.5709 -0.5324
10958TIP3   OH254288   2.241   0.679  15.640 -0.0417 -0.1355  0.3052
10958TIP3    H154289   2.248   0.767  15.677  2.1222 -0.1147 -0.0301
10958TIP3    H254290   2.332   0.653  15.623 -0.6748 -2.1925 -0.1799
10959TIP3   OH254291   4.308   5.186   2.885 -0.8457 -0.5738  0.2981
10959TIP3    H154292   4.225   5.232   2.870 -0.4709  0.1784  0.4503
10959TIP3    H254293   4.286   5.117   2.948 -1.0741  0.5986  1.5681
10960TIP3   OH254294   3.382   6.639  13.130  0.2341 -0.0278  0.1843
10960TIP3    H154295   3.465   6.615  13.171 -0.0531 -0.4868  0.4987
10960TIP3    H254296   3.315   6.616  13.194 -0.1773 -0.1380 -0.2715
10961TIP3   OH254297   3.652   3.433   4.066  0.3482 -0.1951 -0.4915
10961TIP3    H154298   3.593   3.357   4.066 -0.2781  0.2891 -0.7347
10961TIP3    H254299   3.594   3.509   4.062  0.8669  0.3908  1.7130
10962TIP3   OH254300   1.084   4.904   4.015  0.1386 -0.1510 -0.0940
10962TIP3    H154301   1.125   4.852   3.945 -1.1087  0.4357 -1.3250
10962TIP3    H254302   0.997   4.926   3.980 -0.0325  1.2652  1.1258
10963TIP3   OH254303   3.480   1.021  17.164  0.1736  0.1960 -0.3376
10963TIP3    H154304   3.555   0.966  17.186 -0.3990 -0.3958  0.2035
10963TIP3    H254305   3.414   0.999  17.230 -0.8384 -0.0522 -1.3921
10964TIP3   OH254306   3.209   5.156  16.485  0.0383  0.0908  0.1553
10964TIP3    H154307   3.266   5.230  16.507  0.2499 -0.5522  1.8719
10964TIP3    H254308   3.244   5.083  16.536 -2.2068 -0.3555  1.1454
10965TIP3   OH254309   5.892   0.443  11.108 -0.1893  0.8871  0.0327
10965TIP3    H154310   5.842   0.411  11.032  0.4055 -1.2142  0.4593
10965TIP3    H254311   5.876   0.537  11.109 -2.7417  0.5473 -0.8490
10966TIP3   OH254312   3.977   6.287   3.735 -0.5751 -0.0770 -0.6913
10966TIP3    H154313   4.058   6.322   3.773 -0.5463 -0.0170 -0.8100
10966TIP3    H254314   4.002   6.202   3.700 -0.8986 -0.7480  0.6405
10967TIP3   OH254315   4.585   1.564   3.212 -0.1885 -0.0632 -0.1334
10967TIP3    H154316   4.551   1.490   3.162 -0.6666 -0.3663  0.6360
10967TIP3    H254317   4.549   1.641   3.169  0.3917 -0.2524 -1.0026
10968TIP3   OH254318   0.948   3.172   5.889 -0.2164  0.2371 -0.1552
10968TIP3    H154319   0.890   3.182   5.965 -1.3089 -1.5465 -0.6849
10968TIP3    H254320   1.035   3.193   5.923 -0.9450  1.5411  1.0419
10969TIP3   OH254321   5.548   3.542  12.201 -0.3795  0.0260 -0.2160
10969TIP3    H154322   5.637   3.510  12.184 -0.6512 -1.4307  0.8430
10969TIP3    H254323   5.499   3.521  12.122 -0.5646 -2.4322  0.4593
10970TIP3   OH254324   5.029   0.750  15.884 -0.7795 -0.7508 -0.1571
10970TIP3    H154325   5.106   0.803  15.862 -1.0014  0.0665  0.9159
10970TIP3    H254326   4.955   0.799  15.849 -0.8737 -1.1410 -0.5070
10971TIP3   OH254327   3.549   5.969   5.037  0.3173  0.6218 -0.2895
10971TIP3    H154328   3.525   5.880   5.064  0.9775  0.5032 -0.0743
10971TIP3    H254329   3.516   5.975   4.947 -0.1221  0.3166 -0.1548
10972TIP3   OH254330   5.225   6.631  13.896  0.2137  0.5179 -0.1137
10972TIP3    H154331   5.166   6.698  13.930 -0.2123 -0.2542  0.7111
10972TIP3    H254332   5.272   6.674  13.825  1.0041  2.1279  1.3217
10973TIP3   OH254333   3.624   4.760   3.457  0.2256 -0.9747 -0.1527
10973TIP3    H154334   3.559   4.788   3.393 -1.5372 -1.1468  1.4711
10973TIP3    H254335   3.577   4.762   3.541  2.2168 -1.4938  1.0309
10974TIP3   OH254336   3.716   0.057   0.926 -0.0666  0.3861 -0.0696
10974TIP3    H154337   3.635   0.071   0.878 -0.1156  0.0723 -0.0799
10974TIP3    H254338   3.750   0.145   0.942 -0.1984  0.5027 -0.4234
10975TIP3   OH254339   2.458   3.525  12.989  0.0232 -0.1306 -0.2954
10975TIP3    H154340   2.377   3.474  12.996  0.4585 -0.6784  1.4237
10975TIP3    H254341   2.523   3.462  12.958  0.3978 -0.4858  1.1231
10976TIP3   OH254342   4.744   0.915  15.672 -0.5149  0.0298 -0.1749
10976TIP3    H154343   4.825   0.941  15.627 -0.0744  1.9408  1.6132
10976TIP3    H254344   4.744   0.819  15.665  0.9230  0.0885 -1.8346
10977TIP3   OH254345   1.221   2.909  14.141  0.4527  0.1409 -0.2356
10977TIP3    H154346   1.270   2.991  14.148  2.6468 -1.0119 -1.1448
10977TIP3    H254347   1.140   2.926  14.190  0.4980  3.0532 -0.9644
10978TIP3   OH254348   6.476   6.702  12.431  0.4180  0.4200 -0.2537
10978TIP3    H154349   6.475   6.795  12.454  0.3512  0.6861 -1.2793
10978TIP3    H254350   6.551   6.667  12.480  0.5441  1.0479  0.0207
10979TIP3   OH254351   1.876   3.763  11.689  0.0162 -0.1580  1.0091
10979TIP3    H154352   1.952   3.748  11.633 -0.6082 -0.7667  0.3111
10979TIP3    H254353   1.885   3.699  11.759 -0.3965 -0.9673  0.3471
10980TIP3   OH254354   1.152   0.741  15.425 -0.2526 -0.5297  0.2052
10980TIP3    H154355   1.077   0.714  15.478 -0.1895  0.0469  0.5912
10980TIP3    H254356   1.222   0.755  15.488 -0.1206 -0.0444 -0.0452
10981TIP3   OH254357   1.917   4.093  15.734  0.0960 -0.4527 -0.0141
10981TIP3    H154358   1.829   4.130  15.738  0.7704  1.4360 -1.4914
10981TIP3    H254359   1.926   4.046  15.817 -2.1451 -0.3868  0.3463
10982TIP3   OH254360   0.419   5.046   2.961 -0.4366  0.3856 -0.4663
10982TIP3    H154361   0.334   5.045   3.004 -0.4575  0.2722 -0.5092
10982TIP3    H254362   0.462   4.967   2.991  0.0024  0.8802  0.2411
10983TIP3   OH254363   5.835   1.477   2.976  0.0358 -0.1529  0.3169
10983TIP3    H154364   5.825   1.534   2.899 -0.0399  0.4148  0.7399
10983TIP3    H254365   5.745   1.465   3.008 -0.1012 -1.5441 -0.4883
10984TIP3   OH254366   5.758   4.884   6.271 -0.3853 -0.6800 -0.1082
10984TIP3    H154367   5.686   4.836   6.228  0.4481 -1.4762 -0.6585
10984TIP3    H254368   5.729   4.894   6.361 -2.4531  1.5342 -0.9131
10985TIP3   OH254369   1.778   4.050   2.034  0.1000  0.5795 -0.3048
10985TIP3    H154370   1.719   3.978   2.011  0.3527  0.9175 -2.1597
10985TIP3    H254371   1.805   4.030   2.124  0.0445 -1.5647 -0.6971
10986TIP3   OH254372   5.645   4.369  15.006  0.1983  0.0088 -0.2825
10986TIP3    H154373   5.656   4.319  14.926  0.6475 -0.9294  0.3458
10986TIP3    H254374   5.627   4.458  14.977  0.7829 -0.2291 -1.4110
10987TIP3   OH254375   4.706   4.695  13.838 -0.4567  0.7651 -0.3052
10987TIP3    H154376   4.791   4.655  13.820 -0.0425  1.4157  0.1638
10987TIP3    H254377   4.720   4.788  13.825 -0.3677  1.1976  2.3891
10988TIP3   OH254378   4.227   1.909  15.191 -0.5726 -0.3742 -0.4721
10988TIP3    H154379   4.196   1.937  15.277  0.2022  1.2527 -0.6858
10988TIP3    H254380   4.322   1.898  15.202 -0.6156 -1.2121 -0.8588
10989TIP3   OH254381   6.054   4.391   5.879  0.4770 -0.6558  0.3026
10989TIP3    H154382   5.983   4.407   5.941  1.8919  0.2083  1.7911
10989TIP3    H254383   6.069   4.297   5.883 -0.8469 -0.9082 -0.3587
10990TIP3   OH254384   5.662   3.615  11.244 -0.0484 -0.1458  0.5415
10990TIP3    H154385   5.734   3.581  11.192  1.0847  0.8482  1.4108
10990TIP3    H254386   5.586   3.610  11.186  1.0291  0.2875 -0.9568
10991TIP3   OH254387   1.828   4.315  17.229 -0.1392 -0.1815  0.4528
10991TIP3    H154388   1.760   4.289  17.291 -0.7608 -1.6685 -0.7696
10991TIP3    H254389   1.860   4.232  17.192 -0.6910  0.6384 -2.1021
10992TIP3   OH254390   1.148   5.511  15.141 -0.4282  0.1083 -0.7557
10992TIP3    H154391   1.242   5.524  15.144 -0.5788  1.2140 -0.6710
10992TIP3    H254392   1.115   5.551  15.222 -1.0014 -0.0542 -0.8997
10993TIP3   OH254393   6.513   5.606   1.887 -0.4096  0.3957 -0.0875
10993TIP3    H154394   6.418   5.593   1.883 -0.3711  0.1768 -0.2507
10993TIP3    H254395   6.524   5.701   1.876 -0.5456  0.3070 -1.0588
10994TIP3   OH254396   0.300   2.411   2.621 -0.2728 -0.3812  0.7697
10994TIP3    H154397   0.380   2.381   2.578  0.3506 -0.0968  1.7186
10994TIP3    H254398   0.315   2.397   2.714 -0.3048  2.0190  1.1975
10995TIP3   OH254399   4.871   4.133   5.799  0.2000  0.4700 -0.1047
10995TIP3    H154400   4.863   4.224   5.769 -0.2205  0.8856  1.2108
10995TIP3    H254401   4.956   4.104   5.766  0.1118  1.1680 -0.9791
10996TIP3   OH254402   0.885   4.037   4.683 -0.1592  0.4731  0.5354
10996TIP3    H154403   0.922   3.950   4.667  0.0557  0.7205 -0.3092
10996TIP3    H254404   0.834   4.057   4.605 -1.0279  0.6920  1.1437
10997TIP3   OH254405   2.676   0.018  11.496 -0.1218  0.2975 -0.3725
10997TIP3    H154406   2.700   0.015  11.589  0.5189  1.6402 -0.4803
10997TIP3    H254407   2.760   0.027  11.450 -0.2696 -1.9790 -1.2151
10998TIP3   OH254408   2.404   3.379   1.103  0.2210 -0.0871 -0.0547
10998TIP3    H154409   2.364   3.351   1.185 -0.0565 -0.3947 -0.2879
10998TIP3    H254410   2.331   3.381   1.041  0.6175 -0.9924 -0.5698
10999TIP3   OH254411   3.705   3.944   6.000 -0.4135  0.0101 -0.2878
10999TIP3    H154412   3.677   3.934   6.091 -2.1457  2.0689 -0.5138
10999TIP3    H254413   3.800   3.950   6.005 -0.1456 -3.2621  0.9728
11000TIP3   OH254414   1.127   0.577   4.256 -0.2726  0.5311 -0.0668
11000TIP3    H154415   1.032   0.591   4.250 -0.3858 -0.3442 -0.4535
11000TIP3    H254416   1.162   0.664   4.275 -1.1261  0.9257 -0.2155
11001TIP3   OH254417   5.346   5.813  17.046 -0.7556 -0.2559 -0.0811
11001TIP3    H154418   5.265   5.807  17.097  0.9225 -0.1650  2.8077
11001TIP3    H254419   5.377   5.723  17.039 -0.0625 -0.0964  0.7290
11002TIP3   OH254420   2.911   2.799   3.077  0.2737  0.4437  0.3181
11002TIP3    H154421   2.852   2.726   3.096 -0.7651 -0.3483 -4.7640
11002TIP3    H254422   2.854   2.874   3.062  0.9269  0.8725 -0.0826
11003TIP3   OH254423   4.230   5.456   4.540 -0.3614 -0.1793 -0.4150
11003TIP3    H154424   4.320   5.451   4.575 -0.8301  0.4588  0.9545
11003TIP3    H254425   4.189   5.374   4.569 -1.5119  1.3879  2.9444
11004TIP3   OH254426   0.629   2.206  11.287  0.2530  0.2189 -0.4243
11004TIP3    H154427   0.545   2.201  11.243 -0.1801  0.2246  0.3722
11004TIP3    H254428   0.647   2.116  11.315  0.2797  0.2961 -0.1861
11005TIP3   OH254429   6.515   1.550  12.187 -0.1905 -0.3860 -0.4714
11005TIP3    H154430   6.499   1.479  12.125 -0.8662  0.8726 -1.8153
11005TIP3    H254431   6.579   1.606  12.144  0.3769 -0.1854  0.5912
11006TIP3   OH254432   0.586   2.528  12.232  0.2991 -0.1516 -0.5084
11006TIP3    H154433   0.525   2.594  12.200 -0.4672  0.3219  1.7060
11006TIP3    H254434   0.571   2.452  12.177 -1.4848  0.3378 -0.7561
11007TIP3   OH254435   0.731   2.017  14.693  0.2073  0.4456  0.3144
11007TIP3    H154436   0.710   2.053  14.607 -0.1683  0.6705  0.4946
11007TIP3    H254437   0.824   2.036  14.706  1.0091 -1.9678 -1.1848
11008TIP3   OH254438   1.260   3.267   3.869  0.0035 -0.3345 -0.0012
11008TIP3    H154439   1.220   3.333   3.813 -1.7060 -0.8484  0.5624
11008TIP3    H254440   1.300   3.205   3.808 -0.5423 -0.1035 -0.6061
11009TIP3   OH254441   4.699   6.668  16.529 -0.3324 -0.0915 -0.5013
11009TIP3    H154442   4.710   6.572  16.531 -0.4503 -0.0898  0.8494
11009TIP3    H254443   4.685   6.692  16.620  2.2817  1.5203 -0.4362
11010TIP3   OH254444   6.082   0.403  11.698  0.0448  0.1645  0.4784
11010TIP3    H154445   6.078   0.378  11.605  1.3623 -1.1875  0.7539
11010TIP3    H254446   6.032   0.335  11.743 -2.0631  1.7287  0.6597
11011TIP3   OH254447   0.442   4.156   1.493 -0.4740  0.3458  0.0756
11011TIP3    H154448   0.534   4.162   1.468  0.1469 -1.8182  1.5652
11011TIP3    H254449   0.406   4.242   1.471  2.0478  1.5038  0.0677
11012TIP3   OH254450   0.920   0.593  14.312  0.2180  0.1043  0.2228
11012TIP3    H154451   0.859   0.649  14.263 -0.0281  0.3383  0.7944
11012TIP3    H254452   0.966   0.654  14.370  0.1871 -0.2378  0.6068
11013TIP3   OH254453   5.162   2.554   1.059 -0.2048 -0.4747  0.0114
11013TIP3    H154454   5.134   2.475   1.014  0.5544 -0.0548 -1.2546
11013TIP3    H254455   5.131   2.543   1.149 -0.9422 -1.7636 -0.3765
11014TIP3   OH254456   6.302   5.625   4.689 -0.1049  0.7904 -0.2538
11014TIP3    H154457   6.218   5.642   4.732  0.4705 -1.9138  2.2760
11014TIP3    H254458   6.365   5.678   4.737 -0.1907  2.2688 -1.6935
11015TIP3   OH254459   2.476   1.540   5.001  0.1937 -0.2628 -0.1817
11015TIP3    H154460   2.431   1.490   4.933  1.2075 -0.7785 -0.4974
11015TIP3    H254461   2.555   1.489   5.020  1.4715  1.4013 -0.8109
11016TIP3   OH254462   4.377   3.586  17.248  0.1591 -0.3337  0.3764
11016TIP3    H154463   4.326   3.642  17.189  0.6649  0.7451  0.9361
11016TIP3    H254464   4.453   3.560  17.196 -0.0502 -0.4622  0.1318
11017TIP3   OH254465   5.324   2.239   0.018  0.2596  0.2094  0.5638
11017TIP3    H154466   5.269   2.249  -0.060  1.3207 -0.4944 -0.3049
11017TIP3    H254467   5.409   2.274  -0.009  0.6703 -0.1595  1.3741
11018TIP3   OH254468   5.234   5.311   2.972 -0.3830  0.3360 -0.4176
11018TIP3    H154469   5.262   5.322   3.063  0.1972 -0.0054 -0.5489
11018TIP3    H254470   5.203   5.398   2.946 -1.2452  0.2616  0.3280
11019TIP3   OH254471   4.731   5.257   1.109  0.2775  0.5633 -0.2447
11019TIP3    H154472   4.693   5.170   1.106 -0.0964  0.6492  1.0467
11019TIP3    H254473   4.787   5.256   1.187  0.3475  1.4367 -0.2708
11020TIP3   OH254474   6.319   6.314  12.088 -0.1227  0.0257  0.2388
11020TIP3    H154475   6.315   6.295  12.182  0.7471 -1.1670  0.0550
11020TIP3    H254476   6.232   6.289  12.056  0.5159 -2.5007  0.2536
11021TIP3   OH254477   3.342   1.995  11.078  0.0699 -0.0478  0.3843
11021TIP3    H154478   3.303   2.077  11.109 -0.2491 -0.1902  0.3631
11021TIP3    H254479   3.355   2.007  10.985 -0.2904 -0.1428  0.3196
11022TIP3   OH254480   6.204   4.445   4.182 -0.3820  0.3994 -0.2960
11022TIP3    H154481   6.121   4.491   4.198 -0.1390  0.7611 -0.0560
11022TIP3    H254482   6.251   4.450   4.265  0.1859  0.8303 -0.6372
11023TIP3   OH254483   6.475   3.391  15.487  0.2823 -0.4731 -0.1565
11023TIP3    H154484   6.481   3.299  15.463  0.3703 -0.4479 -0.2343
11023TIP3    H254485   6.551   3.432  15.444 -0.0495 -0.2707 -0.5601
11024TIP3   OH254486   0.038   6.091   2.868  0.1914  0.1366  0.2963
11024TIP3    H154487   0.105   6.074   2.934  1.8947  0.6754 -1.2111
11024TIP3    H254488   0.009   6.181   2.886  0.8184  0.3651  0.1854
11025TIP3   OH254489   5.573   0.322   4.611 -0.2362  0.6639 -0.3285
11025TIP3    H154490   5.509   0.301   4.543  0.6394 -0.1575 -0.9325
11025TIP3    H254491   5.527   0.303   4.693 -0.7721  0.0800 -0.7481
11026TIP3   OH254492   3.140   5.514   4.274 -0.8914 -0.4544  0.5547
11026TIP3    H154493   3.162   5.478   4.188 -1.5424 -0.8902  0.5587
11026TIP3    H254494   3.184   5.456   4.336 -0.9149 -0.5033  0.5261
11027TIP3   OH254495   1.464   4.475   1.332  0.3719 -0.9301 -0.1389
11027TIP3    H154496   1.391   4.467   1.270  0.3973  0.9018 -0.4590
11027TIP3    H254497   1.445   4.556   1.381  2.1860 -0.3976 -0.2677
11028TIP3   OH254498   2.196   0.529  13.957 -0.0162  0.4844 -0.1852
11028TIP3    H154499   2.257   0.579  14.011 -0.0228  0.5350 -0.2239
11028TIP3    H254500   2.109   0.549  13.994  0.0311  0.0121  0.1867
11029TIP3   OH254501   5.161   3.128  15.153  0.2026  0.4451 -0.4588
11029TIP3    H154502   5.133   3.039  15.128 -0.4577  0.0325  1.5581
11029TIP3    H254503   5.255   3.129  15.135  0.3614 -0.9412  0.1320
11030TIP3   OH254504   2.084   0.887  17.129 -0.4560 -0.3673  0.4331
11030TIP3    H154505   1.992   0.870  17.149 -1.1475  2.1819 -0.2279
11030TIP3    H254506   2.104   0.827  17.057 -2.4308  0.8074 -1.1887
11031TIP3   OH254507   1.606   5.241  15.765 -0.0476  0.4334  0.1872
11031TIP3    H154508   1.599   5.266  15.857  0.3129  1.4819 -0.0614
11031TIP3    H254509   1.530   5.281  15.723 -1.0704 -1.3268  0.2810
11032TIP3   OH254510   1.149   5.344  13.385  0.3582 -0.6693  0.0964
11032TIP3    H154511   1.208   5.276  13.420 -0.0962 -0.3871  1.5063
11032TIP3    H254512   1.176   5.424  13.430  0.2520 -0.1134 -0.8198
11033TIP3   OH254513   2.279   0.369   2.981  0.4293  0.0160  0.8085
11033TIP3    H154514   2.265   0.458   2.947  3.1521 -0.5119 -2.2338
11033TIP3    H254515   2.230   0.313   2.921  2.2507 -0.7204 -0.0761
11034TIP3   OH254516   0.717   5.747   2.271  0.2832  0.2682 -0.6790
11034TIP3    H154517   0.813   5.746   2.277  0.2595  0.2883 -0.2461
11034TIP3    H254518   0.688   5.765   2.360 -0.1128  1.1779 -0.9845
11035TIP3   OH254519   1.090   5.999  17.372 -0.9621  0.2298 -0.0949
11035TIP3    H154520   1.112   6.080  17.325 -0.0232 -0.7534 -1.4514
11035TIP3    H254521   1.013   5.965  17.327 -1.5193  0.4972  0.6471
11036TIP3   OH254522   0.693   6.370  14.881  0.1080 -0.1803  0.0944
11036TIP3    H154523   0.599   6.376  14.902  0.3735  0.1284  1.2723
11036TIP3    H254524   0.712   6.277  14.884 -0.1071 -0.2238  0.1540
11037TIP3   OH254525   6.405   4.501  13.442 -0.1078  0.4638  0.3520
11037TIP3    H154526   6.396   4.461  13.529  3.9076 -0.6910  0.4266
11037TIP3    H254527   6.431   4.429  13.385  0.3928  1.7605 -1.1114
11038TIP3   OH254528   3.647   1.773  15.671 -0.4969 -0.0551 -0.0056
11038TIP3    H154529   3.567   1.742  15.713 -0.9873  1.0299 -0.1272
11038TIP3    H254530   3.668   1.855  15.716  0.6865 -0.4492  0.1881
11039TIP3   OH254531   1.019   1.868  16.403 -0.5847  0.0593 -0.0911
11039TIP3    H154532   0.982   1.931  16.464  2.6763  1.2414  0.9001
11039TIP3    H254533   1.033   1.789  16.455 -1.7410 -0.4240 -0.4916
11040TIP3   OH254534   3.174   4.009  14.573 -0.2747 -0.4946 -0.1143
11040TIP3    H154535   3.098   3.979  14.523 -0.9666 -0.0979  0.6752
11040TIP3    H254536   3.162   3.970  14.660 -0.7586  1.3470  0.6898
11041TIP3   OH254537   6.502   0.498   3.853  0.2608 -0.3634 -0.2985
11041TIP3    H154538   6.570   0.565   3.845 -0.6380  0.4977 -1.0241
11041TIP3    H254539   6.515   0.440   3.778  0.8183 -0.8053  0.1321
11042TIP3   OH254540   3.133   3.768   0.574  0.0101 -0.2326  0.5399
11042TIP3    H154541   3.068   3.838   0.582 -0.9079 -1.0303  0.1821
11042TIP3    H254542   3.096   3.709   0.509 -0.0703 -1.9519  2.0821
11043TIP3   OH254543   1.604   1.030   0.353  0.5665  0.4586 -0.3392
11043TIP3    H154544   1.642   0.959   0.302 -1.7167 -0.7158 -0.5315
11043TIP3    H254545   1.579   0.990   0.436 -0.0563  1.1957 -0.1537
11044TIP3   OH254546   2.205   1.832   5.302  0.1907 -0.3682  0.6925
11044TIP3    H154547   2.301   1.841   5.295  0.0206  0.7414 -0.7407
11044TIP3    H254548   2.192   1.749   5.349  1.8484 -0.2984  1.3543
11045TIP3   OH254549   2.420   6.560  15.605  0.2516 -0.4417 -0.4114
11045TIP3    H154550   2.510   6.528  15.610 -0.5321 -2.5478  2.6785
11045TIP3    H254551   2.368   6.482  15.586 -1.2912 -0.2884  2.6172
11046TIP3   OH254552   5.046   1.453   3.538  0.4527  0.9294  0.1189
11046TIP3    H154553   4.963   1.467   3.582  0.5945 -2.1438  1.6179
11046TIP3    H254554   5.025   1.456   3.444 -0.9635  1.8971  0.4422
11047TIP3   OH254555   3.266   2.114   0.377  0.5191  0.4510  0.0870
11047TIP3    H154556   3.286   2.041   0.319  1.1603 -0.1392  1.0176
11047TIP3    H254557   3.351   2.151   0.400  0.5702 -1.0829  2.8201
11048TIP3   OH254558   0.216   4.286   5.187  0.1105  0.3396  0.1637
11048TIP3    H154559   0.167   4.222   5.135  1.8537 -0.3866 -0.6404
11048TIP3    H254560   0.160   4.303   5.263 -0.1577 -2.6041  0.7248
11049TIP3   OH254561   2.953   5.451  16.228  0.5717  0.2459  0.8739
11049TIP3    H154562   2.929   5.454  16.321  0.7980  0.7015  0.9186
11049TIP3    H254563   3.022   5.386  16.223 -0.3912 -0.8062  0.8043
11050TIP3   OH254564   4.455   1.579  14.774  0.6156 -0.5822  0.5175
11050TIP3    H154565   4.498   1.648  14.826 -2.4177 -0.0829  2.6540
11050TIP3    H254566   4.441   1.508  14.837 -0.5866 -1.1805 -0.3920
11051TIP3   OH254567   5.370   2.331   1.868  0.3268 -0.1094 -0.1925
11051TIP3    H154568   5.391   2.323   1.775 -0.0280 -1.9294 -0.1695
11051TIP3    H254569   5.276   2.316   1.873  0.5094 -1.1629  0.5340
11052TIP3   OH254570   5.974   2.321  11.365 -0.2987  0.0823  0.3183
11052TIP3    H154571   5.901   2.273  11.327 -0.7323  1.6349 -0.9240
11052TIP3    H254572   6.022   2.256  11.417 -1.0865 -1.5641 -0.9320
11053TIP3   OH254573   6.160   1.136   1.477  0.3060 -0.4275 -0.3673
11053TIP3    H154574   6.154   1.052   1.524 -3.0478  0.1406  0.4549
11053TIP3    H254575   6.239   1.176   1.512  0.6737 -2.2147  1.0411
11054TIP3   OH254576   0.893   1.126  11.729  0.4268  0.6279  0.0320
11054TIP3    H154577   0.939   1.137  11.646  2.6806  0.1932  1.1467
11054TIP3    H254578   0.864   1.034  11.729  0.0158  0.7547 -0.4423
11055TIP3   OH254579   2.356   2.070   2.652  0.2566  0.6958  0.6762
11055TIP3    H154580   2.431   2.052   2.709 -0.0606 -1.1379  0.5622
11055TIP3    H254581   2.308   1.987   2.647 -0.4633  1.1597 -1.1767
11056TIP3   OH254582   5.942   4.987  12.098  0.1233 -0.2678  0.4048
11056TIP3    H154583   5.908   5.025  12.179  0.6908 -1.2115  1.1044
11056TIP3    H254584   6.037   4.987  12.111  0.7058  3.7438 -2.1011
11057TIP3   OH254585   3.532   2.652   5.839 -0.4492  0.7087 -0.3588
11057TIP3    H154586   3.540   2.562   5.869 -0.7969 -0.1202 -2.5997
11057TIP3    H254587   3.588   2.702   5.898  0.5943 -1.1119  0.2662
11058TIP3   OH254588   1.220   4.103  12.301  0.0379 -0.5160 -0.9424
11058TIP3    H154589   1.277   4.032  12.270  0.3929 -0.6007 -0.1194
11058TIP3    H254590   1.197   4.077  12.390 -0.7949 -0.1716 -1.0513
11059TIP3   OH254591   1.451   5.821  14.644 -0.0308 -0.3584 -0.1082
11059TIP3    H154592   1.381   5.836  14.708  0.4012  1.4350  0.0168
11059TIP3    H254593   1.467   5.727  14.647  0.0755 -0.3296  2.5579
11060TIP3   OH254594   5.134   3.527  13.406  0.3406  0.1002 -0.4776
11060TIP3    H154595   5.220   3.518  13.449 -0.8750  0.4799  2.2752
11060TIP3    H254596   5.153   3.571  13.323  2.6604  1.8722  0.8491
11061TIP3   OH254597   0.428   1.116  17.123 -0.9258  0.2041 -0.0076
11061TIP3    H154598   0.392   1.079  17.042 -0.7624  1.8530 -0.8900
11061TIP3    H254599   0.369   1.085  17.192 -1.3994 -0.7827 -0.8163
11062TIP3   OH254600   6.608   6.364  11.269 -0.2781  0.5051 -0.3330
11062TIP3    H154601   6.539   6.308  11.233  0.2222  0.2413 -0.9028
11062TIP3    H254602   6.585   6.453  11.240 -0.4454  0.4351 -0.4119
11063TIP3   OH254603   1.453   0.637  16.193  0.1064  0.4487 -0.2857
11063TIP3    H154604   1.484   0.549  16.173 -0.4501  0.0247  0.6324
11063TIP3    H254605   1.358   0.630  16.195  0.0747  0.8976  0.4818
11064TIP3   OH254606   1.235   1.970  17.148 -0.0568 -0.3246  0.5896
11064TIP3    H154607   1.176   1.903  17.113 -0.5496  1.0353 -1.3235
11064TIP3    H254608   1.298   1.986  17.077 -0.2302  1.5403  0.8160
11065TIP3   OH254609   1.726   4.302  16.123 -0.0954  0.1644 -0.3847
11065TIP3    H154610   1.688   4.217  16.101 -1.1112  0.2130  1.0152
11065TIP3    H254611   1.650   4.361  16.127  0.3162  0.6553  0.7260
11066TIP3   OH254612   3.668   4.863  16.801 -0.1265 -0.3813  0.2038
11066TIP3    H154613   3.721   4.906  16.869  0.2316 -1.1488  0.4233
11066TIP3    H254614   3.670   4.770  16.825  0.9796 -0.8350 -1.4895
11067TIP3   OH254615   0.887   5.280   5.572  0.0603  0.9381  0.0980
11067TIP3    H154616   0.924   5.199   5.606 -0.6793 -0.1940 -1.6612
11067TIP3    H254617   0.899   5.344   5.642 -0.4851 -0.9888  2.0180
11068TIP3   OH254618   5.081   4.003   2.511  0.1463  0.1287  0.2552
11068TIP3    H154619   5.009   3.942   2.525 -1.9072  2.5103  0.8127
11068TIP3    H254620   5.112   4.023   2.600 -0.2632  1.0325  0.2078
11069TIP3   OH254621   5.415   4.130   1.695  0.2459 -0.4581 -0.4224
11069TIP3    H154622   5.354   4.202   1.711 -0.1655  0.0268 -3.5374
11069TIP3    H254623   5.426   4.089   1.781 -1.0545  2.0707  1.0854
11070TIP3   OH254624   6.614   5.954  16.366 -0.2789  0.5975 -0.2176
11070TIP3    H154625   6.707   5.961  16.389 -0.7301 -0.8650  2.5545
11070TIP3    H254626   6.595   6.035  16.319  2.3751  0.9153 -0.9232
11071TIP3   OH254627   1.201   3.198   0.158 -0.8075 -0.0554  0.3233
11071TIP3    H154628   1.272   3.223   0.216  0.2417  0.9001 -1.2900
11071TIP3    H254629   1.168   3.281   0.123 -0.9138 -0.6104 -0.9740
11072TIP3   OH254630   3.189   0.217  13.943  0.4611  0.0430  0.3673
11072TIP3    H154631   3.177   0.261  13.859  1.1366  0.8398  0.6858
11072TIP3    H254632   3.281   0.190  13.944  0.5164  0.2313  0.9358
11073TIP3   OH254633   5.267   0.333  14.292 -0.4570  0.1281  0.6965
11073TIP3    H154634   5.306   0.387  14.223 -0.1502 -1.0274 -0.0679
11073TIP3    H254635   5.341   0.307  14.346 -0.4871 -0.1841  0.5888
11074TIP3   OH254636   5.213   6.622  14.542  0.0820  0.5414 -0.3361
11074TIP3    H154637   5.280   6.588  14.601 -0.3891 -0.5761 -0.4137
11074TIP3    H254638   5.222   6.569  14.463 -1.0683  0.1792 -0.2402
11075TIP3   OH254639   4.183   6.638  14.170  0.2067 -0.0079 -0.5772
11075TIP3    H154640   4.236   6.624  14.091  0.0021  1.0765 -0.9238
11075TIP3    H254641   4.095   6.613  14.144  0.4469 -1.3609 -0.1424
11076TIP3   OH254642   5.014   3.596   0.889 -0.2274 -0.3108 -0.0500
11076TIP3    H154643   4.968   3.540   0.826 -1.8042 -0.8878  1.5353
11076TIP3    H254644   5.097   3.618   0.846 -2.1799  1.3543 -3.3865
11077TIP3   OH254645   5.045   3.026  16.541  0.4693  0.4801  0.0671
11077TIP3    H154646   5.110   2.961  16.515  0.9009  1.1199 -0.4894
11077TIP3    H254647   4.961   2.982  16.527  0.7584  0.0313 -0.2905
11078TIP3   OH254648   5.021   3.314  11.972 -0.6610  0.1952  0.3648
11078TIP3    H154649   5.056   3.229  11.999  2.4856  1.1271 -0.3507
11078TIP3    H254650   4.933   3.317  12.009 -0.1590 -2.5652  2.0536
11079TIP3   OH254651   3.997   3.546   5.572  0.2712  0.6843 -0.4012
11079TIP3    H154652   4.043   3.526   5.654  0.3888  0.8706 -0.4194
11079TIP3    H254653   4.016   3.472   5.515 -1.1695 -0.2623  0.2841
11080TIP3   OH254654   0.882   3.026  13.838  0.6937  0.4018  0.6029
11080TIP3    H154655   0.805   2.999  13.888  0.4287  0.4094  0.2057
11080TIP3    H254656   0.946   2.956  13.851  0.6403  0.4210  0.9782
11081TIP3   OH254657   4.910   0.626  15.179 -0.3398  0.9058 -0.1972
11081TIP3    H154658   4.876   0.684  15.110 -0.1443  1.9229  0.5374
11081TIP3    H254659   4.844   0.629  15.248 -0.1372  0.5706  0.0140
11082TIP3   OH254660   0.571   6.706   6.033 -0.5216 -0.4728 -0.0398
11082TIP3    H154661   0.596   6.636   6.093  0.1730 -0.1411  0.0646
11082TIP3    H254662   0.625   6.692   5.956 -1.1955 -0.7183 -0.4795
11083TIP3   OH254663   4.159   2.535   4.187  0.6439  0.3548  0.1131
11083TIP3    H154664   4.225   2.479   4.145  0.6423 -0.0979  0.6976
11083TIP3    H254665   4.163   2.617   4.138  1.3609  0.1948 -0.1119
11084TIP3   OH254666   4.520   5.867  14.148 -0.2889  0.3338  0.6578
11084TIP3    H154667   4.536   5.805  14.219  1.0907 -1.3212 -0.9875
11084TIP3    H254668   4.581   5.939  14.166 -0.4282  0.2502  1.5057
11085TIP3   OH254669   5.130   5.701   4.224  0.4328  0.2763  0.4845
11085TIP3    H154670   5.167   5.640   4.161  1.4404 -0.0041  1.3190
11085TIP3    H254671   5.152   5.788   4.190 -2.5825  0.3651 -1.6941
11086TIP3   OH254672   0.488   4.434   3.541  0.9089 -0.1112  0.2040
11086TIP3    H154673   0.395   4.443   3.524  0.8815 -0.5972  0.0936
11086TIP3    H254674   0.500   4.342   3.565  1.6724 -0.5933 -1.8045
11087TIP3   OH254675   2.378   1.056   3.823 -0.2850 -0.0149  0.2660
11087TIP3    H154676   2.454   0.998   3.835 -0.4958 -0.2579  0.4431
11087TIP3    H254677   2.387   1.089   3.734  0.3448  0.4151  0.4847
11088TIP3   OH254678   2.928   5.562  17.207  0.5951  0.3920  0.2802
11088TIP3    H154679   2.958   5.569  17.117 -0.3548 -0.3009 -0.1157
11088TIP3    H254680   2.933   5.651  17.241  1.2012  0.6182 -0.3713
11089TIP3   OH254681   6.701   4.443  11.576  0.4469  0.1612 -0.8645
11089TIP3    H154682   6.724   4.510  11.641 -1.5438  2.6177 -2.5140
11089TIP3    H254683   6.770   4.450  11.510  0.0466  0.8914 -1.2164
11090TIP3   OH254684   3.772   2.859   3.491  0.2793 -0.1286 -0.5071
11090TIP3    H154685   3.813   2.818   3.414  1.4690 -0.0997  0.0847
11090TIP3    H254686   3.832   2.840   3.563 -0.2663  0.7774  0.2099
11091TIP3   OH254687   4.676   4.738   0.735 -0.0602  0.1426  0.3479
11091TIP3    H154688   4.677   4.657   0.786 -0.0426  1.1762  2.0661
11091TIP3    H254689   4.658   4.710   0.646 -1.7597 -1.5995  1.1707
11092TIP3   OH254690   2.644   3.728   5.342  0.1673  0.0857 -0.3525
11092TIP3    H154691   2.557   3.743   5.306 -0.4364  0.5243  1.1896
11092TIP3    H254692   2.671   3.813   5.377 -0.0911 -0.6495  1.8034
11093TIP3   OH254693   6.378   1.049  16.767 -0.3005  0.2872  0.1096
11093TIP3    H154694   6.381   0.999  16.686 -1.4170  1.8138 -0.9370
11093TIP3    H254695   6.315   1.119  16.750  0.4851  1.4955  1.8138
11094TIP3   OH254696   6.428   0.886  16.527 -0.1215  0.0361 -0.0560
11094TIP3    H154697   6.466   0.967  16.495  1.3365 -0.2265  0.9208
11094TIP3    H254698   6.419   0.831  16.449  1.5160  0.1279 -0.3473
11095TIP3   OH254699   3.280   2.509  13.720  0.6141  0.4929  0.8702
11095TIP3    H154700   3.231   2.582  13.681  2.1265  1.9265  1.5255
11095TIP3    H254701   3.222   2.476  13.789 -0.6016  0.2496 -0.2417
11096TIP3   OH254702   4.804   4.214   2.135 -0.2320 -0.1067  0.5045
11096TIP3    H154703   4.887   4.203   2.088 -0.0676 -0.8074  0.9412
11096TIP3    H254704   4.827   4.198   2.227 -0.3160  2.2919  1.0139
11097TIP3   OH254705   3.772   0.625   0.398  0.0127  0.0371  0.0068
11097TIP3    H154706   3.687   0.616   0.442 -0.2248 -1.4631 -0.7045
11097TIP3    H254707   3.825   0.554   0.434  0.4715  0.0433 -0.6469
11098TIP3   OH254708   6.347   0.287  15.260  0.5957  0.0081  0.0732
11098TIP3    H154709   6.310   0.279  15.172 -0.1406  1.8551  0.1555
11098TIP3    H254710   6.271   0.292  15.318  1.0708 -0.9929  0.8187
11099TIP3   OH254711   2.685   5.283   3.530  0.3042  0.3470  0.4675
11099TIP3    H154712   2.609   5.336   3.505 -1.2712 -1.1149  1.8563
11099TIP3    H254713   2.690   5.293   3.625  1.4538 -0.1153  0.4687
11100TIP3   OH254714   5.711   5.152   2.834  0.1811 -0.2785 -0.0526
11100TIP3    H154715   5.717   5.072   2.886  0.8513  0.2212  0.6666
11100TIP3    H254716   5.793   5.153   2.783  0.2780  0.0550  0.1072
11101TIP3   OH254717   2.140   1.917  11.318 -0.3294  0.4216  0.0533
11101TIP3    H154718   2.111   1.873  11.397  1.6847  0.0224  0.6032
11101TIP3    H254719   2.140   2.010  11.341 -0.2091  0.3448  0.3634
11102TIP3   OH254720   5.938   5.516  16.424 -0.3087  0.2684  0.0895
11102TIP3    H154721   6.023   5.539  16.461 -0.7624  2.0068  0.1475
11102TIP3    H254722   5.941   5.421  16.414  0.9006  0.0625  1.9181
11103TIP3   OH254723   5.483   5.708  14.010 -0.3402 -0.1646 -0.2434
11103TIP3    H154724   5.418   5.777  14.025  1.2153  1.0951  1.0023
11103TIP3    H254725   5.512   5.723  13.920 -0.1771  0.6894 -0.0634
11104TIP3   OH254726   4.776   2.149   5.903 -0.1877  0.3688 -0.4798
11104TIP3    H154727   4.860   2.132   5.947 -0.3458  0.3589 -0.1786
11104TIP3    H254728   4.772   2.245   5.896 -0.0408  0.3588 -0.7138
11105TIP3   OH254729   5.620   3.303  11.282  0.3165  0.2097 -0.1826
11105TIP3    H154730   5.630   3.268  11.193  2.0156 -0.4132  0.2122
11105TIP3    H254731   5.551   3.249  11.321  0.8026 -0.7240 -0.5634
11106TIP3   OH254732   0.734   0.302   1.192 -0.2958  0.3860 -0.0361
11106TIP3    H154733   0.813   0.290   1.245 -0.1471 -1.3873 -0.5810
11106TIP3    H254734   0.682   0.224   1.210 -0.5728  0.1105 -1.9196
11107TIP3   OH254735   2.917   2.590   3.874 -0.5540 -0.0812 -0.0661
11107TIP3    H154736   2.932   2.497   3.861 -0.2013  0.0227 -0.4517
11107TIP3    H254737   2.883   2.598   3.963 -0.3771 -0.5529  0.0427
11108TIP3   OH254738   0.918   2.942  15.392 -0.2685 -0.4986 -0.0393
11108TIP3    H154739   0.933   2.850  15.415  1.5124 -0.1831  0.1863
11108TIP3    H254740   0.977   2.991  15.449 -2.4243  0.9534  1.0955
11109TIP3   OH254741   2.030   1.472   3.310  0.0167  0.0292  0.3820
11109TIP3    H154742   1.970   1.443   3.379 -0.5936 -0.0167 -0.1578
11109TIP3    H254743   2.087   1.396   3.294  0.4345  0.1761  1.1100
11110TIP3   OH254744   4.464   3.400   2.498 -0.1654  0.2754 -0.0042
11110TIP3    H154745   4.559   3.397   2.504 -0.1194 -0.6925 -0.8699
11110TIP3    H254746   4.446   3.459   2.425 -0.0948 -1.6351 -1.6643
11111TIP3   OH254747   0.609   6.044  15.288 -0.7613  0.4941  0.5869
11111TIP3    H154748   0.520   6.017  15.309 -1.3699  0.8508 -1.3701
11111TIP3    H254749   0.598   6.121  15.232  0.6949 -0.7863 -1.5505
11112TIP3   OH254750   6.120   5.938   2.376 -0.4612 -0.2719  0.4974
11112TIP3    H154751   6.061   5.979   2.313 -1.2558  0.0018  1.3895
11112TIP3    H254752   6.061   5.901   2.443  0.3634 -0.3382  1.1970
11113TIP3   OH254753   3.910   1.879  15.425 -0.0718  0.1042 -0.0455
11113TIP3    H154754   3.918   1.838  15.338  1.9765  1.4559 -0.5648
11113TIP3    H254755   3.818   1.903  15.432 -0.8039 -2.1939 -0.7920
11114TIP3   OH254756   1.975   6.545   1.944 -0.8870  0.0443 -0.0587
11114TIP3    H154757   1.916   6.528   1.870 -1.0494 -2.4240  0.5343
11114TIP3    H254758   1.916   6.563   2.017 -0.7639  1.1383 -0.2144
11115TIP3   OH254759   5.254   5.116   3.914 -0.1633  0.1410  0.0799
11115TIP3    H154760   5.222   5.082   3.998  0.0415 -1.0453 -0.3071
11115TIP3    H254761   5.347   5.130   3.928  0.0572 -0.9700 -0.2279
11116TIP3   OH254762   3.867   4.784   3.048  0.2913  0.2336  0.4840
11116TIP3    H154763   3.898   4.842   2.978 -1.5570  1.7239  0.8279
11116TIP3    H254764   3.866   4.697   3.008  0.9792  0.7685 -0.7681
11117TIP3   OH254765   3.202   6.606   4.118 -0.7129  0.0943 -0.0163
11117TIP3    H154766   3.182   6.574   4.206 -0.2089  0.0043  0.0710
11117TIP3    H254767   3.148   6.552   4.061 -1.3247  0.4061  0.2589
11118TIP3   OH254768   1.857   0.727  13.390  0.2351 -0.2778  0.2081
11118TIP3    H154769   1.827   0.646  13.350 -0.1532 -0.5875  1.1045
11118TIP3    H254770   1.924   0.699  13.452  0.7757  0.1890 -0.1563
11119TIP3   OH254771   3.865   4.958   4.928 -0.3697  0.1402  0.2154
11119TIP3    H154772   3.944   4.905   4.918 -0.0167  0.3914  1.4331
11119TIP3    H254773   3.801   4.917   4.869  0.6821 -0.0025 -0.8686
11120TIP3   OH254774   4.910   3.637   1.841  0.0675  0.4606 -0.3785
11120TIP3    H154775   4.970   3.680   1.901  1.1684 -0.6506 -0.6524
11120TIP3    H254776   4.836   3.611   1.895 -1.4107  3.9895 -0.4579
11121TIP3   OH254777   0.998   0.711   4.627 -0.0690  0.8527 -0.0292
11121TIP3    H154778   0.973   0.783   4.684  0.5955  1.4703 -0.4963
11121TIP3    H254779   0.994   0.748   4.539 -0.5484  0.0701 -0.3493
11122TIP3   OH254780   1.104   4.202  13.413 -0.4255  0.1160  0.9249
11122TIP3    H154781   1.190   4.217  13.374 -0.4968  0.2632  0.8199
11122TIP3    H254782   1.122   4.187  13.505 -0.1864 -1.0094  0.7043
11123TIP3   OH254783   6.332   4.927   3.118 -0.5083  0.9112 -0.1016
11123TIP3    H154784   6.376   4.921   3.033 -0.4545 -0.6303 -0.0052
11123TIP3    H254785   6.252   4.875   3.107  0.4597 -1.0363  1.3292
11124TIP3   OH254786   1.274   3.899  16.072 -0.2311  0.0889 -1.0454
11124TIP3    H154787   1.242   3.959  16.139 -0.0449 -0.7174 -0.2072
11124TIP3    H254788   1.259   3.945  15.989 -0.8968  0.9133 -0.4880
11125TIP3   OH254789   1.987   1.411  11.321 -0.3242 -0.0801  0.1874
11125TIP3    H154790   1.936   1.492  11.332 -1.3382 -0.6791 -0.0086
11125TIP3    H254791   1.929   1.342  11.355  0.7261 -0.6714  0.8133
11126TIP3   OH254792   6.001   5.325  14.220 -0.6424 -0.3209  0.2812
11126TIP3    H154793   5.920   5.338  14.270 -0.8877 -0.1329 -0.1582
11126TIP3    H254794   6.055   5.400  14.243 -0.7364 -0.2587  0.3028
11127TIP3   OH254795   5.575   1.462  14.965 -0.0962  0.1716  0.5987
11127TIP3    H154796   5.565   1.431  15.055  0.0955  1.0419  0.9331
11127TIP3    H254797   5.513   1.535  14.958 -0.8211 -0.5241 -0.2863
11128TIP3   OH254798   3.560   0.791   6.404 -0.0664 -0.0608 -0.1747
11128TIP3    H154799   3.558   0.857   6.335  1.0552 -1.3713 -1.5468
11128TIP3    H254800   3.488   0.814   6.463  0.2328  2.2842 -0.6455
11129TIP3   OH254801   0.515   1.112   5.949 -0.1246 -0.3442  0.7362
11129TIP3    H154802   0.578   1.117   5.877 -2.4719 -0.2382 -1.4682
11129TIP3    H254803   0.512   1.201   5.984  0.4003 -0.1922  0.4119
11130TIP3   OH254804   6.519   5.601   2.259 -0.3159 -0.6666 -0.1465
11130TIP3    H154805   6.436   5.641   2.283 -1.6221 -1.6462 -2.6842
11130TIP3    H254806   6.498   5.509   2.244  1.4008 -1.0951 -0.1142
11131TIP3   OH254807   6.519   2.480  11.630  0.2427  0.8323 -0.4117
11131TIP3    H154808   6.559   2.464  11.545 -2.2554  0.7335 -1.6754
11131TIP3    H254809   6.518   2.576  11.638  1.9603  0.8117  0.3095
11132TIP3   OH254810   5.931   0.454  14.667 -0.6330  0.0881 -0.0737
11132TIP3    H154811   5.996   0.468  14.597 -0.4585 -0.9012 -0.1286
11132TIP3    H254812   5.983   0.454  14.747 -0.4103 -1.5263 -0.1799
11133TIP3   OH254813   4.449   6.524   0.815 -0.2316 -0.5688 -0.6431
11133TIP3    H154814   4.525   6.583   0.811 -1.0786  0.5590 -0.6284
11133TIP3    H254815   4.403   6.537   0.732 -0.4499 -1.1949 -0.6276
11134TIP3   OH254816   1.345   6.680  12.530  0.7631 -0.0107  0.3918
11134TIP3    H154817   1.338   6.709  12.621 -0.5719  2.2146 -0.3459
11134TIP3    H254818   1.273   6.618  12.518  1.5929 -1.1414  1.1013
11135TIP3   OH254819   5.932   0.832  12.867 -0.0291 -0.5893  0.4401
11135TIP3    H154820   5.881   0.876  12.799 -0.4492  0.0510  1.1619
11135TIP3    H254821   6.021   0.829  12.832  0.4276  2.4402  1.0695
11136TIP3   OH254822   4.648   6.381   0.112  0.3244 -0.2876  0.0497
11136TIP3    H154823   4.732   6.384   0.158  0.2492  0.0943  0.1632
11136TIP3    H254824   4.594   6.447   0.155  0.3090  0.1931 -0.6769
11137TIP3   OH254825   6.443   1.186  13.510  0.7646  0.6094 -0.4906
11137TIP3    H154826   6.522   1.205  13.460  0.2502  3.1287 -0.4582
11137TIP3    H254827   6.433   1.260  13.569 -1.8150  0.5757 -0.7562
11138TIP3   OH254828   0.970   4.330   5.879 -0.5403 -0.1378 -0.0584
11138TIP3    H154829   1.060   4.322   5.911 -0.4006 -1.0609 -0.6663
11138TIP3    H254830   0.924   4.377   5.949  0.9087  2.4313 -0.6826
11139TIP3   OH254831   0.120   3.777  14.267  0.1878  0.5270 -0.0570
11139TIP3    H154832   0.049   3.718  14.243  0.5037  0.4452 -0.8030
11139TIP3    H254833   0.079   3.842  14.323 -0.5373  0.6648 -0.7439
11140TIP3   OH254834   1.278   2.783  11.539 -0.5889 -0.5170 -0.1016
11140TIP3    H154835   1.247   2.713  11.596 -0.4154 -1.9017 -1.6048
11140TIP3    H254836   1.247   2.758  11.452 -0.3029  1.1679 -0.7270
11141TIP3   OH254837   0.424   6.649   5.242  0.0295  0.1716  0.2723
11141TIP3    H154838   0.354   6.609   5.191 -0.4581 -0.3025  1.2838
11141TIP3    H254839   0.402   6.742   5.244 -1.3183 -0.1288  1.6446
11142TIP3   OH254840   6.374   5.526  11.122  0.1183  0.1903  0.1382
11142TIP3    H154841   6.364   5.535  11.027 -3.6125  1.7187  0.5043
11142TIP3    H254842   6.288   5.499  11.153  1.0963  0.1423  3.1876
11143TIP3   OH254843   0.320   1.660   1.808  0.1828 -0.0402 -0.7489
11143TIP3    H154844   0.387   1.622   1.866 -0.2165  0.1204 -0.1740
11143TIP3    H254845   0.239   1.614   1.832 -0.3390  1.2440  0.0488
11144TIP3   OH254846   2.267   2.283  16.820 -0.7061  0.2925 -0.1650
11144TIP3    H154847   2.295   2.365  16.862  1.0379  0.5106 -1.6458
11144TIP3    H254848   2.242   2.309  16.731 -1.9879 -0.5248 -0.0616
11145TIP3   OH254849   5.155   4.848   1.128  0.0959  0.1196 -0.1206
11145TIP3    H154850   5.097   4.839   1.053 -0.9343  2.3706  0.3142
11145TIP3    H254851   5.118   4.790   1.194 -0.9499  0.5749 -0.2826
11146TIP3   OH254852   2.278   1.219   3.164  0.0475  0.0054  0.3016
11146TIP3    H154853   2.283   1.124   3.173 -0.7715 -0.2053 -1.2596
11146TIP3    H254854   2.187   1.237   3.141  0.2111  1.1736  0.4961
11147TIP3   OH254855   5.113   4.683  14.372  0.3106  0.2886 -0.3851
11147TIP3    H154856   5.170   4.621  14.417  0.1025  0.7763  0.5579
11147TIP3    H254857   5.156   4.697  14.287  0.6688 -0.6736 -0.3798
11148TIP3   OH254858   1.252   4.485   0.049 -0.1172 -0.6866  0.0192
11148TIP3    H154859   1.311   4.490   0.124  1.1454 -0.5858 -0.9485
11148TIP3    H254860   1.203   4.404   0.061  0.9427 -1.2965  0.3416
11149TIP3   OH254861   4.833   2.387  12.159 -0.5003  0.7197 -0.3238
11149TIP3    H154862   4.828   2.442  12.081  0.0604  0.1645 -0.7636
11149TIP3    H254863   4.744   2.353  12.170 -0.4882  0.4609 -0.9780
11150TIP3   OH254864   3.667   1.506   5.966 -0.5397 -0.0494  0.1885
11150TIP3    H154865   3.742   1.548   6.008  0.0789  0.7225 -1.6078
11150TIP3    H254866   3.605   1.577   5.952 -1.2140 -0.5097  0.7554
11151TIP3   OH254867   1.145   2.427  11.307  0.0729 -0.1832  0.3351
11151TIP3    H154868   1.090   2.433  11.385 -3.4706 -3.1515 -1.6045
11151TIP3    H254869   1.194   2.346  11.318 -2.1884 -1.9232 -1.2486
11152TIP3   OH254870   0.932   5.014  13.623  0.3306 -0.3990  0.1771
11152TIP3    H154871   0.917   5.101  13.660  2.6921 -0.4695  1.5227
11152TIP3    H254872   0.874   5.009  13.547 -4.1951  0.1034  3.2666
11153TIP3   OH254873   2.439   5.858   2.816 -0.2724  0.3967  0.7036
11153TIP3    H154874   2.376   5.811   2.762  1.0421 -0.3079 -0.2690
11153TIP3    H254875   2.432   5.949   2.787  0.4330  0.0236 -0.6957
11154TIP3   OH254876   3.494   4.129   5.980  0.6015 -0.4267  0.0818
11154TIP3    H154877   3.569   4.094   6.029 -0.2020 -0.8627  1.0387
11154TIP3    H254878   3.495   4.081   5.898  0.7429 -1.2164  0.5331
11155TIP3   OH254879   5.026   5.868  12.802  0.5218  0.1456  0.0605
11155TIP3    H154880   5.080   5.925  12.858  2.3978 -0.8630 -0.6640
11155TIP3    H254881   5.028   5.910  12.716  0.3156 -0.0227 -0.0271
11156TIP3   OH254882   5.761   3.964   5.048  0.0730  0.6987  0.0853
11156TIP3    H154883   5.798   4.050   5.066  0.8429  0.0652  1.7580
11156TIP3    H254884   5.797   3.939   4.963  0.6687  1.5719  0.0739
11157TIP3   OH254885   1.267   5.874  11.145 -0.0849  0.2430  0.1698
11157TIP3    H154886   1.308   5.953  11.181  0.8129 -0.2376  0.2318
11157TIP3    H254887   1.288   5.805  11.208 -2.1864  0.2275  0.9331
11158TIP3   OH254888   0.556   0.833  13.126  0.0832 -0.4021 -0.5273
11158TIP3    H154889   0.538   0.829  13.032 -0.3433  1.6827 -0.5700
11158TIP3    H254890   0.489   0.777  13.165 -0.7243 -0.0484 -1.3600
11159TIP3   OH254891   3.730   3.425  12.104  0.1057 -0.6408  0.5357
11159TIP3    H154892   3.730   3.354  12.168 -2.6584 -1.2066  0.0130
11159TIP3    H254893   3.811   3.412  12.055  0.8459 -1.9585  2.0091
11160TIP3   OH254894   5.792   4.756  11.354 -0.2248  0.3928 -0.6469
11160TIP3    H154895   5.815   4.664  11.342 -0.1591  0.2197  0.7142
11160TIP3    H254896   5.727   4.756  11.424  0.1775  1.4271 -0.2568
11161TIP3   OH254897   2.993   5.649   0.994  0.0410  0.0883  0.7689
11161TIP3    H154898   3.011   5.645   1.088  1.8067  0.0438  0.4654
11161TIP3    H254899   3.058   5.592   0.954 -0.9718 -0.2462 -0.4657
11162TIP3   OH254900   0.335   0.151   2.752  0.1882 -0.4313  0.2194
11162TIP3    H154901   0.306   0.240   2.728 -0.9126 -0.9039 -0.2680
11162TIP3    H254902   0.399   0.165   2.821  0.4164  0.7776 -0.2101
11163TIP3   OH254903   3.809   4.070  17.146 -0.2111  0.0096 -0.0108
11163TIP3    H154904   3.758   4.085  17.066  0.4502 -0.4940 -0.5343
11163TIP3    H254905   3.746   4.083  17.217 -1.5343 -2.1822 -0.6677
11164TIP3   OH254906   0.559   0.242  10.714  0.3004  0.0166  0.1181
11164TIP3    H154907   0.623   0.171  10.719  1.0526  0.5465 -1.3023
11164TIP3    H254908   0.606   0.318  10.748  0.9620  0.7193 -2.2197
11165TIP3   OH254909   4.539   1.782  11.477 -0.4267  0.0170 -0.0918
11165TIP3    H154910   4.621   1.819  11.510  0.2327 -0.5419 -1.0585
11165TIP3    H254911   4.563   1.739  11.395 -1.8081  0.3785 -0.7176
11166TIP3   OH254912   1.544   6.492   3.046 -0.0003 -0.3775 -0.0594
11166TIP3    H154913   1.536   6.426   3.115  1.4039 -0.1251  0.3806
11166TIP3    H254914   1.615   6.549   3.075 -0.5723  0.7979 -0.8734
11167TIP3   OH254915   4.749   6.692  15.047 -0.3694 -0.2894 -0.1630
11167TIP3    H154916   4.759   6.599  15.065  1.2795  0.0671  1.0468
11167TIP3    H254917   4.729   6.731  15.132  1.5416  0.7285 -0.1060
11168TIP3   OH254918   0.586   2.698  13.396 -0.2006  0.2937 -0.0737
11168TIP3    H154919   0.579   2.783  13.439  3.1978  0.7393 -0.1849
11168TIP3    H254920   0.603   2.718  13.304  3.1584 -0.2992  0.3014
11169TIP3   OH254921   3.069   1.139   2.944 -0.6217  0.7023  0.0778
11169TIP3    H154922   3.079   1.127   3.038 -0.9855 -1.0030 -0.0674
11169TIP3    H254923   3.042   1.053   2.911 -0.8395  1.3445 -1.5397
11170TIP3   OH254924   1.699   1.488   2.518  0.4237  0.2619 -1.2849
11170TIP3    H154925   1.696   1.397   2.548 -0.9941 -0.2181 -2.7059
11170TIP3    H254926   1.756   1.532   2.581  2.2463 -1.8634 -1.2859
11171TIP3   OH254927   2.658   6.361   5.323 -0.1581 -0.1841 -0.1538
11171TIP3    H154928   2.740   6.319   5.297  1.0107  2.0706 -0.3345
11171TIP3    H254929   2.597   6.288   5.335  1.2628 -1.7988 -2.0402
11172TIP3   OH254930   5.503   6.396  14.975 -0.2795  0.2868  0.0799
11172TIP3    H154931   5.438   6.335  15.010  0.6801 -0.8219  0.0011
11172TIP3    H254932   5.537   6.443  15.051 -2.3698  2.1553 -0.0517
11173TIP3   OH254933   5.355   1.981   3.642  0.0632  0.0764  0.6879
11173TIP3    H154934   5.361   2.076   3.632 -1.4131  0.3111  1.5933
11173TIP3    H254935   5.317   1.969   3.729  0.7886 -1.3730  0.8333
11174TIP3   OH254936   4.878   4.208   0.303 -0.0607 -0.1264 -0.5719
11174TIP3    H154937   4.844   4.297   0.296 -0.7981 -0.2639  0.9326
11174TIP3    H254938   4.968   4.213   0.270 -0.6525  0.8025 -2.0969
11175TIP3   OH254939   0.219   3.184   2.156  0.3644 -0.2126  0.9075
11175TIP3    H154940   0.314   3.191   2.141  0.0685  0.4491 -0.8426
11175TIP3    H254941   0.194   3.269   2.192  0.0900  0.4754 -0.8322
11176TIP3   OH254942   1.193   3.950  15.419 -0.3772  0.1359 -0.2188
11176TIP3    H154943   1.257   3.982  15.355  0.9338  2.2929  2.0036
11176TIP3    H254944   1.115   4.003  15.404 -0.1098  0.5598 -0.1441
11177TIP3   OH254945   0.213   1.605  16.519 -0.6675 -0.4842 -0.0715
11177TIP3    H154946   0.201   1.570  16.431 -1.3856  0.7704 -0.4995
11177TIP3    H254947   0.216   1.700  16.507 -2.0576 -0.2121  1.3814
11178TIP3   OH254948   5.327   4.424   0.814 -0.2178  0.4086  0.0384
11178TIP3    H154949   5.416   4.451   0.789 -0.7853  1.7502 -0.6724
11178TIP3    H254950   5.273   4.452   0.740 -1.5844  2.0244  1.5552
11179TIP3   OH254951   5.882   3.992  14.624 -0.7308 -0.1153 -0.1928
11179TIP3    H154952   5.849   3.917  14.574 -1.2213 -1.1801  1.6168
11179TIP3    H254953   5.973   4.003  14.595 -1.2242 -0.1905 -1.8313
11180TIP3   OH254954   5.609   4.580   4.421 -0.0966  0.0842  0.7660
11180TIP3    H154955   5.610   4.659   4.366 -1.1705  1.1423  2.1979
11180TIP3    H254956   5.531   4.532   4.394 -0.1475  0.1629  0.7741
11181TIP3   OH254957   6.711   4.651   5.860  0.3340 -0.3484 -0.3807
11181TIP3    H154958   6.666   4.606   5.789 -0.5174  0.6727 -0.5156
11181TIP3    H254959   6.672   4.739   5.861  0.9204 -0.0816  0.8002
11182TIP3   OH254960   6.152   4.005   1.254 -0.2202 -0.2238 -0.0276
11182TIP3    H154961   6.153   4.026   1.347 -1.3588 -0.6537  0.0906
11182TIP3    H254962   6.223   3.942   1.242  0.5105  0.5118  0.3758
11183TIP3   OH254963   5.470   4.581   2.933  0.4357  0.2907  0.1240
11183TIP3    H154964   5.525   4.505   2.952  2.1582  1.6442  0.7964
11183TIP3    H254965   5.394   4.544   2.887  0.5163 -1.9937  1.6503
11184TIP3   OH254966   3.753   3.085   5.048 -0.1591  0.1887  0.1368
11184TIP3    H154967   3.785   3.151   5.110 -0.0157  0.3030 -0.0600
11184TIP3    H254968   3.790   3.110   4.964  0.4164 -0.4954  0.1704
11185TIP3   OH254969   2.424   2.870   2.757  0.1418  0.1483  0.2225
11185TIP3    H154970   2.494   2.896   2.818  1.0314  0.7296 -1.0075
11185TIP3    H254971   2.345   2.870   2.810  0.7933  1.2585  1.2358
11186TIP3   OH254972   1.297   4.933   2.917  0.2520  0.0860 -0.2033
11186TIP3    H154973   1.239   4.894   2.852 -0.7179  1.6292 -0.3078
11186TIP3    H254974   1.383   4.896   2.897 -0.8449 -3.5421  0.9715
11187TIP3   OH254975   3.687   3.789   2.017  0.7071 -0.3099  0.5865
11187TIP3    H154976   3.601   3.783   2.060 -0.4985  0.9719 -1.4723
11187TIP3    H254977   3.688   3.877   1.979  2.3789 -0.7993 -0.5800
11188TIP3   OH254978   4.129   2.265  16.493  0.2363 -0.2261 -0.1718
11188TIP3    H154979   4.149   2.273  16.586  1.9213 -0.2470 -0.5005
11188TIP3    H254980   4.206   2.301  16.449  0.9055 -3.0539 -1.5656
11189TIP3   OH254981   4.847   3.374  15.746 -0.1101  0.1377  0.1025
11189TIP3    H154982   4.885   3.428  15.816 -0.9054  0.9882 -0.1020
11189TIP3    H254983   4.880   3.414  15.666 -0.1372 -0.1200 -0.0363
11190TIP3   OH254984   1.790   1.449  11.726 -0.1467  0.3008  0.0195
11190TIP3    H154985   1.792   1.510  11.653  0.3617 -1.5035 -1.5545
11190TIP3    H254986   1.709   1.399  11.714 -0.3882  0.3976  1.0856
11191TIP3   OH254987   4.470   5.678  17.091  0.3629 -0.5594  0.2159
11191TIP3    H154988   4.530   5.740  17.132 -0.8972  0.1860  0.9847
11191TIP3    H254989   4.488   5.594  17.134  1.9964 -0.7472 -0.7531
11192TIP3   OH254990   1.071   2.636  14.655  0.0544  0.2660  0.0720
11192TIP3    H154991   1.061   2.725  14.620  1.8408 -0.3015 -2.1321
11192TIP3    H254992   1.151   2.641  14.709 -1.1595  0.4721  1.9725
11193TIP3   OH254993   4.544   0.170   2.384 -0.2398 -0.2610  0.2476
11193TIP3    H154994   4.586   0.085   2.379  1.5384  0.5634  0.5239
11193TIP3    H254995   4.460   0.153   2.427 -0.6463 -2.0819 -1.1166
11194TIP3   OH254996   0.719   3.815  14.349  0.3539  0.1019 -0.1682
11194TIP3    H154997   0.679   3.839  14.266  1.1707 -0.3245 -0.6969
11194TIP3    H254998   0.812   3.802  14.329  0.5958  0.1506  0.8410
11195TIP3   OH254999   3.952   0.333   3.800  0.4333  0.2949  0.5041
11195TIP3    H155000   3.866   0.374   3.796  0.2039 -0.2282 -0.4841
11195TIP3    H255001   4.013   0.404   3.815 -0.0187  0.9164 -0.4915
11196TIP3   OH255002   6.145   0.384   3.814  0.0981  0.1386 -0.3149
11196TIP3    H155003   6.154   0.288   3.818  1.5652  0.1767 -1.7715
11196TIP3    H255004   6.233   0.417   3.832 -0.4952  1.2760  0.6832
11197TIP3   OH255005   1.893   2.368  14.623  0.0409 -0.1779 -0.1271
11197TIP3    H155006   1.815   2.358  14.677  0.6863 -1.4110  0.6337
11197TIP3    H255007   1.860   2.388  14.535 -1.0042  3.1239  0.8730
11198TIP3   OH255008   5.551   0.953  15.601  0.1947 -0.8358 -0.0001
11198TIP3    H155009   5.596   0.976  15.682 -1.8971 -0.5944  1.1346
11198TIP3    H255010   5.524   1.036  15.563  2.6954 -0.7915 -1.9679
11199TIP3   OH255011   2.584   2.686   4.975  0.2490  0.0880 -0.0589
11199TIP3    H155012   2.591   2.598   4.938  1.7525 -0.1198  0.6482
11199TIP3    H255013   2.657   2.734   4.936  0.5075  0.5054  0.9263
11200TIP3   OH255014   0.904   5.620  14.808  0.0879  0.4221 -0.2074
11200TIP3    H155015   0.991   5.660  14.805  0.4312 -0.3545 -0.6690
11200TIP3    H255016   0.867   5.636  14.721  0.7050 -1.3041 -0.8100
11201TIP3   OH255017   0.686   1.921   5.085 -0.3754  0.4702  0.3359
11201TIP3    H155018   0.735   1.936   5.165  1.1756 -0.7921 -0.3336
11201TIP3    H255019   0.681   2.007   5.043  0.4636  0.7889  0.8718
11202TIP3   OH255020   3.401   0.670  16.458 -0.4994 -0.0693  0.4644
11202TIP3    H155021   3.477   0.642  16.407  0.3184  1.3485  0.8319
11202TIP3    H255022   3.405   0.617  16.538  0.0222 -0.1163  0.4096
11203TIP3   OH255023   0.740   4.061   2.099  0.8098 -0.5859  0.4361
11203TIP3    H155024   0.645   4.061   2.112  0.5129 -1.8632 -1.3605
11203TIP3    H255025   0.760   4.152   2.076 -0.1833 -0.5714 -0.4417
11204TIP3   OH255026   4.964   0.025  10.648  0.0889  0.0574 -0.3269
11204TIP3    H155027   4.879  -0.007  10.679 -0.4193 -0.0544 -1.7388
11204TIP3    H255028   4.973   0.112  10.686 -1.5916  0.8819 -1.7122
11205TIP3   OH255029   3.867   2.933  16.047 -0.0227  0.4204 -0.1439
11205TIP3    H155030   3.876   3.022  16.013  0.0211 -0.4711 -2.6188
11205TIP3    H255031   3.911   2.878  15.983  0.8131 -1.3425  1.8308
11206TIP3   OH255032   4.455   3.612  10.361  0.2042 -0.1161  0.3463
11206TIP3    H155033   4.428   3.540  10.304  0.4840  0.3389 -0.3786
11206TIP3    H255034   4.550   3.600  10.371  0.5050  0.9745 -0.9824
11207TIP3   OH255035   2.062   5.836   3.679 -0.0800  0.0964 -0.3016
11207TIP3    H155036   1.987   5.856   3.622  0.3250 -0.4128 -1.0216
11207TIP3    H255037   2.087   5.921   3.715 -0.8997  0.2989 -0.1735
11208TIP3   OH255038   3.940   4.126  11.042 -0.3520 -0.5269  0.0502
11208TIP3    H155039   3.859   4.080  11.022 -0.6116 -0.6600  1.3508
11208TIP3    H255040   4.004   4.087  10.983 -0.9742 -1.2508 -0.1664
11209TIP3   OH255041   3.165   2.079   1.182  0.2159  0.1074 -0.1236
11209TIP3    H155042   3.144   2.065   1.274  1.2524  0.9244  0.2544
11209TIP3    H255043   3.194   1.993   1.151  1.4694  0.1804  0.7669
11210TIP3   OH255044   1.077   0.469  14.626  0.0197 -0.3792  0.0686
11210TIP3    H155045   1.138   0.410  14.671  0.3385  1.9700  3.0406
11210TIP3    H255046   1.103   0.556  14.654 -2.2254  1.0167 -1.8249
11211TIP3   OH255047   2.181   5.140  16.554  0.1825 -0.2242 -0.5828
11211TIP3    H155048   2.089   5.138  16.529 -0.3472  1.0174  1.0842
11211TIP3    H255049   2.216   5.218  16.512  0.0629  0.1752  0.0504
11212TIP3   OH255050   5.632   6.199  11.755 -0.2420 -0.0302 -0.1320
11212TIP3    H155051   5.548   6.156  11.740 -1.4242  2.1215  0.0177
11212TIP3    H255052   5.614   6.292  11.747  1.7829  0.5953  1.5068
11213TIP3   OH255053   3.676   0.985  17.355 -0.5014  0.5758 -0.7125
11213TIP3    H155054   3.649   0.921  17.421 -1.3417 -0.4080 -1.9561
11213TIP3    H255055   3.664   1.070  17.398  2.0883 -0.0499  1.5211
11214TIP3   OH255056   0.684   1.532  15.334 -0.5870 -0.4095 -0.2961
11214TIP3    H155057   0.719   1.471  15.270  1.3544  0.5518 -0.2162
11214TIP3    H255058   0.609   1.486  15.372 -1.1784 -1.4039 -2.4997
11215TIP3   OH255059   1.190   0.661  17.047 -0.4112  0.0569 -0.7179
11215TIP3    H155060   1.103   0.695  17.024 -0.9741  0.0381  1.1956
11215TIP3    H255061   1.200   0.582  16.994 -1.3083  0.3758 -1.3851
11216TIP3   OH255062   3.262   2.178   3.070  0.3489 -0.6310  0.3431
11216TIP3    H155063   3.320   2.153   3.142  0.2596 -0.3657  0.5084
11216TIP3    H255064   3.264   2.274   3.069  0.2944 -0.6307  0.0376
11217TIP3   OH255065   1.603   0.102   2.273  0.1042 -0.2599  0.8348
11217TIP3    H155066   1.545   0.040   2.230 -0.4404 -0.4637  1.8367
11217TIP3    H255067   1.584   0.093   2.366  0.2896  1.1233  1.0377
11218TIP3   OH255068   1.690   2.972  14.517  0.0391 -0.5056 -0.4037
11218TIP3    H155069   1.760   2.974  14.582 -0.6192 -2.3292  0.4376
11218TIP3    H255070   1.651   3.059  14.521  2.5914  0.7616 -1.3490
11219TIP3   OH255071   2.097   5.470  17.141 -0.6705  0.0271 -0.4215
11219TIP3    H155072   2.168   5.432  17.089  0.7682  0.9041  0.8367
11219TIP3    H255073   2.058   5.394  17.186 -0.5622 -0.4636 -1.1312
11220TIP3   OH255074   0.979   6.297   3.545 -0.3639 -0.2106 -0.4284
11220TIP3    H155075   0.994   6.325   3.635  0.1263  2.4638 -1.2635
11220TIP3    H255076   1.067   6.277   3.511 -0.2103  1.4547 -1.0804
11221TIP3   OH255077   5.595   6.548  12.272  0.5871  0.2282 -0.7330
11221TIP3    H155078   5.590   6.497  12.190  1.4170 -0.5791 -0.3005
11221TIP3    H255079   5.683   6.585  12.272  0.6492  0.0877 -0.1322
11222TIP3   OH255080   4.131   4.510  13.021 -0.4044 -0.2632  0.1323
11222TIP3    H155081   4.046   4.482  13.057 -0.8973 -0.4834 -1.1483
11222TIP3    H255082   4.195   4.477  13.083 -1.2376 -0.3622  0.9668
11223TIP3   OH255083   6.101   3.450   0.989  0.4847 -0.0521  0.2285
11223TIP3    H155084   6.171   3.386   1.004  0.2032 -0.2909  0.5564
11223TIP3    H255085   6.140   3.517   0.934  0.5481 -0.9426 -0.8378
11224TIP3   OH255086   2.181   4.801  13.548  0.3211  0.8299 -0.7921
11224TIP3    H155087   2.104   4.774  13.598  2.5115 -3.0532  0.9297
11224TIP3    H255088   2.165   4.766  13.460  0.9089 -2.1584  0.1464
11225TIP3   OH255089   0.754   5.817   5.273 -0.0545 -0.3842  0.1979
11225TIP3    H155090   0.806   5.760   5.217 -0.1520 -0.5551  0.2808
11225TIP3    H255091   0.681   5.845   5.217  0.5091  0.4419 -0.1537
11226TIP3   OH255092   0.585   6.020   5.864  0.0954  0.2150 -0.1692
11226TIP3    H155093   0.528   6.097   5.857 -0.4454 -0.1881 -0.2589
11226TIP3    H255094   0.545   5.966   5.932  0.0257 -0.3496 -0.6425
11227TIP3   OH255095   3.573   5.086  15.928  0.1023 -0.5766  0.6270
11227TIP3    H155096   3.561   4.991  15.932  0.2506 -0.6403 -0.1682
11227TIP3    H255097   3.589   5.104  15.835 -0.4540  0.2947  0.6876
11228TIP3   OH255098   5.842   4.180   3.042 -0.5124 -0.2458  0.6203
11228TIP3    H155099   5.930   4.185   3.080 -0.1728  0.7079 -0.2399
11228TIP3    H255100   5.855   4.199   2.949 -1.6084 -0.2481  0.4546
11229TIP3   OH255101   2.871   3.805  14.705 -0.3472 -0.1378  0.2478
11229TIP3    H155102   2.931   3.782  14.634  0.7327 -0.8646  1.3699
11229TIP3    H255103   2.917   3.871  14.756 -0.7505 -0.2734  0.7964
11230TIP3   OH255104   1.909   2.842  11.968  0.1263  0.0195 -0.8293
11230TIP3    H155105   1.874   2.835  11.879  0.0442  1.6328 -0.9553
11230TIP3    H255106   1.833   2.827  12.025  0.2690 -1.4705 -0.9974
11231TIP3   OH255107   6.136   6.172  11.044  0.0426 -0.2888 -0.4268
11231TIP3    H155108   6.080   6.231  10.993 -0.5701 -0.4929  0.0013
11231TIP3    H255109   6.112   6.085  11.014  0.9335 -0.3277 -1.0440
11232TIP3   OH255110   4.675   6.395  16.532 -0.0344  0.6052  0.2501
11232TIP3    H155111   4.599   6.390  16.590 -0.6642 -2.3485 -0.6392
11232TIP3    H255112   4.749   6.368  16.587 -0.1943  0.3568  0.3460
11233TIP3   OH255113   5.204   4.315   2.691  0.2116  0.3049  0.0801
11233TIP3    H155114   5.214   4.229   2.732  1.7778  0.3587 -0.1165
11233TIP3    H255115   5.114   4.316   2.659  0.2091 -1.3216 -0.0490
11234TIP3   OH255116   1.222   1.455   1.324 -0.1148  0.3814  0.1257
11234TIP3    H155117   1.256   1.389   1.383 -1.5449 -1.1363 -0.6658
11234TIP3    H255118   1.130   1.464   1.348 -0.4179  0.6164 -1.0499
11235TIP3   OH255119   0.490   3.646   5.773  0.2891  0.0789 -0.0598
11235TIP3    H155120   0.398   3.668   5.757 -0.6841 -4.0923 -1.6491
11235TIP3    H255121   0.534   3.663   5.690  0.5269  0.2015  0.0895
11236TIP3   OH255122   2.841   5.117  12.418 -0.0748  0.0219  0.0083
11236TIP3    H155123   2.850   5.090  12.327  1.4424  0.1838  0.0877
11236TIP3    H255124   2.840   5.035  12.468 -0.3780 -0.0459 -0.1054
11237TIP3   OH255125   1.606   5.872  12.756 -0.1183  0.9312 -0.2695
11237TIP3    H155126   1.673   5.916  12.703  1.6331 -1.2887 -0.0219
11237TIP3    H255127   1.636   5.883  12.846  0.2924 -0.5900 -0.1941
11238TIP3   OH255128   0.251   6.232   3.992  0.3345  0.2227  0.0125
11238TIP3    H155129   0.336   6.242   3.947  0.9968 -1.3094  0.8621
11238TIP3    H255130   0.241   6.313   4.041  2.3969 -0.4154  1.6248
11239TIP3   OH255131   2.422   1.960  16.263  0.3518 -0.0904  0.0030
11239TIP3    H155132   2.361   1.948  16.189 -0.5821 -0.3471  0.7887
11239TIP3    H255133   2.372   2.013  16.325  1.1034  0.0541  0.4852
11240TIP3   OH255134   5.682   0.731   3.837  0.0992  0.7101  0.0816
11240TIP3    H155135   5.671   0.780   3.755  0.3393  0.3154 -0.1884
11240TIP3    H255136   5.748   0.780   3.885  0.2998  0.6817 -0.1644
11241TIP3   OH255137   4.096   1.871  16.279 -1.1822 -0.0247  0.2412
11241TIP3    H155138   4.064   1.788  16.244  1.7998 -1.3640  0.3477
11241TIP3    H255139   4.124   1.850  16.368 -0.2592  1.0348  0.2227
11242TIP3   OH255140   3.828   0.919   4.177  1.0936  0.3676 -0.3573
11242TIP3    H155141   3.888   0.991   4.157  2.4245 -0.5575  0.1505
11242TIP3    H255142   3.882   0.840   4.171 -0.0652 -0.5010  0.1738
11243TIP3   OH255143   4.713   3.667  10.449 -0.1124  0.7937 -0.5409
11243TIP3    H155144   4.774   3.741  10.440 -0.0153  1.2364  2.6544
11243TIP3    H255145   4.691   3.665  10.542 -1.0854 -2.4960 -0.7168
11244TIP3   OH255146   2.476   1.400   0.939  0.0837  0.0291  0.3825
11244TIP3    H155147   2.461   1.328   0.999 -0.2579  1.6254  2.3180
11244TIP3    H255148   2.480   1.359   0.852 -0.1293 -2.2638  1.3946
11245TIP3   OH255149   4.988   5.191   5.980  0.0636 -0.0061 -0.2915
11245TIP3    H155150   4.944   5.144   5.909  0.6855  1.9987 -2.0993
11245TIP3    H255151   5.055   5.129   6.011 -1.6757 -1.7642  0.1529
11246TIP3   OH255152   5.712   2.064   1.416 -0.1735  0.1006 -0.0468
11246TIP3    H155153   5.693   2.039   1.325  1.7216 -1.4316 -0.0837
11246TIP3    H255154   5.796   2.024   1.435 -1.1493 -0.8293  2.8883
11247TIP3   OH255155   1.710   2.899  15.550  0.2482 -0.2516  0.3649
11247TIP3    H155156   1.752   2.843  15.615  0.1890  0.2978  0.8903
11247TIP3    H255157   1.653   2.956  15.602 -1.1511 -0.9740 -0.3370
11248TIP3   OH255158   4.368   3.631  15.597  0.5864  0.4885 -0.0804
11248TIP3    H155159   4.384   3.713  15.643  1.5774 -0.4032  1.2665
11248TIP3    H255160   4.450   3.583  15.607 -0.5074 -1.3316  0.6381
11249TIP3   OH255161   3.694   0.074  15.305 -0.2819  0.2588  0.1703
11249TIP3    H155162   3.685   0.108  15.394 -0.7724 -0.5391  0.4306
11249TIP3    H255163   3.637  -0.002  15.302  0.4285 -0.2591 -0.5635
11250TIP3   OH255164   5.360   3.219   0.653  0.0338 -0.2658 -0.2657
11250TIP3    H155165   5.344   3.200   0.560 -1.5459 -0.8708  0.0945
11250TIP3    H255166   5.298   3.290   0.673 -1.0106 -1.4181  0.7562
11251TIP3   OH255167   3.111   2.016  13.746  0.1455  0.0116  0.0311
11251TIP3    H155168   3.053   1.974  13.809 -1.0166  1.6620  0.0896
11251TIP3    H255169   3.060   2.023  13.666  0.4407  0.9919 -0.0848
11252TIP3   OH255170   2.590   1.837  16.439  0.0103  0.4490  0.0702
11252TIP3    H155171   2.526   1.877  16.498 -0.9159 -0.7876 -0.0444
11252TIP3    H255172   2.545   1.833  16.355 -0.3655 -1.7231  0.3033
11253TIP3   OH255173   0.520   2.006   1.013  0.2168 -0.1716  0.4994
11253TIP3    H155174   0.577   2.075   1.047  0.7409  0.7557 -2.0346
11253TIP3    H255175   0.578   1.948   0.964 -0.6683 -0.5648 -0.1189
11254TIP3   OH255176   3.122   2.334  17.027 -0.1955  0.0060  0.2814
11254TIP3    H155177   3.138   2.396  17.098 -0.6799 -0.4598  0.8094
11254TIP3    H255178   3.038   2.360  16.991 -1.2336 -1.3135  1.5953
11255TIP3   OH255179   5.337   2.521  11.135  0.3262  0.0588 -0.2006
11255TIP3    H155180   5.406   2.455  11.145 -0.7714 -1.2111 -0.7892
11255TIP3    H255181   5.348   2.554  11.046  1.3860  1.3177  0.3550
11256TIP3   OH255182   1.001   4.640   6.308  0.7910 -0.0371  0.1534
11256TIP3    H155183   1.021   4.624   6.401  0.4994  0.9985  0.4093
11256TIP3    H255184   1.087   4.647   6.266  0.9713  1.3146  0.6922
11257TIP3   OH255185   1.486   5.550  13.521 -0.1978 -0.9791 -0.0335
11257TIP3    H155186   1.420   5.603  13.476  0.5721 -0.1019 -0.1566
11257TIP3    H255187   1.435   5.480  13.563 -1.3947  0.4695  1.0733
11258TIP3   OH255188   5.410   3.012   1.735 -0.2215 -0.1471 -0.3855
11258TIP3    H155189   5.470   3.024   1.661 -0.3146 -0.0427 -0.4428
11258TIP3    H255190   5.355   2.938   1.710 -0.1804 -0.1823 -0.3734
11259TIP3   OH255191   0.120   4.064   6.526  0.4788 -0.1462 -0.0713
11259TIP3    H155192   0.152   4.056   6.616 -0.4401  1.5792  0.4693
11259TIP3    H255193   0.056   3.993   6.517  1.6149 -1.2164  0.1326
11260TIP3   OH255194   3.776   5.622   3.589  0.3874  0.0479  0.2965
11260TIP3    H155195   3.699   5.676   3.610  0.3607  0.0056  0.3086
11260TIP3    H255196   3.844   5.685   3.566  0.5704  0.1187  1.0091
11261TIP3   OH255197   3.796   5.111   5.309  0.2511 -0.4353  0.6005
11261TIP3    H155198   3.706   5.143   5.316  0.2463  0.0875 -1.2905
11261TIP3    H255199   3.787   5.020   5.282  0.1528  0.7455 -4.0666
11262TIP3   OH255200   2.217   1.661   3.050 -0.2600  0.1217  0.0128
11262TIP3    H155201   2.186   1.699   2.968  0.6664  0.0754 -0.3721
11262TIP3    H255202   2.165   1.703   3.118 -1.9695 -0.8067 -0.6776
11263TIP3   OH255203   5.819   5.590   2.533  0.0514  0.7663  0.4948
11263TIP3    H155204   5.830   5.518   2.595 -1.0512 -0.6048 -0.8294
11263TIP3    H255205   5.905   5.633   2.531  0.9115 -0.8452  0.9294
11264TIP3   OH255206   5.700   2.431   6.177  0.2427  0.4342 -0.1112
11264TIP3    H155207   5.613   2.460   6.150 -0.7391 -1.5154  0.7433
11264TIP3    H255208   5.713   2.469   6.264  0.8570  1.8150 -0.7747
11265TIP3   OH255209   2.207   3.375  13.454 -0.0862  0.2012  0.2151
11265TIP3    H155210   2.169   3.344  13.536  1.9613 -0.5073  0.9546
11265TIP3    H255211   2.300   3.390  13.474 -0.0399  2.5639 -1.2829
11266TIP3   OH255212   2.371   2.190   5.022  0.2930  0.0794  0.2938
11266TIP3    H155213   2.346   2.175   4.931  3.1562 -0.6583 -0.5055
11266TIP3    H255214   2.383   2.285   5.029  0.7223  0.0809 -0.3457
11267TIP3   OH255215   1.167   0.971   1.577 -0.1423 -0.1288 -0.0448
11267TIP3    H155216   1.190   0.957   1.669 -0.0004  1.2337  0.1559
11267TIP3    H255217   1.246   1.010   1.539 -0.7566  0.8880 -0.3148
11268TIP3   OH255218   5.593   1.942   2.482  1.0754 -0.0149  0.4953
11268TIP3    H155219   5.653   1.978   2.417  1.2025  0.6877  0.9798
11268TIP3    H255220   5.615   1.849   2.488  0.7148 -0.1930 -0.8253
11269TIP3   OH255221   6.407   2.993   0.859  0.3880  0.3109 -0.2700
11269TIP3    H155222   6.454   3.069   0.825  1.6786  0.2400  1.1999
11269TIP3    H255223   6.412   2.928   0.789  1.5709  0.6986 -0.5673
11270TIP3   OH255224   5.028   3.869  14.605  0.5543  0.2365 -0.0072
11270TIP3    H155225   5.055   3.791  14.653 -0.1319 -0.1150 -0.1908
11270TIP3    H255226   5.073   3.942  14.650  1.7864 -0.3216 -0.2795
11271TIP3   OH255227   1.873   2.697   0.858  0.9681  0.2175 -0.6193
11271TIP3    H155228   1.833   2.748   0.929  0.8765 -2.4970  1.4308
11271TIP3    H255229   1.799   2.670   0.804  1.0227  2.1944 -1.7683
11272TIP3   OH255230   2.374   3.640  15.375 -0.7295 -0.0580  0.4057
11272TIP3    H155231   2.373   3.601  15.288 -1.8779 -1.7682  1.1209
11272TIP3    H255232   2.397   3.731  15.361  0.8784 -0.6941 -1.5043
11273TIP3   OH255233   5.224   5.647  11.304  0.0877  0.0294  0.4948
11273TIP3    H155234   5.170   5.612  11.233  1.9200 -1.7737 -0.1149
11273TIP3    H255235   5.280   5.574  11.329  0.9974  1.2875  2.3218
11274TIP3   OH255236   2.529   2.480  13.998 -0.2458  0.3418 -1.2522
11274TIP3    H155237   2.458   2.459  14.058 -0.3836  1.6548 -0.9313
11274TIP3    H255238   2.514   2.424  13.922 -1.4425  0.3758 -1.0541
11275TIP3   OH255239   3.158   2.974  11.029 -0.0035 -0.3199  0.0749
11275TIP3    H155240   3.134   3.008  10.943 -2.0917  0.4176  0.9065
11275TIP3    H255241   3.221   2.904  11.010 -0.0489  0.1551 -2.0068
11276TIP3   OH255242   5.937   4.824  14.949  0.1319 -0.4840  0.2156
11276TIP3    H155243   5.986   4.752  14.909  0.7470  1.3842 -2.6822
11276TIP3    H255244   6.005   4.881  14.985 -0.1234  0.3397 -0.5947
11277TIP3   OH255245   1.013   6.268  15.058  0.1812  0.1177 -0.0774
11277TIP3    H155246   0.935   6.233  15.015 -0.7500  1.2512  0.6144
11277TIP3    H255247   1.005   6.239  15.149  0.6444  0.1281 -0.0316
11278TIP3   OH255248   2.287   4.268  16.531 -0.0637  0.0809  0.9800
11278TIP3    H155249   2.349   4.262  16.604  0.0111 -0.5597  0.8767
11278TIP3    H255250   2.341   4.252  16.453  0.0820  1.9702  0.6631
11279TIP3   OH255251   5.254   3.797   0.996  0.0135  0.3381 -0.1344
11279TIP3    H155252   5.272   3.720   0.943 -0.5915 -0.6460  1.0221
11279TIP3    H255253   5.340   3.830   1.022  0.2666 -1.0682  0.8910
11280TIP3   OH255254   4.333   0.786  15.997  0.1450 -0.1939 -0.0172
11280TIP3    H155255   4.307   0.796  16.089 -0.6072 -0.0146 -0.2377
11280TIP3    H255256   4.428   0.795  15.998  0.1948 -0.6362  0.8047
11281TIP3   OH255257   4.527   1.912   2.673 -0.1515 -0.6619 -0.3160
11281TIP3    H155258   4.599   1.883   2.617  0.5165  1.4709 -0.6422
11281TIP3    H255259   4.518   2.006   2.655  1.3028  0.6944  4.3273
11282TIP3   OH255260   4.252   4.171   2.383 -0.0183 -0.2336 -0.0970
11282TIP3    H155261   4.231   4.259   2.350 -0.2558  0.3844  1.5781
11282TIP3    H255262   4.344   4.159   2.361 -0.4629 -0.4016 -2.0617
11283TIP3   OH255263   0.069   4.407  17.161  0.2577 -0.2380 -0.3199
11283TIP3    H155264  -0.013   4.408  17.211 -0.8195 -0.4148 -2.0193
11283TIP3    H255265   0.091   4.500  17.150  1.1506 -0.1914  1.4094
11284TIP3   OH255266   3.629   1.620  14.329 -0.7436  0.5351 -0.0959
11284TIP3    H155267   3.692   1.688  14.350 -0.6751  0.8544 -1.2474
11284TIP3    H255268   3.547   1.667  14.312 -1.0348  0.2139  0.3755
11285TIP3   OH255269   1.187   5.526  11.571  0.2687 -0.2326 -0.4087
11285TIP3    H155270   1.210   5.503  11.481  0.2324 -0.0076 -0.4748
11285TIP3    H255271   1.227   5.457  11.625  0.6662 -0.1198 -0.5619
11286TIP3   OH255272   0.028   2.525   4.857 -0.3748 -0.2505  0.2388
11286TIP3    H155273   0.091   2.461   4.825  0.0454  0.6321 -0.7330
11286TIP3    H255274  -0.052   2.474   4.873  0.5752 -1.3950  1.5599
11287TIP3   OH255275   2.041   6.563   0.969  0.6944  0.3447 -0.1191
11287TIP3    H155276   2.069   6.582   1.058  2.2992  0.2059 -0.5511
11287TIP3    H255277   2.087   6.482   0.946 -0.9474 -0.5196 -0.5424
11288TIP3   OH255278   4.557   3.275  12.770  0.7109  0.5521  0.0446
11288TIP3    H155279   4.528   3.284  12.679 -0.6867  1.2169  0.5314
11288TIP3    H255280   4.641   3.321  12.773  0.8858  0.3231 -0.9467
11289TIP3   OH255281   0.976   0.672   6.028  0.4837  0.3938 -0.4438
11289TIP3    H155282   0.918   0.643   6.098  0.6065  2.9087  0.8051
11289TIP3    H255283   1.063   0.644   6.056  0.3566  0.1295 -0.3135
11290TIP3   OH255284   1.663   4.415   1.695  1.0315  0.3139 -0.1864
11290TIP3    H155285   1.707   4.330   1.702  1.0406  0.3098 -0.2958
11290TIP3    H255286   1.617   4.411   1.611 -3.0645 -1.5254  1.8404
11291TIP3   OH255287   2.467   3.828   5.945  0.1194 -0.0751  0.2766
11291TIP3    H155288   2.457   3.821   5.850  1.8278  0.4315  0.0242
11291TIP3    H255289   2.556   3.863   5.958 -0.9205  2.2680  1.9593
11292TIP3   OH255290   5.865   3.379  11.407 -0.1761 -0.0576  0.3820
11292TIP3    H155291   5.862   3.349  11.316  2.3758 -0.0021  0.2063
11292TIP3    H255292   5.826   3.466  11.405 -0.2344 -0.0992 -0.6639
11293TIP3   OH255293   2.985   6.272  14.575 -0.0076 -0.4737  0.3211
11293TIP3    H155294   3.079   6.257  14.566  0.0421  0.2179 -0.4173
11293TIP3    H255295   2.978   6.341  14.641 -0.0637 -1.2916  1.1895
11294TIP3   OH255296   5.226   0.044   4.807  0.1810 -0.1609 -0.4139
11294TIP3    H155297   5.192   0.106   4.742  0.5521  1.4558  0.8758
11294TIP3    H255298   5.157  -0.022   4.815 -0.4924  0.4015 -1.3971
11295TIP3   OH255299   5.736   5.300   5.926 -0.3644  0.4451  0.0259
11295TIP3    H155300   5.694   5.378   5.961 -0.8309  0.3680 -0.3566
11295TIP3    H255301   5.823   5.331   5.900  0.1277  0.4217  1.5458
11296TIP3   OH255302   1.273   2.231   0.736  0.1923 -0.5493  0.0281
11296TIP3    H155303   1.310   2.295   0.675  0.0421 -0.4878  0.0007
11296TIP3    H255304   1.182   2.259   0.747  0.4865  0.0597  1.0898
11297TIP3   OH255305   1.327   4.261   4.926  0.3991  0.1927 -0.0541
11297TIP3    H155306   1.335   4.215   5.010 -0.1425 -1.4221 -0.8421
11297TIP3    H255307   1.410   4.307   4.916  2.1755 -2.8202 -0.4360
11298TIP3   OH255308   1.664   1.893   0.796  0.0984 -0.0607  0.3760
11298TIP3    H155309   1.743   1.948   0.798  0.3211 -0.3858  0.6646
11298TIP3    H255310   1.597   1.948   0.756  1.1222 -0.6015 -2.3405
11299TIP3   OH255311   3.597   0.281  11.701  0.0590 -0.2788  0.1428
11299TIP3    H155312   3.630   0.194  11.721 -1.4099 -0.5574  1.5619
11299TIP3    H255313   3.509   0.283  11.739 -0.5114  1.3332 -1.1155
11300TIP3   OH255314   4.204   4.581   1.805  0.5529  0.0442  0.2490
11300TIP3    H155315   4.141   4.641   1.767  0.3689  0.1292  0.6824
11300TIP3    H255316   4.238   4.531   1.730  1.3964  1.3176 -0.2604
11301TIP3   OH255317   1.852   0.141   3.969 -0.4025 -0.2479 -0.0691
11301TIP3    H155318   1.882   0.051   3.976  0.2092  0.0055  0.7925
11301TIP3    H255319   1.928   0.194   3.993 -0.3319  0.5637 -1.8895
11302TIP3   OH255320   5.219   3.347   4.888 -0.2610 -0.3905  0.3209
11302TIP3    H155321   5.179   3.260   4.887 -0.2088 -0.4192 -0.7644
11302TIP3    H255322   5.275   3.348   4.810  0.0963  0.4518  0.5778
11303TIP3   OH255323   6.123   3.917   0.906 -0.6252  0.2886 -0.7096
11303TIP3    H155324   6.129   3.854   0.977  1.0337 -0.3498 -1.3621
11303TIP3    H255325   6.042   3.894   0.860 -1.6357  0.6251  0.8508
11304TIP3   OH255326   2.625   3.455  12.791 -0.2062  0.1572  0.0423
11304TIP3    H155327   2.611   3.369  12.750  1.4797 -0.1442  0.0552
11304TIP3    H255328   2.619   3.517  12.718  1.1706 -0.2287 -0.4222
11305TIP3   OH255329   5.726   4.311  13.717  0.0962  0.0946  0.4837
11305TIP3    H155330   5.686   4.374  13.658  1.1855 -0.4241 -0.8654
11305TIP3    H255331   5.654   4.255  13.747 -0.4496  0.2734 -0.4872
11306TIP3   OH255332   5.118   6.410   1.986 -0.1495 -0.3005 -0.1552
11306TIP3    H155333   5.170   6.487   1.965 -0.8611 -0.0831 -1.2366
11306TIP3    H255334   5.179   6.337   1.981  0.0822 -0.0461 -1.3715
11307TIP3   OH255335   2.409   2.332   2.748  0.6032  0.0813 -0.2667
11307TIP3    H155336   2.400   2.247   2.705 -2.2859  0.5587 -0.8237
11307TIP3    H255337   2.465   2.314   2.823  0.9926 -2.0727 -0.9957
11308TIP3   OH255338   4.257   6.455  17.165  0.0983  0.3830 -0.0445
11308TIP3    H155339   4.161   6.458  17.158  0.0268 -2.1404 -1.0662
11308TIP3    H255340   4.275   6.471  17.258 -1.4883 -1.2758  0.6051
11309TIP3   OH255341   2.755   2.178  16.002 -0.2043 -0.3875 -0.3125
11309TIP3    H155342   2.759   2.136  16.088  2.4222  1.9391  0.8362
11309TIP3    H255343   2.681   2.239  16.009  0.2924  0.1499  0.5448
11310TIP3   OH255344   3.552   0.214  12.656 -0.2233 -0.2227  0.4658
11310TIP3    H155345   3.515   0.301  12.642 -0.9882 -0.9648 -3.1229
11310TIP3    H255346   3.501   0.178  12.729 -1.5816  1.4524  0.4109
11311TIP3   OH255347   0.201   5.356  11.464 -0.0447  0.1319 -0.1018
11311TIP3    H155348   0.189   5.261  11.465 -2.3757  0.3384 -0.7377
11311TIP3    H255349   0.184   5.381  11.373  1.7633  1.0661 -0.2156
11312TIP3   OH255350   2.563   2.961   4.096 -0.3757  0.6252  0.4494
11312TIP3    H155351   2.546   3.055   4.104 -1.5750  0.6107 -1.2692
11312TIP3    H255352   2.624   2.954   4.022  2.3527  0.2154  2.5930
11313TIP3   OH255353   6.520   0.622   3.208 -0.6755  0.3736 -0.1694
11313TIP3    H155354   6.430   0.653   3.204 -0.4345  1.3223  1.3400
11313TIP3    H255355   6.551   0.629   3.118 -1.1782  2.9068 -0.2105
11314TIP3   OH255356   3.790   2.004  12.680 -0.3037 -0.0800  0.1263
11314TIP3    H155357   3.783   1.935  12.746  0.9168 -0.4497 -0.1050
11314TIP3    H255358   3.827   2.079  12.727 -1.2270  0.2995  0.2782
11315TIP3   OH255359   0.768   0.103  11.613  0.4849  0.5301  0.2054
11315TIP3    H155360   0.681   0.131  11.582 -0.2077 -0.5471  1.0834
11315TIP3    H255361   0.749   0.052  11.691  2.0425  1.5045  1.2650
11316TIP3   OH255362   4.409   2.849   0.456 -0.7358  0.1641 -0.0105
11316TIP3    H155363   4.373   2.846   0.544 -1.5553  1.1312 -0.3050
11316TIP3    H255364   4.349   2.904   0.406  0.5985  0.9914 -0.7706
11317TIP3   OH255365   0.788   6.476  12.449  0.0016 -0.7204  0.3539
11317TIP3    H155366   0.864   6.439  12.405 -0.1171 -0.7469  0.1686
11317TIP3    H255367   0.816   6.563  12.478 -0.3739 -0.0723 -1.1080
11318TIP3   OH255368   5.517   2.963  14.535  0.2427 -0.1439 -0.4692
11318TIP3    H155369   5.599   3.010  14.524  1.0636 -1.9457 -2.8762
11318TIP3    H255370   5.498   2.927  14.448 -0.5952 -3.7028  1.0149
11319TIP3   OH255371   5.675   1.343   4.134 -0.0469  0.2052  0.4143
11319TIP3    H155372   5.583   1.361   4.112 -0.2996 -0.8913  0.5105
11319TIP3    H255373   5.672   1.261   4.184  1.1834 -1.2880 -1.7543
11320TIP3   OH255374   5.209   5.790  13.674 -0.2038  0.2343 -0.3659
11320TIP3    H155375   5.225   5.848  13.599 -0.1127  0.6070 -0.0580
11320TIP3    H255376   5.244   5.705  13.646  2.0759  0.9415  0.1593
11321TIP3   OH255377   2.456   2.137   5.965  0.5338  0.2565 -0.1410
11321TIP3    H155378   2.454   2.233   5.972  2.5581  0.3140  0.1588
11321TIP3    H255379   2.539   2.112   6.004  1.2448 -1.4331 -2.5437
11322TIP3   OH255380   2.575   0.255   4.167 -0.1438  0.2374 -0.1351
11322TIP3    H155381   2.497   0.310   4.178  0.1757  0.6973 -0.1947
11322TIP3    H255382   2.576   0.201   4.247 -0.0593  0.8131  0.2607
11323TIP3   OH255383   2.042   5.855  11.324 -0.1976  0.0198  0.4672
11323TIP3    H155384   2.093   5.935  11.316  0.4548 -0.4593 -0.3428
11323TIP3    H255385   2.105   5.785  11.309 -0.8505 -0.6327  0.7159
11324TIP3   OH255386   4.754   6.107  15.450 -0.4474  0.0758 -0.8794
11324TIP3    H155387   4.742   6.202  15.447 -1.4260 -0.0228 -0.5794
11324TIP3    H255388   4.699   6.079  15.523  1.5995 -0.4955  0.5019
11325TIP3   OH255389   0.107   4.546  12.256 -0.1620  0.0242  0.5135
11325TIP3    H155390   0.075   4.625  12.299 -0.7174  0.0298  0.0994
11325TIP3    H255391   0.059   4.542  12.174 -1.0428 -1.3935  1.0552
11326TIP3   OH255392   5.191   2.532   0.339 -0.3561  0.9387 -0.3655
11326TIP3    H155393   5.190   2.507   0.247 -1.9156 -0.3744 -0.0420
11326TIP3    H255394   5.171   2.626   0.338 -1.9131  0.6333 -1.3223
11327TIP3   OH255395   0.848   4.760   3.900 -0.2149  0.0639  0.3896
11327TIP3    H155396   0.799   4.682   3.927  0.0955  0.0894  1.0551
11327TIP3    H255397   0.826   4.826   3.966  2.7824 -0.7113  2.3529
11328TIP3   OH255398   3.985   1.323   4.722  0.1821  0.1552 -0.0627
11328TIP3    H155399   4.080   1.318   4.711  0.3903  1.1121  1.0937
11328TIP3    H255400   3.963   1.245   4.773  0.7005  1.0564  1.6124
11329TIP3   OH255401   4.168   5.155   5.388  0.2593  0.4357 -0.3555
11329TIP3    H155402   4.188   5.074   5.341  0.5254 -1.0309  2.0829
11329TIP3    H255403   4.127   5.212   5.323  0.4435 -1.5016 -2.2579
11330TIP3   OH255404   5.335   0.634   3.170  0.6109 -0.1489  0.5161
11330TIP3    H155405   5.332   0.723   3.137  2.2550  0.2509  1.3251
11330TIP3    H255406   5.250   0.597   3.149 -0.4451  1.8998  0.9697
11331TIP3   OH255407   4.400   2.274   1.387 -0.0602  0.1085  0.0364
11331TIP3    H155408   4.484   2.267   1.434 -0.8378  2.1644  1.9348
11331TIP3    H255409   4.416   2.341   1.320  0.3854 -1.1212 -1.1320
11332TIP3   OH255410   3.715   2.033   3.709 -0.0685  1.1389  0.1119
11332TIP3    H155411   3.694   2.057   3.618 -1.1571 -0.2627 -0.0349
11332TIP3    H255412   3.701   2.114   3.758  1.2143  2.1088 -1.0439
11333TIP3   OH255413   2.517   5.323  16.226  0.8500  0.0257  0.5303
11333TIP3    H155414   2.531   5.417  16.215  2.0231 -0.2930 -0.9174
11333TIP3    H255415   2.605   5.287  16.239  0.3390 -0.7918  1.9165
11334TIP3   OH255416   6.203   0.930   0.219 -0.2624 -0.1850  0.4725
11334TIP3    H155417   6.138   0.894   0.159 -0.6793 -1.4587  1.6398
11334TIP3    H255418   6.182   1.023   0.225 -0.0800  0.0191 -1.4765
11335TIP3   OH255419   5.709   4.029  15.239 -0.1878  0.2164 -0.5987
11335TIP3    H155420   5.708   3.945  15.286 -0.4797  0.2636 -0.5199
11335TIP3    H255421   5.681   4.093  15.305  0.9241  0.5168 -0.3904
11336TIP3   OH255422   2.333   6.113   5.816 -0.4562 -0.0375  0.0392
11336TIP3    H155423   2.298   6.163   5.890  1.5099  2.4117 -0.5196
11336TIP3    H255424   2.420   6.086   5.845 -1.1583 -2.5797  0.0023
11337TIP3   OH255425   4.978   4.693  12.804 -0.3537  0.1149 -0.2427
11337TIP3    H155426   4.937   4.708  12.888  0.2435  1.3755 -0.1529
11337TIP3    H255427   4.907   4.703  12.740 -0.7661 -0.6528  0.0852
11338TIP3   OH255428   0.848   4.191  13.545  0.4862  0.0415 -0.2815
11338TIP3    H155429   0.884   4.243  13.473  0.4283 -1.0676 -1.1477
11338TIP3    H255430   0.783   4.248  13.586  2.2818  1.6168  0.5116
11339TIP3   OH255431   6.544   3.666  12.653 -0.1845 -0.1669 -0.2404
11339TIP3    H155432   6.513   3.613  12.580 -2.0519 -0.2541  0.5451
11339TIP3    H255433   6.546   3.605  12.727  1.5511 -0.0513 -0.1556
11340TIP3   OH255434   1.569   5.258   0.654  0.5542  0.3692 -0.2137
11340TIP3    H155435   1.548   5.326   0.590  1.9583 -1.3489 -2.6794
11340TIP3    H255436   1.518   5.182   0.627 -0.5510  0.2049  2.1392
11341TIP3   OH255437   5.557   4.570  16.327  0.0861  0.2888  0.5325
11341TIP3    H155438   5.540   4.494  16.272  1.2600  1.3105 -1.3424
11341TIP3    H255439   5.504   4.640  16.289 -0.0259  0.7344  1.4739
11342TIP3   OH255440   2.441   4.525  11.109  0.6005  0.5353  0.4788
11342TIP3    H155441   2.472   4.527  11.018 -1.5134  2.4153 -0.2705
11342TIP3    H255442   2.381   4.450  11.112 -1.4881  2.0664 -0.5294
11343TIP3   OH255443   3.666   0.015   6.029  0.4209 -0.0226 -0.0293
11343TIP3    H155444   3.703  -0.072   6.041  2.0453  0.8876  2.3271
11343TIP3    H255445   3.581  -0.001   5.988  0.4772 -2.7364  0.6974
11344TIP3   OH255446   1.253   0.595   0.616 -0.3365 -0.0440  0.2643
11344TIP3    H155447   1.242   0.624   0.525  2.1876 -0.1030 -0.1339
11344TIP3    H255448   1.178   0.538   0.632  0.3010 -1.8959 -2.5899
11345TIP3   OH255449   3.526   4.370  12.135 -0.0505  0.0508 -0.2378
11345TIP3    H155450   3.554   4.461  12.147 -0.7052  0.6798 -2.8093
11345TIP3    H255451   3.434   4.376  12.110  0.2646 -1.1500 -1.9041
11346TIP3   OH255452   2.063   1.453   0.546 -0.5138 -0.3590 -0.0027
11346TIP3    H155453   2.137   1.398   0.569  0.0268 -0.0193 -0.8740
11346TIP3    H255454   2.034   1.491   0.629 -1.3456 -2.4543  0.7400
11347TIP3   OH255455   6.052   1.271  13.356  0.1248  0.4830 -0.5131
11347TIP3    H155456   6.124   1.228  13.310  1.0074  2.2224 -0.8291
11347TIP3    H255457   6.060   1.241  13.447  2.7008  2.3274 -0.0189
11348TIP3   OH255458   3.807   3.033   6.359  0.3772 -0.3419  0.2371
11348TIP3    H155459   3.869   2.998   6.422  1.0565 -1.0621 -0.8134
11348TIP3    H255460   3.845   3.014   6.273 -1.4305 -1.0802 -0.4479
11349TIP3   OH255461   5.295   0.553  13.695  0.8003 -0.6137  0.1596
11349TIP3    H155462   5.331   0.532  13.608  0.0727 -0.3880 -0.2056
11349TIP3    H255463   5.340   0.633  13.721  0.7315 -0.4555 -0.1950
11350TIP3   OH255464   4.434   0.111   5.723  0.3892 -0.5340  0.2823
11350TIP3    H155465   4.481   0.030   5.702 -2.8720 -2.7920  0.9067
11350TIP3    H255466   4.389   0.091   5.805 -2.1344  1.1681 -0.6007
11351TIP3   OH255467   0.780   0.058   0.400 -0.6067  0.1251 -0.3682
11351TIP3    H155468   0.728   0.032   0.323  1.2145  0.6411 -1.8542
11351TIP3    H255469   0.798  -0.025   0.445  0.7909 -0.6363 -2.1963
11352TIP3   OH255470   5.488   6.489  11.495  0.2554  0.2926  0.2766
11352TIP3    H155471   5.467   6.402  11.528 -1.8772 -0.2095 -2.1256
11352TIP3    H255472   5.436   6.548  11.549 -0.3436 -0.1512  0.1863
11353TIP3   OH255473   4.505   2.663  15.049 -0.0481 -0.1327  0.2259
11353TIP3    H155474   4.497   2.714  14.969  1.3999 -1.0841 -0.5589
11353TIP3    H255475   4.542   2.579  15.022  1.8403  0.0203  2.0216
11354TIP3   OH255476   3.209   4.033   1.848 -0.3354 -0.1538  0.0781
11354TIP3    H155477   3.257   3.992   1.920 -0.5502  2.4434  1.8806
11354TIP3    H255478   3.256   4.008   1.769  0.7094 -2.0720  1.2424
11355TIP3   OH255479   1.993   1.776  15.619  0.3211  0.2874  0.3240
11355TIP3    H155480   1.912   1.800  15.664 -0.2114  0.0810 -0.5010
11355TIP3    H255481   1.970   1.699  15.567  1.4903 -0.8368  1.3819
11356TIP3   OH255482   4.567   2.826  12.900 -0.0707 -0.2868 -0.3528
11356TIP3    H155483   4.629   2.886  12.941 -0.1474  0.8983 -1.9013
11356TIP3    H255484   4.621   2.767  12.848  0.0489 -1.9618  1.5357
11357TIP3   OH255485   6.356   5.064  12.379  0.1556 -0.4146  0.4482
11357TIP3    H155486   6.265   5.087  12.400 -0.0018 -0.7911  0.1862
11357TIP3    H255487   6.350   5.017  12.296  0.7766  1.0851 -0.4792
11358TIP3   OH255488   4.619   4.142   4.762 -0.9721 -0.0525 -0.2036
11358TIP3    H155489   4.679   4.115   4.831  0.1726  0.4373 -0.9665
11358TIP3    H255490   4.558   4.069   4.753  0.0315 -0.9515  0.0297
11359TIP3   OH255491   5.153   1.195   3.315  0.2663  0.0003  0.5596
11359TIP3    H155492   5.229   1.242   3.277  0.8621 -0.5191  1.0919
11359TIP3    H255493   5.192   1.120   3.360 -0.5959 -0.3925  0.6556
11360TIP3   OH255494   5.956   0.492   2.267 -0.2155 -0.3566  0.0210
11360TIP3    H155495   5.913   0.507   2.351  1.3682  0.9424  0.6674
11360TIP3    H255496   5.888   0.454   2.211 -1.6535 -0.0689  1.4962
11361TIP3   OH255497   1.150   2.193   6.412 -0.4309 -0.2233  0.7818
11361TIP3    H155498   1.203   2.225   6.339 -2.1111 -3.2750 -2.1129
11361TIP3    H255499   1.094   2.267   6.436  0.2021  0.9214 -1.0490
11362TIP3   OH255500   4.392   1.885  11.855  0.3117 -1.0043  0.0062
11362TIP3    H155501   4.308   1.929  11.840  1.0753 -0.2969 -2.8518
11362TIP3    H255502   4.436   1.939  11.921 -0.9535 -0.6369  0.5736
11363TIP3   OH255503   1.053   0.634  12.216  0.3006 -0.4135 -0.8904
11363TIP3    H155504   1.068   0.607  12.125 -2.2697  0.9300 -1.8047
11363TIP3    H255505   1.051   0.730  12.211 -0.3427 -0.3451  0.5150
11364TIP3   OH255506   3.281   6.364   4.293  0.2451 -0.3086 -0.2778
11364TIP3    H155507   3.364   6.350   4.339  0.3464 -0.6068 -0.5491
11364TIP3    H255508   3.214   6.342   4.357  0.3583  0.6525  0.1876
11365TIP3   OH255509   2.135   2.686   0.755 -0.3636 -0.0497  0.3162
11365TIP3    H155510   2.193   2.697   0.830  1.4298 -2.2928 -0.6311
11365TIP3    H255511   2.048   2.674   0.793  0.1326  1.1179  1.8915
11366TIP3   OH255512   4.834   2.208  13.942  0.1471 -0.0057 -0.1218
11366TIP3    H155513   4.826   2.184  13.850  0.1019  1.8551 -0.6447
11366TIP3    H255514   4.899   2.148  13.977  0.2362 -0.6840 -1.3920
11367TIP3   OH255515   3.332   3.284  15.721 -0.5225  0.3372  0.1682
11367TIP3    H155516   3.421   3.319  15.716 -0.1700 -0.4396  0.8145
11367TIP3    H255517   3.326   3.245  15.808 -1.1717 -0.4608 -0.2204
11368TIP3   OH255518   0.947   4.457   1.165  0.4008  0.1278  0.4090
11368TIP3    H155519   1.011   4.516   1.203  1.6494 -0.9895  0.1199
11368TIP3    H255520   0.894   4.427   1.239  1.6141 -0.6034  1.0030
11369TIP3   OH255521   1.471   2.102   3.986 -0.5213 -0.4365 -0.1017
11369TIP3    H155522   1.484   2.061   3.900 -0.2319  0.0663 -0.3021
11369TIP3    H255523   1.556   2.092   4.030 -0.3481  0.2267 -0.2747
11370TIP3   OH255524   0.974   3.951  17.081 -0.2575  0.2512 -0.0280
11370TIP3    H155525   1.041   3.914  17.023 -0.0769 -0.4416  0.6121
11370TIP3    H255526   0.904   3.885  17.081  0.5220 -0.6592  1.9666
11371TIP3   OH255527   5.925   2.233   2.605  0.9210 -0.5825 -0.7690
11371TIP3    H155528   5.954   2.324   2.601 -0.8380  0.0518 -0.0584
11371TIP3    H255529   5.844   2.231   2.554 -0.7432 -1.0056  1.6925
11372TIP3   OH255530   3.248   6.305  12.067 -0.6951 -0.6508 -0.1412
11372TIP3    H155531   3.254   6.379  12.127  1.1580 -0.7112 -0.1974
11372TIP3    H255532   3.263   6.343  11.981 -2.9759 -0.6224 -0.5974
11373TIP3   OH255533   4.809   5.358   3.741  0.2151  0.1342 -0.3189
11373TIP3    H155534   4.785   5.290   3.804  1.4748  1.0695  1.2556
11373TIP3    H255535   4.733   5.416   3.739  1.3502  2.0383  3.1719
11374TIP3   OH255536   1.421   4.908  15.461 -0.1225 -0.1102 -0.5481
11374TIP3    H155537   1.405   5.000  15.440  1.7280  0.7128  1.2851
11374TIP3    H255538   1.514   4.895  15.442 -0.1037 -1.2912  0.2183
11375TIP3   OH255539   6.554   5.002  13.413  0.3255 -0.0679 -0.2026
11375TIP3    H155540   6.565   5.037  13.501  0.6472 -2.0622  0.5963
11375TIP3    H255541   6.514   4.916  13.425 -1.8941  0.5769 -2.1691
11376TIP3   OH255542   0.646   3.491  11.885 -0.2911 -0.8576  0.2627
11376TIP3    H155543   0.563   3.444  11.876 -0.1526 -1.2042  0.7597
11376TIP3    H255544   0.676   3.470  11.974 -0.8200  1.0914  0.9580
11377TIP3   OH255545   6.611   1.079  12.255 -0.1381 -0.3771  0.2918
11377TIP3    H155546   6.703   1.104  12.243 -0.3840  1.2029  1.2688
11377TIP3    H255547   6.587   1.119  12.338 -2.1924  0.7784 -0.7753
11378TIP3   OH255548   4.084   0.441  10.965  0.1420 -0.0096 -0.2142
11378TIP3    H155549   4.075   0.517  10.908  0.7072 -0.0256 -0.3261
11378TIP3    H255550   4.013   0.382  10.937  0.9929 -0.4416 -1.5754
11379TIP3   OH255551   0.129   6.013  16.377  0.1293  0.0418 -0.1433
11379TIP3    H155552   0.150   6.039  16.287 -1.1317  0.6601 -0.2906
11379TIP3    H255553   0.202   5.958  16.404 -0.1410 -1.3271 -2.0359
11380TIP3   OH255554   2.456   6.118   5.347 -0.1595  0.5044 -0.0334
11380TIP3    H155555   2.388   6.184   5.333  1.5879  2.5869  0.8551
11380TIP3    H255556   2.433   6.079   5.432 -1.8358 -0.9500 -1.0740
11381TIP3   OH255557   0.785   4.801   6.378  0.0360 -0.2601  0.2125
11381TIP3    H155558   0.856   4.763   6.327  0.8145 -0.3287  1.3136
11381TIP3    H255559   0.828   4.868   6.432 -0.9689  0.7050 -0.1455
11382TIP3   OH255560   1.516   5.960   2.712 -0.2367  0.3036  0.6498
11382TIP3    H155561   1.533   6.030   2.776 -1.9581  0.9168  0.4726
11382TIP3    H255562   1.454   5.902   2.756 -0.9408  0.3842 -0.2324
11383TIP3   OH255563   5.839   5.060   1.222 -0.4025  0.3443  0.1253
11383TIP3    H155564   5.798   4.980   1.190 -1.1107  0.8837 -0.3362
11383TIP3    H255565   5.775   5.098   1.282 -0.6111  1.2121 -0.6277
11384TIP3   OH255566   5.324   0.869   2.196  0.4395 -0.3564 -0.8262
11384TIP3    H155567   5.276   0.938   2.150 -2.4678  0.0615  2.4152
11384TIP3    H255568   5.394   0.915   2.242  0.6069 -0.1010 -1.3352
11385TIP3   OH255569   1.169   4.669  12.393 -0.3107  0.3336 -0.3528
11385TIP3    H155570   1.216   4.743  12.434  0.2168  1.1306 -2.2821
11385TIP3    H255571   1.082   4.672  12.432 -0.6604  2.7066 -1.1367
11386TIP3   OH255572   4.812   4.858   1.404 -0.5561 -0.1995  0.4256
11386TIP3    H155573   4.884   4.835   1.347  1.6138  0.8245  2.5655
11386TIP3    H255574   4.830   4.810   1.486 -2.0726  0.4037  1.1540
11387TIP3   OH255575   5.271   1.634  16.284 -0.2917  0.0189  0.1732
11387TIP3    H155576   5.328   1.566  16.320  0.3118  0.8781  0.8703
11387TIP3    H255577   5.301   1.715  16.325 -1.7155  0.5568  0.2049
11388TIP3   OH255578   6.049   6.394  11.706  0.1053 -0.3470 -0.2113
11388TIP3    H155579   5.989   6.467  11.687 -0.3074 -0.7888 -0.6333
11388TIP3    H255580   6.124   6.435  11.748  0.5938  0.5630 -1.8650
11389TIP3   OH255581   3.139   0.119   4.048 -0.1569  0.5744  0.1467
11389TIP3    H155582   3.170   0.031   4.068 -0.8273  0.1865 -0.4767
11389TIP3    H255583   3.173   0.137   3.961 -3.7947 -0.9558 -1.7912
11390TIP3   OH255584   6.695   4.442  13.207  0.6673 -0.2286 -0.0094
11390TIP3    H155585   6.610   4.414  13.174 -0.1967  0.8163  1.2806
11390TIP3    H255586   6.697   4.536  13.193  0.8360  0.0398  1.6256
11391TIP3   OH255587   5.172   6.338   1.486 -0.0749 -0.2215 -0.1572
11391TIP3    H155588   5.246   6.293   1.445  1.0600  0.8103  0.6690
11391TIP3    H255589   5.159   6.416   1.431  0.5704  0.4601  0.6175
11392TIP3   OH255590   5.905   3.095   0.873  0.0578  0.4980 -0.1498
11392TIP3    H155591   5.832   3.119   0.931  1.1126 -1.0468  1.9457
11392TIP3    H255592   5.973   3.160   0.892  0.2231  0.2888 -0.0218
11393TIP3   OH255593   5.317   1.630  13.345 -0.5669  0.6946 -0.3353
11393TIP3    H155594   5.259   1.705  13.358 -0.8897  0.0296  2.9114
11393TIP3    H255595   5.269   1.556  13.384  0.9876 -0.5946 -0.7575
11394TIP3   OH255596   0.857   0.845   0.829 -0.0275 -0.2584  0.3197
11394TIP3    H155597   0.947   0.838   0.862 -0.4161  1.6945  1.9258
11394TIP3    H255598   0.867   0.834   0.734  1.9620  0.3408  0.4029
11395TIP3   OH255599   2.867   4.730   5.779 -0.5945  0.0101 -0.0916
11395TIP3    H155600   2.912   4.788   5.717 -1.3805  0.2853 -0.4172
11395TIP3    H255601   2.824   4.789   5.840 -1.2676 -0.2221 -0.3286
11396TIP3   OH255602   6.658   0.106   5.319 -0.1213 -0.0888  0.3451
11396TIP3    H155603   6.677   0.144   5.233 -2.2380 -0.1455 -0.2097
11396TIP3    H255604   6.736   0.056   5.341 -0.0853 -1.3368 -2.2553
11397TIP3   OH255605   2.639   5.870  16.583  0.0199  0.2389 -0.1218
11397TIP3    H155606   2.617   5.963  16.588  1.9791  0.7836 -0.9958
11397TIP3    H255607   2.563   5.826  16.622 -0.9790  2.1773  0.2500
11398TIP3   OH255608   0.098   0.618  17.019  0.5958  0.5429 -0.1547
11398TIP3    H155609   0.192   0.621  17.041  0.2194  0.4707  1.6141
11398TIP3    H255610   0.088   0.682  16.948  2.0551  0.2307 -0.6755
11399TIP3   OH255611   0.867   6.283   3.158 -0.0949 -0.6249  0.0075
11399TIP3    H155612   0.851   6.191   3.134  0.3007 -0.5443 -0.5817
11399TIP3    H255613   0.859   6.331   3.075  0.5591 -0.2392  0.1593
11400TIP3   OH255614   6.580   6.389  13.297  0.0371  0.2757  0.2462
11400TIP3    H155615   6.573   6.294  13.287  3.4179  0.0374 -1.1245
11400TIP3    H255616   6.605   6.401  13.389  0.3863 -0.2349  0.2226
11401TIP3   OH255617   5.803   3.926  13.811  0.5362  0.5095  0.3147
11401TIP3    H155618   5.710   3.937  13.833  0.1466 -0.7200 -0.6309
11401TIP3    H255619   5.838   4.015  13.814 -0.7320  1.0365  0.4310
11402TIP3   OH255620   1.289   3.649   2.057 -0.1779 -0.2412 -0.0321
11402TIP3    H155621   1.262   3.710   2.126  1.2550  0.1055  0.2565
11402TIP3    H255622   1.228   3.667   1.985 -1.2925 -0.1619  0.8935
11403TIP3   OH255623   1.992   2.595  11.038  0.1330 -0.2256 -0.3785
11403TIP3    H155624   1.930   2.558  10.975  0.2313 -0.4263 -0.3602
11403TIP3    H255625   2.028   2.671  10.993  0.2377 -0.3944 -0.5882
11404TIP3   OH255626   0.743   3.452   0.019  0.1714 -0.1573 -0.3241
11404TIP3    H155627   0.654   3.440   0.050  0.2808 -0.9826 -0.2998
11404TIP3    H255628   0.769   3.538   0.052  0.2337 -0.9139  1.7845
11405TIP3   OH255629   5.040   0.367  16.796  0.5255 -0.6562  0.2882
11405TIP3    H155630   5.008   0.452  16.826  1.2262  0.5683 -2.2018
11405TIP3    H255631   5.098   0.337  16.867  0.4962  1.0619  1.1008
11406TIP3   OH255632   3.753   4.116  15.864 -0.3622 -0.1708  0.1292
11406TIP3    H155633   3.743   4.058  15.788  1.6474 -0.1023 -0.2528
11406TIP3    H255634   3.816   4.070  15.920  0.6159  1.2339  0.2222
11407TIP3   OH255635   3.988   3.065  15.282 -0.1975  0.3954 -0.2723
11407TIP3    H155636   3.897   3.069  15.309  0.0663 -1.0286  0.9107
11407TIP3    H255637   3.985   3.055  15.187 -1.3094 -0.9043 -0.1165
11408TIP3   OH255638   2.056   2.035  12.807 -0.0070  0.0647  0.3879
11408TIP3    H155639   1.999   1.966  12.772 -0.0390  0.1330  0.3054
11408TIP3    H255640   2.117   2.054  12.736 -0.5757  0.7668  0.0802
11409TIP3   OH255641   3.178   2.812   2.373 -0.1707  0.0393 -0.3061
11409TIP3    H155642   3.170   2.723   2.339 -0.1421 -0.5269  1.1293
11409TIP3    H255643   3.087   2.842   2.384 -0.1809 -0.0179 -0.2387
11410TIP3   OH255644   0.903   3.817   2.065  0.5502 -1.1418 -0.5287
11410TIP3    H155645   0.901   3.822   1.969  0.5809 -1.0253 -0.5236
11410TIP3    H255646   0.843   3.886   2.094  0.9845 -0.7859 -0.4557
11411TIP3   OH255647   6.426   6.736   6.514 -0.3762  0.1081 -0.0316
11411TIP3    H155648   6.460   6.824   6.531  1.1792 -0.1813 -1.4087
11411TIP3    H255649   6.449   6.686   6.593  2.6983 -0.0977 -0.9201
11412TIP3   OH255650   6.500   6.166   1.076  0.2917  0.0693 -0.4403
11412TIP3    H155651   6.507   6.262   1.070  1.3982 -0.0944 -2.6589
11412TIP3    H255652   6.412   6.151   1.112 -0.5517  1.9158 -1.5745
11413TIP3   OH255653   1.724   4.683  15.577 -0.7092  0.0326  0.2882
11413TIP3    H155654   1.796   4.736  15.613 -0.9344  0.7981 -0.3590
11413TIP3    H255655   1.763   4.639  15.502 -1.2524  1.5676 -0.9445
11414TIP3   OH255656   4.629   3.716  14.696 -0.4534  0.0292  0.1063
11414TIP3    H155657   4.635   3.662  14.775  3.0522  1.5605  1.0571
11414TIP3    H255658   4.567   3.785  14.719 -0.9581 -0.6318  0.7780
11415TIP3   OH255659   0.065   2.501  15.142  0.7372 -0.4122 -0.5716
11415TIP3    H155660   0.107   2.587  15.153  1.1074 -0.6279 -0.2490
11415TIP3    H255661  -0.018   2.520  15.099  0.0351  0.2942  0.9951
11416TIP3   OH255662   5.811   5.337   5.526  0.3079 -0.3581  0.2120
11416TIP3    H155663   5.880   5.336   5.592  0.1378  0.6579  0.4154
11416TIP3    H255664   5.731   5.315   5.575  0.0172  1.3688  0.5624
11417TIP3   OH255665   4.098   5.937   0.975 -0.1270  0.2505 -0.9111
11417TIP3    H155666   4.086   5.856   1.025  0.0533  0.6611 -0.1837
11417TIP3    H255667   4.100   5.909   0.884 -0.0326 -0.5683 -0.6663
11418TIP3   OH255668   0.743   2.533  12.502 -0.3627 -0.5639  0.3538
11418TIP3    H155669   0.807   2.600  12.480  0.8249 -0.9056  2.5031
11418TIP3    H255670   0.689   2.524  12.423  2.0280 -0.0587 -1.4507
11419TIP3   OH255671   2.130   0.977  15.172 -0.4216 -0.5320 -0.0146
11419TIP3    H155672   2.047   1.024  15.164  0.2637  0.7898  0.3871
11419TIP3    H255673   2.126   0.910  15.104 -2.0484 -0.8650  0.3581
11420TIP3   OH255674   2.455   2.925  11.069 -0.3706 -0.0881 -0.2078
11420TIP3    H155675   2.451   2.849  11.011 -2.2715 -1.4004  1.5336
11420TIP3    H255676   2.447   3.000  11.009  0.2022 -1.2556 -1.8360
11421TIP3   OH255677   5.084   3.794   2.728  0.3213  0.6681  0.3237
11421TIP3    H155678   5.178   3.788   2.709  0.1532 -0.3017 -0.3185
11421TIP3    H255679   5.042   3.756   2.650 -0.6105  1.2791  0.5164
11422TIP3   OH255680   5.408   3.471  14.708  0.3084  0.0354  0.6199
11422TIP3    H155681   5.338   3.434  14.654  0.3635 -0.7393  1.0582
11422TIP3    H255682   5.472   3.504  14.645  0.6415 -1.3542  0.1875
11423TIP3   OH255683   4.289   0.027   6.385 -0.1328 -0.0955 -0.1750
11423TIP3    H155684   4.227   0.082   6.338  1.2647  0.0670 -1.9324
11423TIP3    H255685   4.374   0.067   6.368  0.6464 -1.2939  0.7253
11424TIP3   OH255686   5.845   4.327  11.909  0.2548  0.0095 -0.7699
11424TIP3    H155687   5.769   4.362  11.956 -0.4617 -2.9596  0.4811
11424TIP3    H255688   5.921   4.362  11.957 -0.3340  1.3868 -0.8070
11425TIP3   OH255689   6.402   4.683  14.916  0.6306 -0.2731 -0.4893
11425TIP3    H155690   6.408   4.715  15.006  3.4434 -1.2337 -0.2442
11425TIP3    H255691   6.313   4.649  14.908 -0.0142  0.7624  1.5774
11426TIP3   OH255692   1.857   3.214  17.288 -0.2871 -0.4083 -0.0098
11426TIP3    H155693   1.890   3.204  17.199 -2.0634  0.3506 -0.8189
11426TIP3    H255694   1.908   3.152  17.340  2.1643  0.5102 -1.1502
11427TIP3   OH255695   2.442   3.277   1.591  0.4133  0.2673 -0.2566
11427TIP3    H155696   2.461   3.323   1.672  1.4516  0.8999 -0.8369
11427TIP3    H255697   2.466   3.186   1.608  0.4329  0.3617  0.2156
11428TIP3   OH255698   4.719   2.680   1.210  0.6110 -0.3149  0.6710
11428TIP3    H155699   4.755   2.768   1.200 -0.5267 -0.0072 -1.1908
11428TIP3    H255700   4.654   2.672   1.141 -2.3076 -1.1844  3.3029
11429TIP3   OH255701   4.911   4.953  12.527  0.4790  0.4085 -0.0101
11429TIP3    H155702   4.881   5.043  12.531  1.6511  0.7863  0.9652
11429TIP3    H255703   4.831   4.901  12.526 -0.2548  1.3727  2.2137
11430TIP3   OH255704   4.130   5.382   5.917  0.2418 -0.4821 -0.0331
11430TIP3    H155705   4.066   5.318   5.949  0.5811 -1.4694 -1.2452
11430TIP3    H255706   4.095   5.467   5.944 -0.4036 -1.1542  1.3030
11431TIP3   OH255707   3.477   0.251  13.980 -0.3866  0.4169 -0.2166
11431TIP3    H155708   3.519   0.230  13.897 -0.2242  0.7845 -0.2319
11431TIP3    H255709   3.531   0.209  14.047 -0.4480  0.2234 -0.2905
11432TIP3   OH255710   3.588   3.898  11.943 -0.2248  0.3320 -0.5141
11432TIP3    H155711   3.653   3.926  11.878 -0.0976 -1.7711 -1.3725
11432TIP3    H255712   3.598   3.803  11.948 -0.7272  0.3261  2.0992
11433TIP3   OH255713   2.031   6.475   5.063  0.1634 -0.6228 -0.3295
11433TIP3    H155714   2.013   6.486   5.156  0.3968 -0.6517 -0.2797
11433TIP3    H255715   2.063   6.385   5.055  0.9019 -0.3717 -0.3117
11434TIP3   OH255716   3.850   4.778   6.516  0.0438 -0.4046 -0.3615
11434TIP3    H155717   3.850   4.874   6.516  1.6952 -0.2520 -3.8575
11434TIP3    H255718   3.790   4.754   6.446 -0.4944 -2.0079  0.5976
11435TIP3   OH255719   2.195   6.740  15.568 -0.4537  0.9036 -0.3525
11435TIP3    H155720   2.127   6.673  15.569  1.1745 -0.8264  0.1919
11435TIP3    H255721   2.276   6.693  15.589  0.9788  2.8188 -1.2339
11436TIP3   OH255722   1.269   1.181  12.926 -0.3498  0.4433 -1.1724
11436TIP3    H155723   1.210   1.169  12.852 -0.0858 -1.2690 -1.1437
11436TIP3    H255724   1.356   1.192  12.887 -0.1121 -1.0966 -1.1488
11437TIP3   OH255725   4.236   1.021  15.974  0.1115  0.0427 -0.1747
11437TIP3    H155726   4.252   1.082  15.902  0.0471 -0.0408 -0.2596
11437TIP3    H255727   4.289   0.945  15.953  0.4544  0.2015  0.1032
11438TIP3   OH255728   0.156   6.049   5.882  0.1194  0.3090  0.2375
11438TIP3    H155729   0.123   5.997   5.955  0.5739  0.9276  0.8993
11438TIP3    H255730   0.078   6.070   5.831  0.0611 -2.1363 -0.8323
11439TIP3   OH255731   0.810   2.396  11.353 -0.2292  0.3764  0.0343
11439TIP3    H155732   0.849   2.442  11.279 -0.8349  0.8556  0.0119
11439TIP3    H255733   0.740   2.343  11.315 -1.1276  1.3033  0.3694
11440TIP3   OH255734   0.886   0.775   1.716  0.2907  0.3138 -0.1417
11440TIP3    H155735   0.893   0.801   1.624  1.1153 -0.8331 -0.4141
11440TIP3    H255736   0.962   0.815   1.758  0.5145 -0.0673 -0.1817
11441TIP3   OH255737   5.835   2.687   3.048 -0.2155  0.2754  0.2379
11441TIP3    H155738   5.792   2.670   3.131 -0.6422 -2.0342 -0.3979
11441TIP3    H255739   5.920   2.724   3.072  0.3606 -1.8704  1.8219
11442TIP3   OH255740   2.374   0.977   0.637 -0.1660  0.3945  0.0766
11442TIP3    H155741   2.403   0.914   0.571 -2.0789  0.5627 -1.0241
11442TIP3    H255742   2.453   1.021   0.666  0.8496 -0.3750 -1.4145
11443TIP3   OH255743   5.772   2.079  11.770 -0.1086  0.2494 -0.0972
11443TIP3    H155744   5.682   2.051  11.787 -0.3777  1.9131  1.5694
11443TIP3    H255745   5.804   2.019  11.703 -2.5640 -0.1858 -0.9763
11444TIP3   OH255746   3.375   6.189   1.280 -0.0704 -0.0877  0.3485
11444TIP3    H155747   3.307   6.162   1.343  0.3026 -2.0194 -0.0179
11444TIP3    H255748   3.368   6.125   1.209  1.0351  0.7056 -0.4983
11445TIP3   OH255749   5.887   2.757   4.011 -0.3530 -0.0172 -0.0640
11445TIP3    H155750   5.906   2.838   3.965  0.5671  1.4586  2.6677
11445TIP3    H255751   5.907   2.688   3.948 -0.1290  1.8323 -2.1302
11446TIP3   OH255752   1.587   6.162   1.320 -0.5183 -0.1365  0.0493
11446TIP3    H155753   1.581   6.073   1.284  1.4600 -0.5885  0.7033
11446TIP3    H255754   1.674   6.166   1.358 -1.8931  0.8713  3.4013
11447TIP3   OH255755   2.771   2.960   3.334  1.2413  0.2766  0.4484
11447TIP3    H155756   2.806   3.037   3.288  1.2598 -0.5228 -0.9106
11447TIP3    H255757   2.676   2.966   3.322  1.2484  0.0573  0.2774
11448TIP3   OH255758   0.995   0.328   1.287 -0.7538 -0.1301  0.1692
11448TIP3    H155759   1.059   0.341   1.357 -0.0537  2.0392 -0.8064
11448TIP3    H255760   1.040   0.271   1.225 -0.0892  0.6575 -0.0872
11449TIP3   OH255761   0.751   4.496   6.710 -0.1417 -0.2744 -0.3655
11449TIP3    H155762   0.784   4.415   6.748  1.7444  0.7601  0.3783
11449TIP3    H255763   0.764   4.485   6.615  0.6957 -0.6210 -0.2231
11450TIP3   OH255764   1.932   4.773  17.131  0.0731 -0.4513  0.1082
11450TIP3    H155765   1.874   4.849  17.134 -0.7452 -0.9901 -1.4140
11450TIP3    H255766   1.993   4.791  17.060  1.0877 -0.4160  0.9476
11451TIP3   OH255767   0.763   3.922   2.749  0.2405  0.3999  0.2410
11451TIP3    H155768   0.831   3.973   2.705 -0.5956  0.4812 -1.0133
11451TIP3    H255769   0.708   3.988   2.792 -0.5096  0.5472 -0.9032
11452TIP3   OH255770   4.886   4.488   1.697  0.0999 -0.7388  0.1914
11452TIP3    H155771   4.891   4.448   1.611 -0.7067 -0.7074  0.1289
11452TIP3    H255772   4.859   4.579   1.680 -2.4350 -1.3547  0.6099
11453TIP3   OH255773   0.208   3.726   3.044  0.2433  0.5036 -0.0553
11453TIP3    H155774   0.156   3.649   3.021  1.1650 -0.6350  1.4831
11453TIP3    H255775   0.147   3.800   3.034 -1.8341 -0.7790  1.9066
11454TIP3   OH255776   4.629   5.193  11.263 -0.3171  0.1091 -0.3672
11454TIP3    H155777   4.678   5.275  11.266  0.1873 -0.2216  1.7019
11454TIP3    H255778   4.657   5.152  11.181  3.0800 -0.1500  0.7638
11455TIP3   OH255779   1.364   2.475   1.015 -1.0067  0.0249 -0.0754
11455TIP3    H155780   1.297   2.519   0.964 -1.5537 -0.6340  0.0711
11455TIP3    H255781   1.413   2.423   0.951 -0.0775  1.1496 -0.3235
11456TIP3   OH255782   0.835   5.078  15.398  0.1681 -0.7762 -0.2401
11456TIP3    H155783   0.870   5.158  15.358 -0.1437 -0.8141 -0.5937
11456TIP3    H255784   0.744   5.099  15.418  0.0320 -1.1042 -0.5066
11457TIP3   OH255785   4.037   1.081   3.824 -0.6864  0.5132 -0.2515
11457TIP3    H155786   3.944   1.076   3.803 -0.9651 -1.8151  1.2225
11457TIP3    H255787   4.081   1.035   3.752 -0.8491  0.1246 -0.1057
11458TIP3   OH255788   4.582   3.141   3.324  0.3999  0.3512  0.5493
11458TIP3    H155789   4.495   3.132   3.364  0.0062 -0.8894 -0.4906
11458TIP3    H255790   4.577   3.087   3.245  1.9447  0.7312  0.1595
11459TIP3   OH255791   5.541   5.459   0.230 -0.1329 -0.3713 -0.4926
11459TIP3    H155792   5.448   5.452   0.250 -0.5402  0.1830 -2.0791
11459TIP3    H255793   5.579   5.504   0.306 -1.3706  0.5293 -0.3828
11460TIP3   OH255794   0.027   1.094  16.367 -0.1933  0.2826 -0.2398
11460TIP3    H155795   0.056   1.035  16.297 -2.2058 -0.8639 -0.1829
11460TIP3    H255796   0.108   1.129  16.404  0.9731 -0.5065 -1.9350
11461TIP3   OH255797   0.392   4.535  12.873  0.2071 -0.6878 -0.2221
11461TIP3    H155798   0.473   4.485  12.880 -0.2746 -1.5159 -0.4175
11461TIP3    H255799   0.359   4.515  12.786 -0.6280 -1.0149  0.1611
11462TIP3   OH255800   1.509   4.468   5.791  0.5416 -0.4456  0.7521
11462TIP3    H155801   1.533   4.554   5.756 -0.2437  0.0655  1.4351
11462TIP3    H255802   1.593   4.427   5.814  1.0264 -0.4584 -0.8857
11463TIP3   OH255803   6.537   5.167  13.194 -0.1442 -0.3297  0.1342
11463TIP3    H155804   6.534   5.105  13.267  5.2270 -3.4224 -1.7309
11463TIP3    H255805   6.604   5.230  13.219  1.8631 -1.5002 -1.9302
11464TIP3   OH255806   2.465   5.039  15.914  0.4875 -0.1726  0.0981
11464TIP3    H155807   2.452   5.132  15.897 -0.7681 -0.7621 -2.7560
11464TIP3    H255808   2.390   5.014  15.967 -1.0158 -0.1203 -1.8827
11465TIP3   OH255809   5.820   2.737  13.483  0.6155  0.2166 -0.1447
11465TIP3    H155810   5.800   2.811  13.540  1.1626  0.6956 -0.5575
11465TIP3    H255811   5.742   2.727  13.428  0.6352  0.6452 -0.2531
11466TIP3   OH255812   5.339   4.868   0.787  0.1454 -0.1906 -0.4073
11466TIP3    H155813   5.393   4.814   0.845  1.3980  0.5749 -0.8210
11466TIP3    H255814   5.299   4.933   0.845  0.4863 -0.1322 -0.2369
11467TIP3   OH255815   2.715   6.661  12.948  0.2833  0.1423 -0.0076
11467TIP3    H155816   2.768   6.734  12.980  0.3614  0.8341 -1.5914
11467TIP3    H255817   2.762   6.630  12.870 -0.7740 -0.3254 -0.4743
11468TIP3   OH255818   3.176   3.910   2.399  1.0809 -0.3113  0.3100
11468TIP3    H155819   3.160   3.831   2.348  1.6534 -2.5216  3.2689
11468TIP3    H255820   3.191   3.978   2.334  0.1983 -2.5233 -2.4016
11469TIP3   OH255821   3.077   1.800   0.181 -0.1604 -0.1140 -0.6113
11469TIP3    H155822   3.038   1.825   0.265  1.1148  0.5280 -0.1913
11469TIP3    H255823   3.090   1.705   0.187  1.5876  0.1697  0.6570
11470TIP3   OH255824   4.963   5.367  15.917 -0.0442 -0.0101  0.8420
11470TIP3    H155825   4.979   5.462  15.922 -2.2251  0.3828  2.3063
11470TIP3    H255826   5.044   5.327  15.948  1.2780  1.2970 -0.7236
11471TIP3   OH255827   0.937   6.677  13.646  0.2196  0.2495  1.0151
11471TIP3    H155828   0.882   6.753  13.664  1.2376  0.6880  2.5442
11471TIP3    H255829   1.025   6.713  13.636  0.3236 -0.4546 -1.1902
11472TIP3   OH255830   4.133   3.299   0.955  0.8904  0.6720  0.6108
11472TIP3    H155831   4.091   3.227   1.001  0.6415  1.3054  1.3939
11472TIP3    H255832   4.225   3.293   0.981  0.9591  0.3521  0.2975
11473TIP3   OH255833   0.382   1.656   1.413  0.3203 -0.2458 -0.3644
11473TIP3    H155834   0.438   1.578   1.418  0.7431  0.0785  0.0014
11473TIP3    H255835   0.408   1.698   1.332 -0.9821 -1.2882 -1.3618
11474TIP3   OH255836   4.777   1.841  14.767 -0.7055 -0.2553  0.2029
11474TIP3    H155837   4.800   1.776  14.700 -0.9365  0.9421 -1.0782
11474TIP3    H255838   4.847   1.832  14.833  1.3264  0.6037 -1.6968
11475TIP3   OH255839   2.288   3.751   3.494  0.0743  0.6381  0.0715
11475TIP3    H155840   2.242   3.731   3.575  1.1757  0.2996  0.6331
11475TIP3    H255841   2.375   3.712   3.505 -0.0237 -0.1156 -1.6004
11476TIP3   OH255842   3.198   1.206  13.414  0.0744  0.0060  0.1712
11476TIP3    H155843   3.273   1.219  13.357 -0.1750  2.4553  0.2837
11476TIP3    H255844   3.128   1.175  13.357  0.5081  0.0328 -0.3754
11477TIP3   OH255845   2.118   2.872  12.164 -0.4429 -0.4342  0.6492
11477TIP3    H155846   2.093   2.891  12.074  0.3407 -1.9311  0.0767
11477TIP3    H255847   2.035   2.871  12.212 -1.0160 -0.8389 -0.3122
11478TIP3   OH255848   6.121   1.278   2.110 -0.2665 -0.7004  0.3977
11478TIP3    H155849   6.130   1.271   2.015  0.1582  0.5512  0.3201
11478TIP3    H255850   6.040   1.327   2.124  1.0705  1.6000  0.5415
11479TIP3   OH255851   6.497   1.493   1.281  0.3222  0.6241 -0.0163
11479TIP3    H155852   6.510   1.552   1.207  2.1337  0.2380 -0.0492
11479TIP3    H255853   6.515   1.546   1.359  0.9696  0.3875  0.0027
11480TIP3   OH255854   2.025   3.271  10.572 -0.4017  0.3902 -0.2141
11480TIP3    H155855   2.090   3.312  10.515  1.6911 -0.1538  1.6352
11480TIP3    H255856   2.001   3.190  10.527  0.2797  0.5625 -0.9010
11481TIP3   OH255857   1.126   0.554   1.888  0.1787 -0.1929  0.5546
11481TIP3    H155858   1.036   0.522   1.899  0.5411 -1.6791 -0.5302
11481TIP3    H255859   1.116   0.645   1.862 -1.0452 -0.4994 -0.1204
11482TIP3   OH255860   1.299   5.120  12.620 -0.4440 -0.7215 -0.0866
11482TIP3    H155861   1.275   5.138  12.711  1.3685  2.4673 -0.1012
11482TIP3    H255862   1.346   5.037  12.624  1.5631  0.3995  2.3569
11483TIP3   OH255863   5.285   0.845  11.816 -0.4083  0.1068  0.4921
11483TIP3    H155864   5.248   0.898  11.887 -0.8184 -0.4272  0.6852
11483TIP3    H255865   5.232   0.765  11.815  1.2131 -1.0381  1.2800
11484TIP3   OH255866   1.087   1.761   0.019 -0.5251 -0.5563 -0.0067
11484TIP3    H155867   1.131   1.697  -0.037 -1.4608 -1.6532  0.4733
11484TIP3    H255868   1.077   1.717   0.103 -1.3731  0.1536  0.2838
11485TIP3   OH255869   5.109   0.520   6.541  0.4223  0.0227 -0.3722
11485TIP3    H155870   5.204   0.520   6.536  0.4929  1.6185  0.5996
11485TIP3    H255871   5.084   0.430   6.519  2.2182 -0.8277  0.8758
11486TIP3   OH255872   5.486   4.158  13.706  0.1329 -0.0355 -0.0393
11486TIP3    H155873   5.478   4.102  13.629 -0.1873  0.6801 -0.5495
11486TIP3    H255874   5.396   4.187  13.724  0.3824  0.9447 -0.2917
11487TIP3   OH255875   2.520   2.858   6.019 -0.4473  0.5417 -0.4493
11487TIP3    H155876   2.511   2.916   6.095  0.3672  0.9451 -0.6471
11487TIP3    H255877   2.532   2.771   6.057  1.3210  0.9151 -0.0420
11488TIP3   OH255878   1.301   3.086   1.764  0.1581  0.1366 -0.3921
11488TIP3    H155879   1.286   3.044   1.680 -1.5079  2.7423 -1.5560
11488TIP3    H255880   1.391   3.116   1.760  0.1895 -0.0368 -1.1442
11489TIP3   OH255881   5.563   6.022   1.304  1.0404  0.5418  0.1837
11489TIP3    H155882   5.478   5.996   1.340  1.1607  0.2207  0.2320
11489TIP3    H255883   5.596   6.087   1.365  0.8111  0.6975  0.1442
11490TIP3   OH255884   6.182   2.186   4.261  0.3779  0.4742  0.5299
11490TIP3    H155885   6.237   2.156   4.189  0.5921 -0.8728  1.2377
11490TIP3    H255886   6.192   2.119   4.328 -3.2241 -0.6110  0.1705
11491TIP3   OH255887   1.906   5.304   4.116  0.5199  0.6948 -0.0389
11491TIP3    H155888   1.815   5.274   4.115  0.3311  1.2345  0.5305
11491TIP3    H255889   1.900   5.399   4.106  1.0879  0.6232 -1.3449
11492TIP3   OH255890   5.015   3.123   5.769 -0.2914 -0.6609  0.6592
11492TIP3    H155891   4.953   3.072   5.820 -0.6154 -0.0002  0.9456
11492TIP3    H255892   4.962   3.162   5.699 -0.1519 -0.3211  0.7377
11493TIP3   OH255893   5.480   0.283  10.958 -0.3813 -0.5357  0.0366
11493TIP3    H155894   5.469   0.221  10.886 -0.4362  0.7530 -1.1204
11493TIP3    H255895   5.575   0.296  10.964 -0.4033 -0.2659 -0.1564
11494TIP3   OH255896   2.271   2.313   5.717  0.4256  0.3066  0.2809
11494TIP3    H155897   2.287   2.241   5.656  0.4330  1.0041 -0.5600
11494TIP3    H255898   2.190   2.354   5.686  0.3062  0.5419  0.8718
11495TIP3   OH255899   4.198   4.681   3.966 -0.0889 -0.5057  0.1760
11495TIP3    H155900   4.140   4.689   4.041 -1.6210 -2.3033 -0.7510
11495TIP3    H255901   4.277   4.639   4.001 -0.9827 -1.7774  0.7000
11496TIP3   OH255902   6.524   1.879  14.509  0.1514 -0.3697 -0.2156
11496TIP3    H155903   6.544   1.952  14.567  0.2933  0.3642 -1.1521
11496TIP3    H255904   6.431   1.861  14.523  0.1618 -0.1271  0.1653
11497TIP3   OH255905   5.859   6.562  16.312  0.2403  0.3471  0.4108
11497TIP3    H155906   5.815   6.647  16.309  1.6556  1.1518  1.3406
11497TIP3    H255907   5.788   6.498  16.310 -0.9022  1.5714  0.7497
11498TIP3   OH255908   5.488   4.708   5.998 -0.0476  0.0742  0.6045
11498TIP3    H155909   5.578   4.674   6.001 -0.4841 -1.1875 -0.0823
11498TIP3    H255910   5.476   4.749   6.084  1.9314  2.3104 -0.0679
11499TIP3   OH255911   3.549   2.891  10.756  0.8010 -0.4914 -0.1396
11499TIP3    H155912   3.590   2.805  10.751 -0.4838 -1.0832 -0.9056
11499TIP3    H255913   3.618   2.949  10.789  1.6678 -1.8143  0.4480
11500TIP3   OH255914   0.443   5.671   1.935  0.3859 -0.6962 -0.5425
11500TIP3    H155915   0.513   5.632   1.883 -0.6690 -1.8312 -1.1509
11500TIP3    H255916   0.472   5.661   2.025  1.8849  0.5993 -0.8421
11501TIP3   OH255917   3.922   5.257  12.466 -0.1005  0.8994 -0.1625
11501TIP3    H155918   3.995   5.233  12.409  0.0985  1.8272 -0.3103
11501TIP3    H255919   3.920   5.353  12.464 -0.7532  0.9116  0.5592
11502TIP3   OH255920   0.316   5.088  11.800 -0.0948  0.3799  0.0150
11502TIP3    H155921   0.293   5.181  11.791  1.2560  0.5121 -4.0471
11502TIP3    H255922   0.406   5.090  11.834 -0.9504  0.3436  2.4864
11503TIP3   OH255923   2.031   4.487  17.216  0.0843  0.4257  0.0494
11503TIP3    H155924   1.999   4.560  17.163 -1.2904 -0.3881 -0.2912
11503TIP3    H255925   1.959   4.424  17.217  1.2391 -0.9548  0.2952
11504TIP3   OH255926   1.929   5.750   2.214 -0.7201 -0.1396 -0.2068
11504TIP3    H155927   2.001   5.809   2.193 -0.1875 -1.0379 -0.9875
11504TIP3    H255928   1.852   5.807   2.220  0.0134  0.8150  0.5140
11505TIP3   OH255929   3.200   0.572   4.762 -0.3781 -0.9984 -0.1310
11505TIP3    H155930   3.208   0.594   4.855  1.3747 -0.5828 -0.3521
11505TIP3    H255931   3.183   0.477   4.761 -0.5975 -0.9729  0.6071
11506TIP3   OH255932   3.244   6.320  13.299 -0.3723  0.2296 -0.2912
11506TIP3    H155933   3.315   6.348  13.242  0.2892  1.8456  1.2392
11506TIP3    H255934   3.164   6.348  13.255 -0.0645 -1.0450 -1.7262
11507TIP3   OH255935   6.081   5.208   6.661  0.0757 -0.4824  0.4883
11507TIP3    H155936   6.027   5.132   6.683  0.0366 -1.2585 -1.9391
11507TIP3    H255937   6.142   5.176   6.595  1.7329  1.0328  1.2179
11508TIP3   OH255938   2.626   1.631   4.737  0.0368  0.2347  0.0605
11508TIP3    H155939   2.572   1.699   4.777 -0.1879  0.0711  0.0439
11508TIP3    H255940   2.664   1.584   4.812 -0.9671 -0.5359  0.1247
11509TIP3   OH255941   5.518   0.553   4.905 -0.0728 -0.0367  0.4552
11509TIP3    H155942   5.592   0.612   4.904 -0.5424  0.5760 -0.9908
11509TIP3    H255943   5.556   0.466   4.891  0.5529 -0.0165  1.9041
11510TIP3   OH255944   4.216   5.699  14.878 -0.1792  0.3084 -0.8879
11510TIP3    H155945   4.176   5.676  14.963 -0.0239  2.0572 -0.3142
11510TIP3    H255946   4.309   5.708  14.897 -0.3783  2.6654 -0.7551
11511TIP3   OH255947   2.136   6.057  12.205  0.1479  0.1138  0.2595
11511TIP3    H155948   2.096   5.989  12.259 -0.1637 -0.5881 -0.8405
11511TIP3    H255949   2.191   6.106  12.267 -0.8765 -0.1116  1.3966
11512TIP3   OH255950   3.019   0.266   6.278 -0.4241  0.0605 -0.1715
11512TIP3    H155951   3.056   0.268   6.189 -0.4450  0.5376 -0.1745
11512TIP3    H255952   3.089   0.299   6.334  1.0239 -3.8148  0.5696
11513TIP3   OH255953   1.714   4.803   0.644  0.4300  0.5599  0.6347
11513TIP3    H155954   1.791   4.764   0.685  0.2676 -0.3499  0.1103
11513TIP3    H255955   1.705   4.889   0.685  1.2262  0.3316  1.3029
11514TIP3   OH255956   1.413   1.359   5.164 -0.2376 -0.5278 -0.4117
11514TIP3    H155957   1.351   1.386   5.232  0.3524  0.6123 -0.3045
11514TIP3    H255958   1.496   1.351   5.210  0.1519  0.1882 -0.9690
11515TIP3   OH255959   6.659   6.745  14.934  0.6503  0.3032 -0.0766
11515TIP3    H155960   6.660   6.834  14.972 -1.1382  0.5882 -0.6106
11515TIP3    H255961   6.568   6.732  14.908  0.3863 -2.4809  1.8150
11516TIP3   OH255962   1.125   3.994   1.599 -0.3593  0.0077  0.5249
11516TIP3    H155963   1.073   4.065   1.636  1.9663  1.4153  1.2852
11516TIP3    H255964   1.188   3.972   1.667  0.0467 -1.6630 -0.3323
11517TIP3   OH255965   1.717   2.327   4.942 -0.3818  0.2406  0.1574
11517TIP3    H155966   1.758   2.391   4.884 -1.6015 -1.8444 -3.2726
11517TIP3    H255967   1.788   2.268   4.967 -0.0037  0.6829  0.1349
11518TIP3   OH255968   3.940   6.432   1.722 -0.7441 -0.2655 -0.0676
11518TIP3    H155969   3.882   6.500   1.756  1.1666  1.1282  0.5614
11518TIP3    H255970   3.973   6.468   1.640 -1.1904 -1.3082 -0.7284
11519TIP3   OH255971   4.422   4.541  12.391  0.4681  1.0655 -0.1501
11519TIP3    H155972   4.479   4.465  12.384 -0.0622  0.6280  0.1901
11519TIP3    H255973   4.398   4.546  12.483 -3.3852 -1.3286 -0.7732
11520TIP3   OH255974   2.544   3.743  13.113  0.3653 -0.0895 -0.3844
11520TIP3    H155975   2.515   3.663  13.070  1.2332 -0.3965 -0.4256
11520TIP3    H255976   2.584   3.713  13.195 -2.0068  0.5440  1.0845
11521TIP3   OH255977   5.353   3.932   3.573 -0.8570 -0.1886 -0.0693
11521TIP3    H155978   5.430   3.912   3.627  0.0030  1.4460 -0.6305
11521TIP3    H255979   5.298   3.986   3.629 -1.8864 -1.7723  0.5090
11522TIP3   OH255980   4.165   5.486   5.682  0.0288  0.8246  0.3627
11522TIP3    H155981   4.095   5.551   5.690 -0.7281  0.1476 -0.5005
11522TIP3    H255982   4.162   5.437   5.764 -1.7645 -0.3849 -0.3670
11523TIP3   OH255983   0.799   4.038  13.776  0.5602  0.4558 -0.4453
11523TIP3    H155984   0.775   4.103  13.842  0.8116  1.2541 -1.1206
11523TIP3    H255985   0.819   4.090  13.698  0.2075 -0.4728 -1.1680
11524TIP3   OH255986   0.529   5.881  13.762 -0.1147  0.0555  0.0938
11524TIP3    H155987   0.587   5.882  13.686 -0.4597 -1.0821 -0.2224
11524TIP3    H255988   0.442   5.862  13.725 -0.2532 -0.7212  0.7772
11525TIP3   OH255989   3.132   5.497  15.580 -0.0282 -0.0137 -0.3095
11525TIP3    H155990   3.120   5.553  15.503 -1.7271 -0.9973 -0.8290
11525TIP3    H255991   3.056   5.517  15.635  0.7934  0.1532  0.7737
11526TIP3   OH255992   1.893   1.918  15.049 -0.3345  0.6515  0.4388
11526TIP3    H155993   1.856   1.853  14.990 -0.4266  0.2866  0.8849
11526TIP3    H255994   1.926   1.987  14.992  0.1279  0.0276 -0.0709
11527TIP3   OH255995   0.935   2.583  12.820 -0.6324  0.9291 -0.2610
11527TIP3    H155996   0.965   2.661  12.867 -2.4021  1.3905  0.1905
11527TIP3    H255997   0.850   2.609  12.782 -0.2107 -0.0819 -2.0148
11528TIP3   OH255998   3.371   1.718  14.320  0.4228  0.1092 -0.4340
11528TIP3    H155999   3.288   1.706  14.274  0.5004 -0.2633 -0.4810
11528TIP3    H256000   3.360   1.670  14.402  0.2662  0.8187 -0.0333
11529TIP3   OH256001   5.233   0.979  16.133 -0.1403  0.1476 -1.2649
11529TIP3    H156002   5.244   1.073  16.152  0.6249 -0.2014  0.1237
11529TIP3    H256003   5.140   0.964  16.144 -0.0606  0.4536  0.0652
11530TIP3   OH256004   1.850   1.505   0.938  0.1005 -0.6659  0.4110
11530TIP3    H156005   1.888   1.567   0.876 -2.5168  1.3225  0.5888
11530TIP3    H256006   1.784   1.457   0.887  0.1912 -1.3462  0.9190
11531TIP3   OH256007   0.194   3.064   5.245  0.6608  0.7850  0.0535
11531TIP3    H156008   0.227   3.072   5.334  0.6177  2.3207 -0.0450
11531TIP3    H256009   0.273   3.061   5.191  0.7305 -1.4586  0.1864
11532TIP3   OH256010   4.402   1.879  16.724  0.1952 -0.7231 -0.0179
11532TIP3    H156011   4.443   1.813  16.780 -0.4658 -1.5506 -0.4861
11532TIP3    H256012   4.337   1.830  16.673 -2.0300  0.6595  1.3104
11533TIP3   OH256013   2.088   2.378  13.024  0.1908 -0.2974  0.6437
11533TIP3    H156014   2.155   2.328  12.978 -0.6686 -0.7966 -0.0736
11533TIP3    H256015   2.137   2.428  13.089  1.9770  3.0994 -2.9118
11534TIP3   OH256016   4.279   2.140   2.928 -0.2519  0.6752 -0.2050
11534TIP3    H156017   4.184   2.148   2.938 -0.3300  1.0131 -1.0912
11534TIP3    H256018   4.296   2.046   2.931 -0.7073  0.5700 -0.7072
11535TIP3   OH256019   2.707   6.706  16.610  0.5227  0.1804 -0.7950
11535TIP3    H156020   2.654   6.746  16.541  1.6390 -1.3112 -2.6331
11535TIP3    H256021   2.767   6.775  16.638 -0.4812  1.0426 -0.7105
11536TIP3   OH256022   3.899   4.082  13.435 -0.0067  0.3601 -0.3975
11536TIP3    H156023   3.990   4.108  13.421  0.6666 -1.0960  0.9150
11536TIP3    H256024   3.877   4.121  13.520  0.2610 -1.3141  0.4828
11537TIP3   OH256025   1.936   0.844  15.880  0.0271  0.1660  0.0912
11537TIP3    H156026   1.908   0.768  15.830 -0.0172  0.7512 -0.7925
11537TIP3    H256027   1.869   0.854  15.948 -2.4284  1.9342 -2.3793
11538TIP3   OH256028   3.814   2.592  11.364 -0.6994  0.1923  0.1566
11538TIP3    H156029   3.805   2.573  11.271 -0.7131 -0.4177  0.2773
11538TIP3    H256030   3.727   2.579  11.401 -0.9344  1.4607  0.0834
11539TIP3   OH256031   0.034   3.098   3.819 -0.4193 -0.1363 -0.4059
11539TIP3    H156032   0.095   3.050   3.764 -0.0665  0.4641 -0.5453
11539TIP3    H256033   0.051   3.190   3.800  1.1880  0.2099  2.2397
11540TIP3   OH256034   4.346   6.551   2.046  0.2407 -0.0099 -0.4800
11540TIP3    H156035   4.281   6.527   1.980 -0.7059  0.7640  0.1538
11540TIP3    H256036   4.424   6.500   2.022 -0.3870 -0.4697 -1.6184
11541TIP3   OH256037   1.316   5.951  14.459 -0.0803 -0.4479  0.2945
11541TIP3    H156038   1.240   5.922  14.508  1.0277 -0.0587  2.3267
11541TIP3    H256039   1.390   5.904  14.497  0.9153  0.3833 -0.5304
11542TIP3   OH256040   6.602   3.657   1.802 -0.6710 -0.3604 -0.2646
11542TIP3    H156041   6.606   3.750   1.823  1.4280 -0.4466 -0.1404
11542TIP3    H256042   6.672   3.643   1.738 -0.5232 -1.9655  0.1904
11543TIP3   OH256043   4.150   3.547   3.309  0.2967 -0.0018 -0.3890
11543TIP3    H156044   4.070   3.538   3.258 -0.5854  2.3595  0.4352
11543TIP3    H256045   4.122   3.589   3.390  2.3238  0.6113  0.0562
11544TIP3   OH256046   1.705   2.039  13.762 -0.4055 -0.2801 -0.4162
11544TIP3    H156047   1.759   2.066  13.688 -2.5191  3.1046 -0.9212
11544TIP3    H256048   1.764   1.988  13.817  3.1963  2.7049 -1.1279
11545TIP3   OH256049   5.673   4.730   2.672 -0.2568  0.4536  0.0004
11545TIP3    H156050   5.672   4.646   2.627  0.0581  2.4843 -4.2969
11545TIP3    H256051   5.742   4.722   2.737  0.6324 -2.1897 -1.1464
11546TIP3   OH256052   5.390   5.335  11.556  0.2381 -0.2469 -0.3453
11546TIP3    H156053   5.483   5.338  11.577  0.4047 -0.3927 -1.0253
11546TIP3    H256054   5.387   5.320  11.461 -0.4771 -1.1148 -0.2050
11547TIP3   OH256055   6.663   3.691   3.769  0.4262 -0.5810 -0.5914
11547TIP3    H156056   6.655   3.774   3.816  0.6795  0.3405 -2.1022
11547TIP3    H256057   6.577   3.651   3.777  0.9027 -1.3024  2.0646
11548TIP3   OH256058   2.820   2.485   2.779 -0.1804 -0.3634  0.0458
11548TIP3    H156059   2.885   2.555   2.779  0.9326 -1.3678  0.2193
11548TIP3    H256060   2.824   2.449   2.691 -1.8056  0.6904 -0.5194
11549TIP3   OH256061   4.013   6.289  11.432  0.1227 -0.2199  0.3350
11549TIP3    H156062   4.096   6.324  11.465  0.0042  0.3037  0.0720
11549TIP3    H256063   4.020   6.195  11.448  0.7584 -0.1789  0.3391
11550TIP3   OH256064   5.996   0.094  14.421 -0.1332 -0.3123  0.5866
11550TIP3    H156065   6.031   0.018  14.376 -0.0165  0.3356 -0.4486
11550TIP3    H256066   6.050   0.103  14.499 -0.1790 -1.3079  0.7391
11551TIP3   OH256067   5.337   5.661   2.718 -0.2309 -0.3294  0.8194
11551TIP3    H156068   5.368   5.729   2.658 -1.6357 -0.0602  0.3599
11551TIP3    H256069   5.370   5.579   2.681 -2.0005 -0.2915 -1.0043
11552TIP3   OH256070   5.604   3.425   2.185  0.0914 -0.1657 -0.1135
11552TIP3    H156071   5.684   3.390   2.224 -0.5503 -0.5803  0.8619
11552TIP3    H256072   5.612   3.406   2.091  0.2515 -1.9901  0.2357
11553TIP3   OH256073   2.076   1.308   1.476 -0.4400 -0.0379 -0.7799
11553TIP3    H156074   2.070   1.352   1.561 -0.4838 -1.3122 -0.0928
11553TIP3    H256075   2.092   1.379   1.414  2.9453  0.6924  0.6696
11554TIP3   OH256076   0.384   4.314  16.700 -0.0325  0.3098 -0.3239
11554TIP3    H156077   0.440   4.264  16.758 -1.3693  0.4237  1.1249
11554TIP3    H256078   0.358   4.391  16.751 -2.8166 -0.5388 -0.2719
11555TIP3   OH256079   1.749   1.916   3.522  0.1650 -0.5331 -0.5522
11555TIP3    H156080   1.803   1.949   3.450  0.5984  0.9468  0.4073
11555TIP3    H256081   1.673   1.975   3.523 -0.4794 -1.3498 -0.6081
11556TIP3   OH256082   3.753   2.251   5.052  0.0447 -0.4348 -0.2994
11556TIP3    H156083   3.739   2.179   5.113 -0.3350 -1.9112 -2.0182
11556TIP3    H256084   3.815   2.216   4.988  1.5698  1.5508  0.0020
11557TIP3   OH256085   5.625   1.313  16.303  0.2306  0.1309  0.4057
11557TIP3    H156086   5.670   1.369  16.240 -0.9662  1.3489  0.5986
11557TIP3    H256087   5.634   1.358  16.387  0.4329 -0.6749  0.8296
11558TIP3   OH256088   1.449   3.208   5.621 -0.1563  0.6497 -0.5672
11558TIP3    H156089   1.411   3.142   5.679  0.2628 -0.2074 -1.2404
11558TIP3    H256090   1.531   3.233   5.663  0.3763 -0.3147 -1.0056
11559TIP3   OH256091   2.543   0.647  13.433 -0.7103  0.2991  0.0949
11559TIP3    H156092   2.499   0.723  13.470 -1.1687 -0.0633  0.3168
11559TIP3    H256093   2.471   0.594  13.398 -0.4019 -0.0612  0.0054
11560TIP3   OH256094   2.375   1.316  14.007 -0.0408  0.3681 -0.3097
11560TIP3    H156095   2.406   1.239  13.960 -1.4257  0.2765 -1.1406
11560TIP3    H256096   2.281   1.318  13.989 -0.3649  1.1543  1.2997
11561TIP3   OH256097   6.470   5.631  11.918  0.3202 -0.3292 -0.5517
11561TIP3    H156098   6.470   5.652  12.011  2.8133 -2.3673  0.0346
11561TIP3    H256099   6.401   5.686  11.881 -1.3021  0.0119  2.5825
11562TIP3   OH256100   1.805   1.425  15.943  0.0741 -0.5284 -0.2917
11562TIP3    H156101   1.742   1.377  15.996  0.1145 -0.4931 -0.2093
11562TIP3    H256102   1.890   1.395  15.975  0.0975 -0.6153 -0.4394
11563TIP3   OH256103   4.437   3.270   4.177  0.0916  0.3613  0.3932
11563TIP3    H156104   4.478   3.200   4.125 -0.5498 -0.5409  1.0599
11563TIP3    H256105   4.352   3.283   4.135  0.2786  0.8647  0.1699
11564TIP3   OH256106   0.985   5.799  16.725 -1.2129 -0.1249 -0.5124
11564TIP3    H156107   1.007   5.817  16.633 -0.6804 -0.4592 -0.4545
11564TIP3    H256108   0.932   5.719  16.722 -1.7025  0.1955 -0.5752
11565TIP3   OH256109   3.051   2.500  15.706  0.2482 -0.2955 -0.0764
11565TIP3    H156110   3.136   2.511  15.748 -0.0102  0.7580  0.2034
11565TIP3    H256111   3.011   2.587  15.709 -0.9034 -0.7996 -0.0572
11566TIP3   OH256112   5.078   3.926  15.654 -0.4576  0.3202  0.0151
11566TIP3    H156113   5.070   3.968  15.568  1.6040 -1.0779 -0.9437
11566TIP3    H256114   5.110   3.995  15.712  0.8341  0.6531 -1.0356
11567TIP3   OH256115   0.973   3.242  14.496 -0.0175 -0.0845  0.2794
11567TIP3    H156116   1.018   3.186  14.560  0.4826  0.0162  0.0217
11567TIP3    H256117   0.882   3.213  14.500  0.3328 -1.3596 -0.2878
11568TIP3   OH256118   0.641   2.904   3.433  0.1368  0.1581 -0.4051
11568TIP3    H156119   0.729   2.932   3.410 -1.2211  2.8977 -2.9653
11568TIP3    H256120   0.626   2.941   3.520  0.8255  1.6099 -0.8592
11569TIP3   OH256121   4.879   1.701   2.142  0.1262 -0.3054 -0.0403
11569TIP3    H156122   4.847   1.743   2.062 -0.3085  0.6145  0.6048
11569TIP3    H256123   4.805   1.648   2.172  0.3024 -0.6800 -0.2628
11570TIP3   OH256124   2.594   2.611   4.054 -0.2210 -0.6169 -0.2437
11570TIP3    H156125   2.653   2.678   4.018 -1.2649  0.7652  0.5078
11570TIP3    H256126   2.650   2.534   4.067  1.3029  0.4731 -0.0432
11571TIP3   OH256127   0.233   5.358   5.707 -1.0758 -0.4881 -0.1561
11571TIP3    H156128   0.246   5.419   5.634 -0.4695  1.6628  1.6270
11571TIP3    H256129   0.275   5.277   5.678 -1.1890  0.1540 -2.3246
11572TIP3   OH256130   4.905   4.822   4.671 -0.5693  0.0906 -0.0860
11572TIP3    H156131   4.990   4.857   4.645  1.0530 -1.8931  2.1124
11572TIP3    H256132   4.895   4.742   4.620 -0.9417  0.0948 -0.0247
11573TIP3   OH256133   6.592   4.202   5.465  0.4600 -0.1976  0.1396
11573TIP3    H156134   6.681   4.172   5.451  0.8470  0.3965  1.2064
11573TIP3    H256135   6.559   4.146   5.536 -0.3361 -1.0146 -0.8514
11574TIP3   OH256136   1.617   2.493  14.253  0.1865  0.1903 -0.3294
11574TIP3    H156137   1.623   2.540  14.170  3.4310 -0.7721 -0.7708
11574TIP3    H256138   1.554   2.423  14.236  0.3050  0.4109 -1.7842
11575TIP3   OH256139   6.188   6.438   6.966  0.5039  0.2099  0.0064
11575TIP3    H156140   6.164   6.372   6.901  1.1386  0.9702 -1.0257
11575TIP3    H256141   6.144   6.410   7.046 -0.9278 -0.3379 -0.9399
11576TIP3   OH256142   2.562   4.444  16.608 -0.4089  0.8994  0.7667
11576TIP3    H156143   2.528   4.509  16.669  1.4297  0.7449  2.0430
11576TIP3    H256144   2.534   4.360  16.644 -0.8193  0.8695  0.3929
11577TIP3   OH256145   5.605   3.477   5.653  0.2793 -0.2803 -0.6556
11577TIP3    H156146   5.661   3.492   5.577 -2.0971  3.0420 -1.9699
11577TIP3    H256147   5.633   3.544   5.716 -2.3657  1.8856 -1.5808
11578TIP3   OH256148   6.384   2.374   4.621  0.3815 -0.4701 -0.1003
11578TIP3    H156149   6.391   2.305   4.556  1.6230  0.5052 -1.0679
11578TIP3    H256150   6.294   2.407   4.612  0.7285  0.0977 -1.8359
11579TIP3   OH256151   1.437   5.260   1.542  0.1681  0.0116 -0.4835
11579TIP3    H156152   1.416   5.258   1.449 -0.5578 -0.2265 -0.3253
11579TIP3    H256153   1.369   5.206   1.583  1.4662 -1.3422 -0.0016
11580TIP3   OH256154   0.794   5.953   5.734 -0.4316  0.0141  0.7098
11580TIP3    H156155   0.815   5.870   5.775  0.4814  0.5278  1.3101
11580TIP3    H256156   0.714   5.983   5.779 -1.0677 -0.7649  0.1301
11581TIP3   OH256157   1.660   3.056   3.689 -0.5117  0.4169  0.0662
11581TIP3    H156158   1.727   3.110   3.731 -0.0670 -0.1576  0.1132
11581TIP3    H256159   1.642   3.099   3.605  0.5863  0.0708 -0.3526
11582TIP3   OH256160   1.834   1.482  12.625 -0.3888  0.0425 -0.3679
11582TIP3    H156161   1.861   1.454  12.713  0.6695  1.1137 -0.3255
11582TIP3    H256162   1.803   1.572  12.637  0.6944  0.5488 -1.2345
11583TIP3   OH256163   3.404   0.755   0.657 -0.3485  0.0713 -0.1893
11583TIP3    H156164   3.414   0.849   0.644 -0.5069 -0.1089 -1.8887
11583TIP3    H256165   3.319   0.745   0.699  0.7743  0.8071  2.4373
11584TIP3   OH256166   4.067   0.829  16.589  0.0652 -0.5769  0.1136
11584TIP3    H156167   4.156   0.800  16.570  0.2162 -0.9448  1.3095
11584TIP3    H256168   4.076   0.920  16.614  0.0691 -0.5341 -0.0429
11585TIP3   OH256169   5.148   2.842   3.703  0.2674 -0.1786 -0.3248
11585TIP3    H156170   5.170   2.758   3.744 -1.6830 -0.0769  1.0566
11585TIP3    H256171   5.232   2.877   3.674  1.1651 -2.5011 -0.7744
11586TIP3   OH256172   4.517   4.859  12.719 -0.6805  0.1256 -0.4492
11586TIP3    H156173   4.440   4.803  12.706  0.0013 -0.7558 -0.7248
11586TIP3    H256174   4.560   4.823  12.797  0.0779 -0.1067 -0.9688
11587TIP3   OH256175   0.969   4.653  14.815  0.5129  0.0122 -0.1748
11587TIP3    H156176   0.961   4.643  14.910 -1.8362 -2.7980 -0.5360
11587TIP3    H256177   1.061   4.634  14.796  1.6439  2.8951  1.6111
11588TIP3   OH256178   3.866   0.932  11.945  0.0356  0.6811  0.0298
11588TIP3    H156179   3.899   0.952  12.033 -1.1944  2.4453  0.1268
11588TIP3    H256180   3.784   0.886  11.960  0.5687 -0.3949 -0.2279
11589TIP3   OH256181   0.359   0.788  11.349  0.4200  0.2310  0.2041
11589TIP3    H156182   0.410   0.738  11.414 -2.3499  0.0430  2.4274
11589TIP3    H256183   0.411   0.867  11.335  1.5784 -0.1318  1.9941
11590TIP3   OH256184   0.457   5.308  13.065 -0.1026 -0.5090  0.1287
11590TIP3    H156185   0.552   5.316  13.062  0.1151 -2.1232  1.4143
11590TIP3    H256186   0.441   5.215  13.084 -1.8269  0.2016  2.6850
11591TIP3   OH256187   2.325   1.120  10.926  0.1287 -0.3738 -1.0532
11591TIP3    H156188   2.315   1.065  11.003  0.1684  0.0815 -0.7218
11591TIP3    H256189   2.239   1.159  10.912  0.8631  2.0847  0.6967
11592TIP3   OH256190   4.702   6.508  14.374 -0.2890  0.2321  0.3593
11592TIP3    H156191   4.709   6.545  14.286  0.2811 -1.3418 -0.2935
11592TIP3    H256192   4.618   6.540  14.407  0.4022  2.5279  0.0914
11593TIP3   OH256193   2.164   5.352   1.992  0.2320 -0.2455 -0.2093
11593TIP3    H156194   2.071   5.362   2.012 -0.2076  0.2562 -2.2805
11593TIP3    H256195   2.176   5.258   1.981 -0.3140 -0.2322 -1.0508
11594TIP3   OH256196   5.289   1.560   4.814  0.4774 -0.1527  0.2070
11594TIP3    H156197   5.237   1.597   4.885  0.6982  2.4747 -0.8651
11594TIP3    H256198   5.380   1.580   4.839  0.5651  0.6315 -0.6822
11595TIP3   OH256199   2.257   4.745  11.713 -0.0375 -0.0736 -0.2837
11595TIP3    H156200   2.163   4.748  11.728 -0.8299  0.7582 -4.3069
11595TIP3    H256201   2.277   4.652  11.702  0.0277 -0.4086  2.1161
11596TIP3   OH256202   2.584   0.857  12.990 -0.5025 -0.0027 -0.1477
11596TIP3    H156203   2.509   0.798  13.002 -0.9134  0.0447 -2.1701
11596TIP3    H256204   2.637   0.814  12.923  0.5867  0.6529  0.2667
11597TIP3   OH256205   1.644   2.581  12.598 -0.0168 -0.0410  0.5803
11597TIP3    H156206   1.588   2.602  12.523  0.2844  1.0812  0.6566
11597TIP3    H256207   1.608   2.499  12.632 -2.9719  1.6133  1.9088
11598TIP3   OH256208   4.878   6.050  15.925  0.5207 -0.3539  0.5903
11598TIP3    H156209   4.888   6.041  16.020  0.0645  0.3396  0.7077
11598TIP3    H256210   4.783   6.051  15.911  0.5762 -1.6876  0.0023
11599TIP3   OH256211   5.509   3.283   6.215  0.2426  0.0279 -0.0191
11599TIP3    H156212   5.495   3.293   6.121  1.1440 -0.9524 -0.2802
11599TIP3    H256213   5.602   3.300   6.227  0.5849 -1.8764  0.3609
11600TIP3   OH256214   2.594   5.831   5.831 -0.3819 -0.1614 -0.1591
11600TIP3    H156215   2.594   5.926   5.838 -1.9905 -0.0771 -0.8472
11600TIP3    H256216   2.665   5.803   5.889  0.7107  1.4756 -0.6340
11601TIP3   OH256217   2.463   1.428   6.248  0.0073 -0.3169  0.4670
11601TIP3    H156218   2.540   1.397   6.296  1.2066  0.6474 -0.7484
11601TIP3    H256219   2.412   1.475   6.313  1.4806  0.7707  0.8970
11602TIP3   OH256220   0.580   0.806  13.939 -0.5091 -0.0205  0.7366
11602TIP3    H156221   0.564   0.900  13.928 -1.7292 -0.2511  0.4526
11602TIP3    H256222   0.658   0.789  13.886 -2.0733  0.2754 -1.8389
11603TIP3   OH256223   2.449   0.100  14.206  0.0392 -0.2515  0.0641
11603TIP3    H156224   2.363   0.081  14.245  0.2819 -0.1615  0.6673
11603TIP3    H256225   2.429   0.146  14.125 -0.5127 -1.6400 -0.6089
11604TIP3   OH256226   3.344   0.128   6.110  0.2444 -0.5865  0.2512
11604TIP3    H156227   3.395   0.097   6.036 -1.3313 -2.9563  0.0156
11604TIP3    H256228   3.377   0.216   6.128  3.1881 -1.3302 -0.8951
11605TIP3   OH256229   4.557   0.672  15.193 -0.3310 -0.1964 -0.3269
11605TIP3    H156230   4.564   0.765  15.212 -2.4616 -0.2243  0.8057
11605TIP3    H256231   4.581   0.628  15.274 -0.2158 -0.6114 -0.5779
11606TIP3   OH256232   5.347   3.460  12.968  0.4546  0.2197  0.2028
11606TIP3    H156233   5.409   3.533  12.969  2.2955 -1.2493  0.6816
11606TIP3    H256234   5.385   3.397  12.907 -1.7450  0.1395 -1.1905
11607TIP3   OH256235   5.518   4.564  17.002 -0.0354 -0.0352 -0.4858
11607TIP3    H156236   5.484   4.648  17.032 -1.6588 -0.9646  0.4455
11607TIP3    H256237   5.596   4.550  17.055  1.5419  1.8451 -2.1915
11608TIP3   OH256238   1.115   6.117   4.743 -0.1305 -0.6876 -0.8275
11608TIP3    H156239   1.100   6.159   4.828 -0.9226  0.7518 -1.6452
11608TIP3    H256240   1.206   6.087   4.746  0.5113  1.2021 -0.2358
11609TIP3   OH256241   0.299   1.778  13.701 -0.3844 -0.0151  0.3940
11609TIP3    H156242   0.226   1.752  13.758 -0.5744  0.5445  0.4154
11609TIP3    H256243   0.313   1.871  13.722 -0.2414  0.1079 -0.2413
11610TIP3   OH256244   6.195   4.210   6.244  0.8428 -0.1096  0.1737
11610TIP3    H156245   6.221   4.126   6.279  0.9051  0.0473  0.5006
11610TIP3    H256246   6.101   4.200   6.226  0.9090 -0.3384 -0.0533
11611TIP3   OH256247   0.490   6.750  11.032  0.2327  0.6097  0.2736
11611TIP3    H156248   0.444   6.831  11.013  2.0156  1.3073 -1.3740
11611TIP3    H256249   0.434   6.681  10.997 -0.6238  1.2336  0.4040
11612TIP3   OH256250   4.326   5.752  15.207  0.6004  0.1064 -0.3415
11612TIP3    H156251   4.315   5.733  15.300 -0.5428  0.3464 -0.4184
11612TIP3    H256252   4.254   5.706  15.164  1.5464 -0.6255 -1.1985
11613TIP3   OH256253   0.909   1.443   5.993  0.8196 -0.4252  0.1689
11613TIP3    H156254   0.957   1.511   6.041 -1.1310  1.0727  0.0875
11613TIP3    H256255   0.976   1.377   5.973  2.7140  1.2661  0.5784
11614TIP3   OH256256   2.402   5.346  11.214  0.6192 -0.1669 -0.1740
11614TIP3    H156257   2.472   5.282  11.229  0.5463 -0.4895 -1.0930
11614TIP3    H256258   2.418   5.378  11.125  1.2713  1.9038  0.6224
11615TIP3   OH256259   1.422   5.535  15.111  0.1259  0.2740 -0.3623
11615TIP3    H156260   1.490   5.477  15.145 -1.0328  0.0016  1.6169
11615TIP3    H256261   1.468   5.591  15.048  2.2887  0.4167  1.2131
11616TIP3   OH256262   6.173   6.634  10.652  0.0569  0.7380  0.1703
11616TIP3    H156263   6.219   6.685  10.586 -3.9383  4.7712  0.0044
11616TIP3    H256264   6.163   6.693  10.727 -2.3496 -0.7788  1.1772
11617TIP3   OH256265   0.560   1.626  12.186  0.0187  0.0995 -0.8780
11617TIP3    H156266   0.616   1.611  12.110 -0.4970 -1.5138 -0.9746
11617TIP3    H256267   0.604   1.696  12.235  0.7460  0.6490 -2.2637
11618TIP3   OH256268   0.137   4.472  11.380 -0.5712 -0.1994 -0.0739
11618TIP3    H156269   0.180   4.398  11.338 -1.2554 -0.3370 -0.5598
11618TIP3    H256270   0.207   4.534  11.397  0.0220 -0.9611  0.3608
11619TIP3   OH256271   2.589   0.237   5.437  0.0915 -0.2676 -0.1049
11619TIP3    H156272   2.585   0.255   5.531  0.3252  2.0075 -0.4851
11619TIP3    H256273   2.545   0.311   5.396 -1.8368 -2.1908 -1.7594
11620TIP3   OH256274   6.113   0.483   5.470  0.7872 -0.5302 -0.4701
11620TIP3    H156275   6.087   0.575   5.466  1.3028 -0.2925  1.0378
11620TIP3    H256276   6.208   0.484   5.458  0.6944 -0.9581 -1.3065
11621TIP3   OH256277   1.562   3.134   4.437  0.3322 -0.6602  0.1360
11621TIP3    H156278   1.616   3.206   4.406 -0.3267  0.1819  0.9001
11621TIP3    H256279   1.615   3.089   4.502 -0.5585  1.3937  2.4156
11622TIP3   OH256280   2.751   0.699  12.803 -0.4042 -0.5210  0.0922
11622TIP3    H156281   2.670   0.666  12.765  0.3217 -2.2721 -0.0321
11622TIP3    H256282   2.777   0.771  12.745 -2.1676  0.4986  0.4997
11623TIP3   OH256283   4.661   5.419  11.616  0.2247 -0.1004  0.3966
11623TIP3    H156284   4.623   5.404  11.530  1.2322 -1.3760  0.1375
11623TIP3    H256285   4.587   5.441  11.673 -0.7876 -1.6568 -0.2680
11624TIP3   OH256286   0.375   4.195  12.946 -0.2903  0.1416  0.5315
11624TIP3    H156287   0.418   4.110  12.948  0.6411  0.6063  0.7365
11624TIP3    H256288   0.414   4.241  12.872 -0.7890  0.3856  0.4176
11625TIP3   OH256289   3.630   5.412   0.579 -0.0345 -0.2238  0.1142
11625TIP3    H156290   3.541   5.386   0.554  0.2195 -1.0911  0.0819
11625TIP3    H256291   3.674   5.330   0.600  1.1323  0.0721 -1.0775
11626TIP3   OH256292   4.613   5.711  14.360  1.1789 -0.0466 -0.5620
11626TIP3    H156293   4.589   5.628  14.318 -0.2433  0.3768 -0.6628
11626TIP3    H256294   4.674   5.686  14.429 -1.6875 -1.6564  1.6182
11627TIP3   OH256295   3.041   3.172   0.619  0.9397  0.1048  0.2610
11627TIP3    H156296   2.971   3.157   0.682  1.2660 -1.2930  0.3349
11627TIP3    H256297   3.004   3.231   0.554 -0.5142 -1.0703 -0.0233
11628TIP3   OH256298   3.914   0.616  14.634 -0.1946 -0.0214  0.4029
11628TIP3    H156299   3.924   0.521  14.638 -0.5483 -0.0270  1.6486
11628TIP3    H256300   4.000   0.650  14.659 -0.1908 -0.0169  0.3834
11629TIP3   OH256301   6.339   3.401  12.384 -0.2899 -0.5787  0.2496
11629TIP3    H156302   6.337   3.321  12.332  1.2108 -0.2316 -0.3922
11629TIP3    H256303   6.400   3.459  12.338 -0.9914  0.7695  0.9472
11630TIP3   OH256304   2.697   3.146  14.752 -0.3686  0.0649  0.1949
11630TIP3    H156305   2.710   3.231  14.794  2.8419 -0.3543  0.3050
11630TIP3    H256306   2.702   3.164  14.658 -0.3512  0.1092  0.2044
11631TIP3   OH256307   4.613   0.524  16.569 -0.1397  0.0904 -0.3261
11631TIP3    H156308   4.649   0.570  16.645 -0.8261 -1.8320  1.2317
11631TIP3    H256309   4.680   0.460  16.546 -1.3034 -1.6154  0.8394
11632TIP3   OH256310   5.205   6.264   5.096  0.3486 -0.1066  0.1979
11632TIP3    H156311   5.202   6.178   5.053  0.0703 -0.2980  0.5988
11632TIP3    H256312   5.232   6.245   5.186 -2.0532 -0.0631  1.0056
11633TIP3   OH256313   3.573   1.611  14.024  0.3728  0.2456 -0.0438
11633TIP3    H156314   3.515   1.675  13.985  0.2595  0.6395  0.7534
11633TIP3    H256315   3.551   1.612  14.117  1.0918 -0.1897  0.1402
11634TIP3   OH256316   0.232   3.743   3.935  0.2793  0.6265  0.0972
11634TIP3    H156317   0.238   3.732   4.030 -2.3545  0.8976  0.3872
11634TIP3    H256318   0.241   3.654   3.900 -1.7033  0.0602  0.8928
11635TIP3   OH256319   5.212   4.955   1.414 -0.4153 -0.4812  0.4627
11635TIP3    H156320   5.229   4.926   1.504  0.8131  0.8727  0.6969
11635TIP3    H256321   5.292   4.931   1.366 -0.0946  0.8896  0.2768
11636TIP3   OH256322   3.179   4.233  14.242 -0.0512 -0.6619  0.5091
11636TIP3    H156323   3.100   4.184  14.265 -0.1022 -0.2543  1.2222
11636TIP3    H256324   3.184   4.303  14.307  0.6118 -0.3665  0.1530
11637TIP3   OH256325   4.482   0.661  13.340 -0.5854 -0.4366 -0.4111
11637TIP3    H156326   4.428   0.617  13.406 -0.7281  0.1081 -0.1609
11637TIP3    H256327   4.570   0.664  13.377 -0.6451 -0.2184 -0.2835
11638TIP3   OH256328   0.250   0.991   2.197 -0.8575  0.1307  0.1386
11638TIP3    H156329   0.176   1.022   2.250 -1.1589 -0.0304 -0.1877
11638TIP3    H256330   0.224   1.007   2.107 -0.2276  0.6510  0.0426
11639TIP3   OH256331   5.260   2.350   2.680 -0.3452  0.4597 -0.6458
11639TIP3    H156332   5.261   2.322   2.772  0.6498 -0.0779 -0.8086
11639TIP3    H256333   5.205   2.284   2.636  2.3641 -1.6682 -1.1096
11640TIP3   OH256334   6.108   1.001   6.239  0.1649  0.7465  0.0939
11640TIP3    H156335   6.190   0.954   6.221 -1.3022 -3.0422  2.0626
11640TIP3    H256336   6.136   1.089   6.263  3.3118  0.7167 -2.6161
11641TIP3   OH256337   5.749   5.902  16.226 -0.0587  0.2776 -0.4447
11641TIP3    H156338   5.742   5.907  16.130 -0.9350 -1.5221 -0.4980
11641TIP3    H256339   5.667   5.862  16.254  0.0674  1.0519  1.1084
11642TIP3   OH256340   5.996   0.021   4.697 -0.6381  0.0834 -0.0589
11642TIP3    H156341   5.998   0.009   4.792 -0.5448 -0.2557 -0.1013
11642TIP3    H256342   5.913   0.066   4.680 -1.5122 -1.4080  0.0215
11643TIP3   OH256343   0.886   6.153  13.190 -0.1856 -0.3987 -0.5656
11643TIP3    H156344   0.841   6.110  13.264 -0.8540  1.1317 -0.0467
11643TIP3    H256345   0.827   6.139  13.116 -1.1138  0.7977 -0.0889
11644TIP3   OH256346   3.940   4.030  16.881 -0.1450 -0.0563 -0.3819
11644TIP3    H156347   4.012   4.044  16.820 -0.4611 -0.1052 -0.7745
11644TIP3    H256348   3.903   4.117  16.895  1.0138  0.2336  1.1275
11645TIP3   OH256349   1.184   3.371  12.456  0.1851 -0.0634  0.2638
11645TIP3    H156350   1.133   3.452  12.451 -1.2827 -0.9883 -0.5504
11645TIP3    H256351   1.275   3.400  12.452 -0.3161  1.5131 -0.7323
11646TIP3   OH256352   6.132   4.240   5.553 -0.4434 -0.1126 -0.8778
11646TIP3    H156353   6.099   4.161   5.596  0.7640 -0.4837 -0.5978
11646TIP3    H256354   6.165   4.209   5.468  0.3322  0.0241 -0.6316
11647TIP3   OH256355   1.518   6.590  12.971  0.4986  0.0331  0.2423
11647TIP3    H156356   1.608   6.586  13.004  1.0729  0.0396 -1.2121
11647TIP3    H256357   1.491   6.498  12.966  1.4389 -0.1954 -1.7998
11648TIP3   OH256358   3.123   2.532   3.267  0.0754  0.2576  0.1210
11648TIP3    H156359   3.139   2.507   3.176 -0.5891 -1.6604  0.4850
11648TIP3    H256360   3.061   2.604   3.262 -0.2621 -0.0943 -0.9524
11649TIP3   OH256361   4.400   0.794   2.765  0.8289  0.2152  0.1325
11649TIP3    H156362   4.318   0.749   2.782 -1.4868  4.0037  0.1335
11649TIP3    H256363   4.380   0.856   2.694  2.3083  4.1425  2.7633
11650TIP3   OH256364   3.213   3.205   3.053  0.9570  0.7991 -0.3604
11650TIP3    H156365   3.249   3.148   2.985  1.9539  0.5668  0.3309
11650TIP3    H256366   3.289   3.249   3.090  0.3009  1.8380 -0.2131
11651TIP3   OH256367   1.980   6.327  11.244  0.2293  0.0359  0.0518
11651TIP3    H156368   2.032   6.355  11.169  0.2686  1.8875  0.7310
11651TIP3    H256369   1.949   6.408  11.283  1.0193 -0.8228  2.6303
11652TIP3   OH256370   2.637   0.052  15.937 -0.4680 -0.3833 -0.1017
11652TIP3    H156371   2.706   0.114  15.914 -2.2317  0.9951 -2.0881
11652TIP3    H256372   2.624   0.064  16.031  1.4706 -0.1788  0.1698
11653TIP3   OH256373   1.084   2.528   1.627 -0.3067 -0.0165  0.0209
11653TIP3    H156374   1.109   2.499   1.715 -0.4045 -1.0122 -0.2627
11653TIP3    H256375   1.056   2.618   1.638 -1.1203 -0.3889  1.1728
11654TIP3   OH256376   4.917   3.789  10.735 -0.2932 -0.0638 -0.1636
11654TIP3    H156377   4.861   3.713  10.750 -1.4485  0.5394 -1.2230
11654TIP3    H256378   4.963   3.802  10.818 -0.9903 -1.1556  0.4213
11655TIP3   OH256379   3.777   1.231  12.652 -0.1243 -0.7263  0.4924
11655TIP3    H156380   3.692   1.257  12.616  0.2501 -0.2737 -0.0880
11655TIP3    H256381   3.841   1.265  12.589  0.5717  0.2987  1.6876
11656TIP3   OH256382   3.865   2.802   2.173  0.5924  0.2325  0.2388
11656TIP3    H156383   3.956   2.827   2.155  0.5797  0.4913  0.5307
11656TIP3    H256384   3.864   2.775   2.265  0.8300 -1.9103 -0.3396
11657TIP3   OH256385   3.394   5.305   5.984 -0.9697  0.6877 -0.4550
11657TIP3    H156386   3.404   5.397   6.007  1.4195  0.3627 -0.0036
11657TIP3    H256387   3.338   5.269   6.053 -1.7871  1.7466 -0.5483
11658TIP3   OH256388   4.995   5.404  11.457 -0.2508 -0.7191 -0.7354
11658TIP3    H156389   4.905   5.437  11.456  0.0321  0.1035 -0.1970
11658TIP3    H256390   5.000   5.346  11.381 -1.5343 -1.6159 -0.1729
11659TIP3   OH256391   3.994   1.289  13.513  0.3544  0.0126 -0.3418
11659TIP3    H156392   3.960   1.226  13.576  1.7322 -1.5538 -1.1080
11659TIP3    H256393   4.069   1.329  13.557  1.5399 -1.3397 -1.0455
11660TIP3   OH256394   4.180   3.010   2.693  0.2162  0.2477  0.2328
11660TIP3    H156395   4.166   3.074   2.623  0.9763 -0.1105 -0.2556
11660TIP3    H256396   4.271   2.983   2.683 -0.1143 -0.9818  0.3699
11661TIP3   OH256397   0.896   1.925   2.193  0.1549 -0.1068  0.0499
11661TIP3    H156398   0.832   1.946   2.126  0.2350  0.9050  0.2748
11661TIP3    H256399   0.855   1.854   2.243  0.0367 -0.7693 -0.9571
11662TIP3   OH256400   4.146   1.388   1.522  0.4580  0.4095 -0.0311
11662TIP3    H156401   4.229   1.398   1.568 -0.2543 -0.9786  1.6802
11662TIP3    H256402   4.105   1.312   1.564 -0.2495 -0.9883 -3.0026
11663TIP3   OH256403   3.992   4.291  14.663 -0.4085 -0.4082  0.0443
11663TIP3    H156404   4.010   4.345  14.740 -1.1702 -2.2116  1.5891
11663TIP3    H256405   3.980   4.203  14.699 -0.2377 -1.4275 -2.2301
11664TIP3   OH256406   3.986   0.238   2.976 -0.4371  0.3164  0.0646
11664TIP3    H156407   3.952   0.292   3.048  0.1884  0.3139  0.3691
11664TIP3    H256408   3.933   0.263   2.900 -0.3577  1.1472  0.2709
11665TIP3   OH256409   5.662   2.572  12.611  0.3764 -1.0626 -0.2129
11665TIP3    H156410   5.607   2.548  12.686 -0.2960  0.6164 -0.1182
11665TIP3    H256411   5.748   2.589  12.649  0.5043 -1.9196 -0.0942
11666TIP3   OH256412   3.159   4.597   4.983  0.0441  1.1444  0.4495
11666TIP3    H156413   3.103   4.645   5.045 -1.7027  1.5068 -1.2984
11666TIP3    H256414   3.099   4.538   4.937  1.8264 -1.3757  1.1780
11667TIP3   OH256415   6.140   4.515  15.615 -0.1144 -0.1235  0.1418
11667TIP3    H156416   6.062   4.477  15.574  0.6038 -1.1357 -0.3571
11667TIP3    H256417   6.135   4.488  15.706 -0.0527 -0.7112 -0.0230
11668TIP3   OH256418   5.256   4.418   3.294  0.0382  0.4473  0.3933
11668TIP3    H156419   5.250   4.501   3.247  0.4630  0.6807  0.7342
11668TIP3    H256420   5.172   4.409   3.338 -0.0988  0.5778  0.1591
11669TIP3   OH256421   1.294   1.810  13.459  0.1351 -0.2350  0.5245
11669TIP3    H156422   1.224   1.782  13.400 -0.0829 -0.6510  0.9760
11669TIP3    H256423   1.354   1.860  13.403 -1.3019  1.4720  0.4236
11670TIP3   OH256424   3.361   6.433  14.443  0.1807  0.1204 -0.2527
11670TIP3    H156425   3.403   6.378  14.376  0.1960  0.1859 -0.2966
11670TIP3    H256426   3.345   6.516  14.398  0.6404  0.3281 -0.0243
11671TIP3   OH256427   1.860   2.041   5.525 -0.0808 -0.1326 -0.3066
11671TIP3    H156428   1.878   2.001   5.610 -2.1235  2.2961  1.4289
11671TIP3    H256429   1.845   2.134   5.545 -0.3771  0.5890 -3.3751
11672TIP3   OH256430   5.730   0.337   0.456 -0.8076 -0.0739  0.0076
11672TIP3    H156431   5.756   0.246   0.472 -1.9947 -0.1151  2.0832
11672TIP3    H256432   5.636   0.339   0.473 -0.5690  1.8056  1.5620
11673TIP3   OH256433   3.394   1.940   0.173 -0.2527  0.1750 -0.3023
11673TIP3    H156434   3.442   1.893   0.241 -1.3240 -0.7099 -0.1246
11673TIP3    H256435   3.376   1.874   0.106 -0.2208  0.7591 -0.8998
11674TIP3   OH256436   3.572   3.714   4.736 -0.1175 -0.1330  0.1311
11674TIP3    H156437   3.644   3.680   4.682  0.6392  2.2631 -0.4715
11674TIP3    H256438   3.607   3.716   4.825 -0.2355 -1.0028  0.2112
11675TIP3   OH256439   0.881   0.742  13.154  0.1429  0.2179 -0.2330
11675TIP3    H156440   0.974   0.755  13.177  0.4293  0.5500 -1.5291
11675TIP3    H256441   0.835   0.755  13.237  0.8249  4.7296 -0.3072
11676TIP3   OH256442   3.025   3.374  12.332 -0.5923 -0.1157  0.0292
11676TIP3    H156443   3.067   3.291  12.354  0.7870 -0.0115 -1.9866
11676TIP3    H256444   3.093   3.440  12.345 -1.2825  0.5476  0.3560
11677TIP3   OH256445   4.697   2.137  14.566  0.1403  0.6694  0.4831
11677TIP3    H156446   4.630   2.071  14.546 -0.1725  1.3228 -0.7836
11677TIP3    H256447   4.762   2.127  14.496  1.2669  0.1998  1.5721
11678TIP3   OH256448   6.399   5.360   5.285  0.2199  0.6241  0.3967
11678TIP3    H156449   6.360   5.437   5.244 -1.6473 -0.4388  0.0462
11678TIP3    H256450   6.417   5.301   5.212  0.2124  0.1163  0.8044
11679TIP3   OH256451   5.443   0.467  15.118 -0.1317 -0.1692  0.3178
11679TIP3    H156452   5.348   0.472  15.124 -0.3810 -0.8128 -2.0516
11679TIP3    H256453   5.460   0.434  15.029  2.3182  0.5902  0.4281
11680TIP3   OH256454   0.478   4.610  12.474 -0.3791  0.0323 -0.5764
11680TIP3    H156455   0.492   4.559  12.394  1.7699 -2.1803  1.0627
11680TIP3    H256456   0.417   4.556  12.526 -0.3600  0.5570  0.0037
11681TIP3   OH256457   6.638   2.314   2.300 -0.3654  0.0240 -0.8382
11681TIP3    H156458   6.600   2.262   2.371 -1.5197  0.5666 -1.0200
11681TIP3    H256459   6.607   2.403   2.317  3.0761  1.1010  0.5304
11682TIP3   OH256460   4.807   3.390  12.790  0.3134 -0.3984 -0.1780
11682TIP3    H156461   4.779   3.462  12.847  0.3241  0.6287 -1.4184
11682TIP3    H256462   4.896   3.369  12.819  1.1516  1.5579 -1.1191
11683TIP3   OH256463   3.389   6.459   1.151 -0.1859 -0.6573 -0.2831
11683TIP3    H156464   3.336   6.380   1.145 -0.2999 -0.5115 -1.4561
11683TIP3    H256465   3.479   6.428   1.149 -0.2279 -0.8279  0.4228
11684TIP3   OH256466   0.705   0.279  12.670 -0.2765  0.1125 -0.3456
11684TIP3    H156467   0.760   0.257  12.745 -0.7083 -0.8296 -0.2946
11684TIP3    H256468   0.760   0.262  12.594 -0.5418 -0.9872 -0.2990
11685TIP3   OH256469   3.604   0.283   5.701  0.1378 -0.6386  0.1354
11685TIP3    H156470   3.529   0.228   5.723  0.7276 -1.2381  0.6810
11685TIP3    H256471   3.626   0.259   5.611 -1.0153  0.3569 -0.4429
11686TIP3   OH256472   3.320   5.304   4.401 -0.2458  0.2047  0.2065
11686TIP3    H156473   3.390   5.286   4.337 -0.7204 -2.7099  0.3780
11686TIP3    H256474   3.359   5.284   4.486 -0.6261  0.8070  0.5315
11687TIP3   OH256475   5.701   4.916   2.977 -1.1482  0.1114  0.5708
11687TIP3    H156476   5.674   4.841   3.030 -0.3732 -0.7179 -0.1882
11687TIP3    H256477   5.727   4.982   3.042 -1.3352 -0.4493  1.2345
11688TIP3   OH256478   6.219   4.288  13.919  0.2735 -0.4073  0.1587
11688TIP3    H156479   6.242   4.263  13.829 -0.6646 -1.6107  0.2309
11688TIP3    H256480   6.225   4.384  13.919 -0.4242 -0.3285 -1.4131
11689TIP3   OH256481   5.518   6.103   2.630 -0.3339  0.1172  0.3039
11689TIP3    H156482   5.561   6.180   2.592  0.8251 -0.9221 -0.5913
11689TIP3    H256483   5.487   6.133   2.715  0.4146  1.4778  0.1362
11690TIP3   OH256484   0.023   5.985  14.771 -0.4668 -0.1522  0.3661
11690TIP3    H156485   0.017   6.047  14.699  0.6229 -1.2144 -0.6982
11690TIP3    H256486   0.068   6.033  14.841 -1.0973  0.7431  0.1650
11691TIP3   OH256487   5.074   6.040  15.572 -0.2325  0.5091 -0.1369
11691TIP3    H156488   5.060   6.080  15.486  1.1773  0.5381 -0.3751
11691TIP3    H256489   5.000   5.981  15.584 -0.5940  0.7245 -1.2367
11692TIP3   OH256490   2.164   1.467  13.032  0.0517 -0.2915 -0.4587
11692TIP3    H156491   2.102   1.446  13.101 -0.2489 -0.0846 -0.6637
11692TIP3    H256492   2.244   1.421  13.056  0.7851  1.7609  1.3521
11693TIP3   OH256493   4.664   1.598   4.052  0.4152  0.2513 -0.0553
11693TIP3    H156494   4.684   1.507   4.075  0.3683  0.6238  1.6493
11693TIP3    H256495   4.750   1.637   4.036  0.4656  0.0128 -0.3847
11694TIP3   OH256496   2.253   2.876  15.834 -0.0447 -0.4032  0.0920
11694TIP3    H156497   2.284   2.953  15.786  0.5055  0.2562  1.4490
11694TIP3    H256498   2.326   2.814  15.831  0.6607  0.3187  1.4974
11695TIP3   OH256499   5.724   3.131  12.852 -0.3444 -0.0543 -0.8452
11695TIP3    H156500   5.811   3.171  12.848 -0.2369 -0.0028  1.2604
11695TIP3    H256501   5.710   3.097  12.763  0.8628  1.8684 -1.8363
11696TIP3   OH256502   1.857   2.721   1.741 -0.2787  0.3450 -0.2566
11696TIP3    H156503   1.800   2.771   1.682 -0.3135  0.5545 -0.0471
11696TIP3    H256504   1.943   2.727   1.701 -0.1012  1.3667  0.2536
11697TIP3   OH256505   2.043   1.503   3.855  0.1974 -0.5788  0.1259
11697TIP3    H156506   2.081   1.555   3.784  0.2309 -0.9867 -0.1548
11697TIP3    H256507   2.033   1.415   3.818 -1.0599 -0.4771  0.1748
11698TIP3   OH256508   2.393   5.386  11.769  0.6949  0.6246 -0.1119
11698TIP3    H156509   2.372   5.418  11.681  0.9272  0.6012 -0.1766
11698TIP3    H256510   2.464   5.443  11.798  1.1204  0.1649 -0.2306
11699TIP3   OH256511   1.074   2.581   3.512  0.0563  0.2564 -0.2454
11699TIP3    H156512   1.158   2.537   3.526  0.0460  0.0769 -0.7343
11699TIP3    H256513   1.097   2.666   3.476  0.0821  0.7106  0.8213
11700TIP3   OH256514   1.850   4.082   5.989 -0.1289  0.7399 -0.4772
11700TIP3    H156515   1.936   4.067   5.951  0.3208 -0.5398  0.9189
11700TIP3    H256516   1.865   4.081   6.084 -1.7580 -0.1992 -0.1812
11701TIP3   OH256517   5.947   2.323   4.174  0.8022 -0.2346  0.0542
11701TIP3    H156518   6.010   2.272   4.225  2.0597  0.4330 -0.7598
11701TIP3    H256519   5.890   2.363   4.239  1.1101 -0.9956  0.8122
11702TIP3   OH256520   3.560   0.452   4.737 -0.2679  0.0613  0.0126
11702TIP3    H156521   3.478   0.404   4.745 -0.7763  0.9448  0.2580
11702TIP3    H256522   3.590   0.435   4.648 -0.7262 -0.2558 -0.0826
11703TIP3   OH256523   6.155   0.230   1.329 -0.0555  0.0038  0.5409
11703TIP3    H156524   6.215   0.239   1.254 -1.6621 -0.5567 -0.8860
11703TIP3    H256525   6.076   0.191   1.291 -2.3283  3.0275  1.7984
11704TIP3   OH256526   3.906   3.348   6.032 -0.0145 -0.3433  0.5557
11704TIP3    H156527   3.984   3.294   6.045  0.8556  0.9516  0.8608
11704TIP3    H256528   3.884   3.379   6.120 -0.6699 -0.4304  0.4235
11705TIP3   OH256529   5.348   2.548   3.075 -0.3032  0.0343  0.9792
11705TIP3    H156530   5.344   2.614   3.144 -0.9112  0.4241  0.5817
11705TIP3    H256531   5.385   2.594   3.000  2.0751 -0.8387  1.5239
11706TIP3   OH256532   1.931   2.683  16.062 -0.1714  0.1551  0.0442
11706TIP3    H156533   2.001   2.747  16.047 -1.0546  1.2401  0.3695
11706TIP3    H256534   1.946   2.651  16.151  0.4369 -0.2945 -0.2197
11707TIP3   OH256535   1.058   3.830   1.223 -0.6579  0.0482  0.1535
11707TIP3    H156536   1.056   3.925   1.222 -0.1287  0.0671  0.6513
11707TIP3    H256537   0.970   3.804   1.194 -0.6413  0.6762 -0.5015
11708TIP3   OH256538   2.314   0.424  15.556 -0.4523  0.3315  0.4950
11708TIP3    H156539   2.385   0.458  15.502 -0.8745  0.5523  0.0731
11708TIP3    H256540   2.249   0.494  15.556 -1.3128 -0.4533 -0.3350
11709TIP3   OH256541   1.981   2.276  11.656  0.2410 -0.3215 -0.5405
11709TIP3    H156542   1.935   2.270  11.740  1.8915 -0.9900  0.3825
11709TIP3    H256543   1.925   2.331  11.602 -0.1136  1.5590  1.5616
11710TIP3   OH256544   2.017   5.424  16.298 -0.1337 -0.0349  0.1942
11710TIP3    H156545   2.053   5.372  16.226  0.3387 -0.2188  0.5536
11710TIP3    H256546   2.061   5.389  16.376 -0.5708  0.2219  0.5583
11711TIP3   OH256547   4.034   5.867   2.592 -0.0102  0.3637  0.3734
11711TIP3    H156548   4.053   5.893   2.502 -0.7121  0.4379  0.2362
11711TIP3    H256549   3.981   5.788   2.584  0.3612  0.0700  0.7393
11712TIP3   OH256550   0.857   5.360   3.785  0.1775  0.1836 -0.1496
11712TIP3    H156551   0.764   5.383   3.787  0.2267  0.7552 -1.9459
11712TIP3    H256552   0.859   5.265   3.796 -0.6062  0.2019  0.1644
11713TIP3   OH256553   3.844   3.889  13.220  0.0905 -0.0529 -0.6493
11713TIP3    H156554   3.846   3.969  13.273  0.7839 -0.0444 -0.6828
11713TIP3    H256555   3.774   3.836  13.259  0.0988  0.2715 -0.1897
11714TIP3   OH256556   4.264   3.366   1.607  0.0703 -0.0122 -0.5298
11714TIP3    H156557   4.191   3.388   1.665 -1.8664 -0.9930 -2.4257
11714TIP3    H256558   4.289   3.449   1.567  0.3116  0.3982  0.4348
11715TIP3   OH256559   4.581   3.539  17.069  0.6228 -0.0269 -0.2629
11715TIP3    H156560   4.587   3.539  16.974 -0.7928 -1.6916 -0.3954
11715TIP3    H256561   4.667   3.570  17.098  1.5704 -0.7932 -2.0641
11716TIP3   OH256562   2.636   3.987   3.054  0.1526 -0.2489 -0.6043
11716TIP3    H156563   2.696   3.971   2.981 -0.2442 -0.2998 -0.9236
11716TIP3    H256564   2.556   4.019   3.012  0.5268  1.4597 -0.0713
11717TIP3   OH256565   6.329   1.451  12.667  0.4956 -0.2020 -0.2535
11717TIP3    H156566   6.266   1.437  12.597 -1.1784  0.3065  1.0776
11717TIP3    H256567   6.304   1.389  12.736  1.5748 -0.1321  0.2308
11718TIP3   OH256568   0.419   5.105   6.630  0.0832  0.2524 -0.3546
11718TIP3    H156569   0.390   5.096   6.540  1.0747  1.6219 -0.8352
11718TIP3    H256570   0.344   5.079   6.683 -1.8216  2.9403 -1.5376
11719TIP3   OH256571   6.233   3.835  12.683 -0.1172  0.0792  0.1926
11719TIP3    H156572   6.298   3.783  12.729 -0.3426 -0.0617  0.3548
11719TIP3    H256573   6.282   3.908  12.646  0.2368 -0.3470 -0.1998
11720TIP3   OH256574   4.398   5.213  11.508  0.5881 -0.2535  0.4784
11720TIP3    H156575   4.388   5.151  11.581  0.3132 -1.2937 -0.4111
11720TIP3    H256576   4.467   5.175  11.454  0.0255 -0.0882 -0.3754
11721TIP3   OH256577   5.503   0.499   2.927 -0.0748  0.1017  0.1127
11721TIP3    H156578   5.517   0.425   2.868 -1.3777 -1.0563  1.2031
11721TIP3    H256579   5.427   0.545   2.891  0.8417  1.0762 -0.6690
11722TIP3   OH256580   1.658   1.718  14.490  0.0340  0.1150  0.1841
11722TIP3    H156581   1.614   1.778  14.549 -0.5957  0.3862 -0.5522
11722TIP3    H256582   1.709   1.774  14.432 -0.3225 -0.0814 -0.3187
11723TIP3   OH256583   3.484   4.887  12.030  0.3268 -0.0375 -0.0066
11723TIP3    H156584   3.402   4.874  12.077  0.4076  1.4974  0.6150
11723TIP3    H256585   3.551   4.890  12.099  0.8379 -0.6755 -0.4603
11724TIP3   OH256586   0.120   2.181   3.641 -0.2712  0.5788 -0.1242
11724TIP3    H156587   0.105   2.248   3.575 -2.3549 -1.1172 -1.5080
11724TIP3    H256588   0.035   2.138   3.651  0.7467 -1.2296  1.3926
11725TIP3   OH256589   6.724   3.944  16.397  0.0787 -0.3913  1.1015
11725TIP3    H156590   6.820   3.944  16.392  0.0528  0.4005 -0.0269
11725TIP3    H256591   6.698   3.864  16.352  0.1817  0.5596 -0.7361
11726TIP3   OH256592   0.905   4.471   1.785 -0.2969 -0.2627 -0.2350
11726TIP3    H156593   0.893   4.564   1.807  0.1252 -0.4743  0.9193
11726TIP3    H256594   0.875   4.465   1.694  0.4447  1.1613 -0.6014
11727TIP3   OH256595   1.053   1.614   4.644 -0.4439  0.4313  0.2021
11727TIP3    H156596   1.047   1.682   4.578 -2.2027  0.8310  0.7170
11727TIP3    H256597   1.056   1.661   4.727 -1.1199 -0.0856  0.5348
11728TIP3   OH256598   0.340   1.265   4.132  0.5063  0.2649 -0.2221
11728TIP3    H156599   0.425   1.260   4.177  0.6974  0.1615 -0.5928
11728TIP3    H256600   0.279   1.294   4.200  0.5708 -0.9833  0.4050
11729TIP3   OH256601   1.839   5.369  15.337  0.2619  0.3360 -0.2816
11729TIP3    H156602   1.906   5.410  15.392 -0.5690  1.6838 -0.2323
11729TIP3    H256603   1.781   5.325  15.399  0.1386  0.6293 -0.1863
11730TIP3   OH256604   5.348   6.352  13.650  0.1115 -0.0318 -0.6111
11730TIP3    H156605   5.416   6.418  13.632  1.0148 -1.4202 -2.5869
11730TIP3    H256606   5.395   6.269  13.648 -1.1734 -0.8363  0.9419
11731TIP3   OH256607   3.389   5.905   6.198  0.3388  0.0542  0.3408
11731TIP3    H156608   3.338   5.879   6.274  0.5889 -0.9965  0.1597
11731TIP3    H256609   3.423   5.823   6.162  0.5947  0.5737 -0.6417
11732TIP3   OH256610   1.187   2.187  17.317  0.9278  0.1368 -0.9277
11732TIP3    H156611   1.239   2.123  17.268  1.8804  0.0639  0.1420
11732TIP3    H256612   1.251   2.248  17.354  0.4016 -0.6353  1.4274
11733TIP3   OH256613   0.075   3.597  13.604 -0.3521 -0.1086  0.4032
11733TIP3    H156614   0.005   3.655  13.576  0.4149  0.5595 -0.1942
11733TIP3    H256615   0.118   3.569  13.523 -1.5528 -2.6758  0.5603
11734TIP3   OH256616   2.352   0.622  11.189  0.8570  0.2586  0.6047
11734TIP3    H156617   2.394   0.538  11.210  2.3013  0.1608 -2.2173
11734TIP3    H256618   2.303   0.604  11.109  0.6949  1.9643  0.2906
11735TIP3   OH256619   4.174   2.291  15.453  0.0559 -0.0114 -0.2299
11735TIP3    H156620   4.254   2.295  15.505 -0.6779  0.5815  0.8831
11735TIP3    H256621   4.203   2.305  15.363  1.3047 -0.6924  0.0482
11736TIP3   OH256622   6.650   0.579  15.853  0.2173  0.4308 -0.8003
11736TIP3    H156623   6.695   0.642  15.909 -0.9045 -0.1364  0.8226
11736TIP3    H256624   6.713   0.509  15.840  1.8891  2.2770 -3.5467
11737TIP3   OH256625   6.214   3.675   3.901  0.1948 -0.3722 -0.1269
11737TIP3    H156626   6.182   3.719   3.979 -1.1708 -0.4111 -0.6289
11737TIP3    H256627   6.134   3.641   3.859  0.9332 -0.6626 -1.3359
11738TIP3   OH256628   2.732   1.885   3.266 -0.0248 -0.1901  0.1094
11738TIP3    H156629   2.761   1.906   3.355 -0.1045 -0.3139  0.1634
11738TIP3    H256630   2.707   1.970   3.229  0.7055 -0.0318 -0.0462
11739TIP3   OH256631   5.723   5.380   4.484  0.6771 -0.2613 -0.2091
11739TIP3    H156632   5.692   5.314   4.546 -1.1997  1.4016  0.7525
11739TIP3    H256633   5.799   5.419   4.527 -0.6354  0.9053  1.1457
11740TIP3   OH256634   6.605   2.938  16.051  0.3267 -0.0530  0.4032
11740TIP3    H156635   6.662   2.973  16.119 -1.5754 -1.2479  2.7539
11740TIP3    H256636   6.658   2.869  16.010  0.7910 -0.8979  2.2849
11741TIP3   OH256637   6.472   5.997  14.122 -0.2970 -0.3544  0.1374
11741TIP3    H156638   6.475   5.911  14.165 -0.9138 -0.2403  0.4294
11741TIP3    H256639   6.538   6.049  14.167  0.3695 -0.7970 -0.3179
11742TIP3   OH256640   3.132   1.594   2.749 -0.5363  0.7182 -0.4469
11742TIP3    H156641   3.218   1.635   2.764 -0.2536 -0.6742  2.3251
11742TIP3    H256642   3.149   1.500   2.753 -1.9810  0.3910 -1.3774
11743TIP3   OH256643   4.391   1.976   1.800 -0.4600  0.3559 -0.3005
11743TIP3    H156644   4.396   1.907   1.865  0.7823  1.5885  0.9924
11743TIP3    H256645   4.436   1.940   1.723 -0.4370 -0.5051  0.1061
11744TIP3   OH256646   3.914   1.749  17.041  0.2493  0.5513  0.7245
11744TIP3    H156647   4.001   1.767  17.004  0.9074 -2.2690  0.6589
11744TIP3    H256648   3.897   1.658  17.018 -3.0324  1.1935  0.2487
11745TIP3   OH256649   2.785   1.701   5.219 -0.6376  0.4122  0.1306
11745TIP3    H156650   2.749   1.715   5.306  1.6087 -0.0356  1.2213
11745TIP3    H256651   2.878   1.726   5.228 -0.0664 -0.8313 -1.7963
11746TIP3   OH256652   3.651   4.853  15.824  0.4586  0.1508  0.1548
11746TIP3    H156653   3.669   4.920  15.758 -0.4966 -0.1764 -0.4650
11746TIP3    H256654   3.736   4.831  15.860  1.0046  0.3554 -0.9717
11747TIP3   OH256655   5.825   5.054   3.860 -0.1240  0.2102  0.0619
11747TIP3    H156656   5.857   5.028   3.946  1.8176 -1.7845 -1.1288
11747TIP3    H256657   5.730   5.053   3.868  0.0068  0.8244  2.3334
11748TIP3   OH256658   5.477   4.169   6.245  0.3011  0.1620  0.8104
11748TIP3    H156659   5.400   4.193   6.296  1.4457  1.9524  1.7880
11748TIP3    H256660   5.502   4.250   6.200 -0.1997 -1.1338 -2.0727
11749TIP3   OH256661   1.598   5.001  12.879  0.1833  0.2399  0.0984
11749TIP3    H156662   1.509   4.981  12.909  0.6271  0.5216  1.6892
11749TIP3    H256663   1.588   5.020  12.785 -1.0948 -1.8958 -0.2771
11750TIP3   OH256664   5.161   3.526   1.960  0.5849 -0.5784  0.0415
11750TIP3    H156665   5.229   3.493   2.019  1.7902  0.2091 -0.8579
11750TIP3    H256666   5.103   3.576   2.017  0.5551 -1.5425  0.8833
11751TIP3   OH256667   3.157   4.426   5.777 -0.0097 -0.1614  0.2220
11751TIP3    H156668   3.101   4.421   5.854 -2.2955 -0.8254 -1.3726
11751TIP3    H256669   3.244   4.401   5.809 -1.1948 -2.0058  2.2690
11752TIP3   OH256670   5.451   4.100  14.641 -0.2335 -0.0122 -0.6688
11752TIP3    H156671   5.522   4.137  14.588 -0.5850  0.0016 -1.1306
11752TIP3    H256672   5.437   4.165  14.710 -0.8621  0.7450 -1.4880
11753TIP3   OH256673   4.792   3.194  16.796 -0.5157 -0.2407  0.3083
11753TIP3    H156674   4.795   3.274  16.849 -1.5354 -0.6001  0.9428
11753TIP3    H256675   4.805   3.224  16.706 -1.9392  0.7948  0.4161
11754TIP3   OH256676   2.456   4.753  15.369  0.0574 -0.2956  0.2978
11754TIP3    H156677   2.369   4.785  15.392  0.2788  0.4440  0.1205
11754TIP3    H256678   2.496   4.731  15.453 -0.6395 -1.5599  0.3201
11755TIP3   OH256679   0.872   1.411   4.698  0.1943 -0.6270  0.2048
11755TIP3    H156680   0.943   1.473   4.680 -0.5844  0.3039  0.2879
11755TIP3    H256681   0.792   1.462   4.689 -0.4050 -1.1551  2.0483
11756TIP3   OH256682   1.887   4.179   3.136  0.0944  0.0171 -0.0540
11756TIP3    H156683   1.975   4.168   3.172  0.5285  0.1900 -1.0010
11756TIP3    H256684   1.885   4.121   3.060 -0.9857 -0.7705  0.5560
11757TIP3   OH256685   4.222   5.053  13.989  0.0724 -0.3760 -0.4655
11757TIP3    H156686   4.283   5.023  13.922  1.8422 -0.2632  1.0175
11757TIP3    H256687   4.242   5.146  13.998 -0.2582 -0.3598  0.0998
11758TIP3   OH256688   4.327   4.116   3.758 -0.0630 -0.1174 -0.1484
11758TIP3    H156689   4.270   4.048   3.722  0.1761 -0.2887 -0.2095
11758TIP3    H256690   4.286   4.198   3.732 -1.7779 -0.1800  2.0888
11759TIP3   OH256691   5.313   5.416   3.501  0.0373  0.0837 -0.5042
11759TIP3    H156692   5.270   5.409   3.587  0.1726 -0.2835 -0.4664
11759TIP3    H256693   5.361   5.499   3.505 -0.1576  0.1898 -0.3164
11760TIP3   OH256694   4.323   4.781   5.946 -0.3740  0.0682  0.5514
11760TIP3    H156695   4.308   4.798   6.039  0.3284  0.5213  0.5944
11760TIP3    H256696   4.375   4.701   5.944 -0.5533 -0.0484  0.5378
11761TIP3   OH256697   4.096   5.661   2.267 -0.1506 -0.2193 -0.2249
11761TIP3    H156698   4.006   5.645   2.296 -1.0123  0.7109 -2.2029
11761TIP3    H256699   4.097   5.753   2.241  0.9993 -0.5492 -1.4410
11762TIP3   OH256700   5.849   0.893  13.579  0.4123 -0.4251  0.0949
11762TIP3    H156701   5.861   0.801  13.552 -1.0410 -0.6132 -0.0158
11762TIP3    H256702   5.798   0.932  13.508 -1.2477 -0.2446  1.3152
11763TIP3   OH256703   6.376   2.292  12.392 -0.3713  0.0145 -0.4426
11763TIP3    H156704   6.318   2.236  12.340 -1.8255  1.4750 -0.4636
11763TIP3    H256705   6.463   2.254  12.380 -1.2456 -2.0329 -0.7082
11764TIP3   OH256706   3.828   3.078  11.777  0.0223 -0.1370  0.3521
11764TIP3    H156707   3.823   3.001  11.721 -1.3588 -0.0801  0.3636
11764TIP3    H256708   3.744   3.081  11.822  1.1307 -0.3049  2.6048
11765TIP3   OH256709   6.228   6.726  15.134  0.1903 -0.2818  0.5831
11765TIP3    H156710   6.187   6.643  15.160  1.7727 -1.3955 -0.2329
11765TIP3    H256711   6.305   6.732  15.190 -0.8669  1.6343  1.9194
11766TIP3   OH256712   6.575   3.182  11.405  0.4787  0.0240  0.3647
11766TIP3    H156713   6.639   3.252  11.419 -0.3343  0.8677 -0.0385
11766TIP3    H256714   6.495   3.227  11.379  0.1174 -1.0934 -0.5500
11767TIP3   OH256715   2.334   6.007   0.580 -0.1654 -0.1044 -0.0353
11767TIP3    H156716   2.310   5.951   0.507 -0.3229 -0.5182  0.3323
11767TIP3    H256717   2.410   6.056   0.549 -0.3153 -0.1760 -0.5211
11768TIP3   OH256718   0.984   1.886   5.525  0.5304 -0.2230 -0.0898
11768TIP3    H156719   0.950   1.799   5.544 -1.8746  0.6086 -0.2314
11768TIP3    H256720   0.944   1.910   5.442  0.9773  1.1002  0.0531
11769TIP3   OH256721   6.576   5.107   0.231  0.0701  0.9212 -0.3015
11769TIP3    H156722   6.485   5.114   0.262  0.1084  0.7088 -0.1389
11769TIP3    H256723   6.571   5.048   0.156  0.4713 -1.5165  1.4765
11770TIP3   OH256724   1.267   1.594  14.856  0.5601 -0.1269  0.4494
11770TIP3    H156725   1.285   1.615  14.947 -0.8029  1.3099  0.4354
11770TIP3    H256726   1.279   1.499  14.850 -0.3170 -0.4067  2.3618
11771TIP3   OH256727   4.299   6.684   1.407  0.0569  0.0337  0.0913
11771TIP3    H156728   4.359   6.627   1.359 -0.2991  2.2222 -3.2363
11771TIP3    H256729   4.348   6.765   1.420 -1.5294  1.2638 -1.1923
11772TIP3   OH256730   0.004   5.015   1.031 -0.2624  0.1022  0.4935
11772TIP3    H156731  -0.069   5.050   1.081 -0.3390 -0.5209  0.8321
11772TIP3    H256732  -0.026   5.018   0.940 -1.2661 -1.3900  0.7353
11773TIP3   OH256733   6.719   2.748  15.859  0.3119 -0.4388 -0.2453
11773TIP3    H156734   6.711   2.812  15.788 -1.8169  0.1608  0.4769
11773TIP3    H256735   6.727   2.664  15.814  0.4537  0.0645 -1.1924
11774TIP3   OH256736   1.192   4.293   5.474  0.2964 -0.1391 -0.2121
11774TIP3    H156737   1.158   4.234   5.542 -1.5832  0.7508 -0.3163
11774TIP3    H256738   1.171   4.249   5.392 -1.0275  0.5751 -0.2873
11775TIP3   OH256739   2.199   5.955  12.549 -0.2437 -0.2186  0.1369
11775TIP3    H156740   2.240   6.022  12.493  0.9089 -1.4140 -0.4938
11775TIP3    H256741   2.148   5.901  12.488 -2.8105  1.1922  0.8984
11776TIP3   OH256742   4.831   6.023   0.076  0.0785 -0.0078  0.0879
11776TIP3    H156743   4.744   6.054   0.099  0.2633  0.1283  0.6209
11776TIP3    H256744   4.885   6.103   0.074 -0.4573  0.4265 -3.5308
11777TIP3   OH256745   5.303   4.698  12.864  0.2909 -0.7344  0.7985
11777TIP3    H156746   5.352   4.710  12.783 -0.0964  1.6884  0.8249
11777TIP3    H256747   5.253   4.618  12.851  0.2340 -0.4016 -1.3747
11778TIP3   OH256748   3.213   3.834   0.094 -0.1819 -0.2138 -0.1375
11778TIP3    H156749   3.279   3.805   0.157 -1.2094 -0.1796  1.0028
11778TIP3    H256750   3.173   3.911   0.134 -2.1197 -1.2608  0.0888
11779TIP3   OH256751   5.361   5.878  12.936 -0.3889  0.1528 -0.3149
11779TIP3    H156752   5.307   5.941  12.889 -0.0917  0.0913 -0.7448
11779TIP3    H256753   5.314   5.862  13.018 -1.5461 -0.6686 -1.1141
11780TIP3   OH256754   2.053   2.970   3.120 -0.5047 -0.2254 -0.4645
11780TIP3    H156755   2.056   3.044   3.059 -1.8396 -0.0197 -0.2952
11780TIP3    H256756   1.971   2.981   3.168 -1.2998 -2.4277 -1.2109
11781TIP3   OH256757   3.379   0.172  13.379  0.1239  0.1295  0.8488
11781TIP3    H156758   3.335   0.089  13.399  1.0068 -0.3403  0.8542
11781TIP3    H256759   3.329   0.208  13.305  0.4073 -0.9504  0.1067
11782TIP3   OH256760   3.786   3.978  12.923 -0.2220  0.1452  0.0529
11782TIP3    H156761   3.744   3.983  13.009 -1.5959  1.1094 -0.6410
11782TIP3    H256762   3.872   3.939  12.941 -1.0095 -0.9788  1.6587
11783TIP3   OH256763   5.500   4.890   3.256 -0.1304 -0.2935  0.2008
11783TIP3    H156764   5.538   4.858   3.337  0.7855 -0.2183 -0.1843
11783TIP3    H256765   5.544   4.839   3.187 -0.7779 -0.2515 -0.2497
11784TIP3   OH256766   4.208   5.566  14.620  0.0412 -0.0214 -0.1645
11784TIP3    H156767   4.301   5.550  14.635  0.7150  1.2058 -2.4940
11784TIP3    H256768   4.179   5.613  14.698  1.1735 -0.9724  0.8817
11785TIP3   OH256769   4.169   0.879  15.512 -0.2130 -0.1519 -0.2307
11785TIP3    H156770   4.264   0.876  15.516 -0.2317 -0.2713  0.1365
11785TIP3    H256771   4.150   0.914  15.425  0.1630 -0.2913 -0.3718
11786TIP3   OH256772   1.616   5.535   1.050  0.1805 -0.3421  0.6168
11786TIP3    H156773   1.548   5.476   1.015 -0.3598  0.3630  0.4596
11786TIP3    H256774   1.604   5.532   1.145 -1.0383  0.8991  0.5239
11787TIP3   OH256775   0.196   0.966   5.696 -0.4635  0.0595 -0.4057
11787TIP3    H156776   0.221   1.058   5.690 -0.1653 -0.0252 -0.4839
11787TIP3    H256777   0.233   0.936   5.779  1.3598 -0.5598 -1.3932
11788TIP3   OH256778   6.133   0.143  14.688  0.3484 -0.7566  0.0397
11788TIP3    H156779   6.116   0.148  14.782  0.4607 -0.0248  0.0276
11788TIP3    H256780   6.217   0.097  14.681  1.1317  0.5520  0.3965
11789TIP3   OH256781   3.079   2.851   5.387 -0.4465 -0.1090  0.2136
11789TIP3    H156782   3.140   2.920   5.360 -0.3466 -0.2372  0.1092
11789TIP3    H256783   3.024   2.835   5.310 -1.5645  1.0052  0.7444
11790TIP3   OH256784   4.137   3.859  15.111 -0.0527 -0.4037  0.2334
11790TIP3    H156785   4.043   3.858  15.129 -0.3016  1.6967 -0.6779
11790TIP3    H256786   4.143   3.832  15.019  0.2113 -0.3543  0.2366
11791TIP3   OH256787   5.426   2.629  14.902 -0.5599 -0.4399  0.3278
11791TIP3    H156788   5.338   2.665  14.891 -1.5381 -2.4436  1.0513
11791TIP3    H256789   5.484   2.697  14.868 -2.5222 -0.2993 -3.2868
11792TIP3   OH256790   4.895   2.353   3.059 -0.1997  0.4989 -0.1688
11792TIP3    H156791   4.966   2.385   3.115  0.8065  0.8629 -1.5844
11792TIP3    H256792   4.939   2.295   2.997 -1.2599  0.2260 -0.6852
11793TIP3   OH256793   0.894   5.575  12.481  0.4427  0.1801 -0.3233
11793TIP3    H156794   0.804   5.555  12.505  0.1761 -0.1320 -1.5269
11793TIP3    H256795   0.898   5.670  12.477  0.1111  0.1894 -0.4572
11794TIP3   OH256796   2.453   0.265  12.438 -0.1217  0.4143 -0.2803
11794TIP3    H156797   2.438   0.187  12.491 -0.0022  0.3722 -0.3079
11794TIP3    H256798   2.387   0.260  12.369 -1.6789  1.5479  1.0395
11795TIP3   OH256799   1.648   6.035   1.914  0.1114 -0.4151  0.1907
11795TIP3    H156800   1.674   6.109   1.860 -0.6566  0.3795  0.8821
11795TIP3    H256801   1.560   6.013   1.885  0.2892 -0.9859  0.0722
11796TIP3   OH256802   5.335   0.238   0.069  0.2468 -0.8106 -0.4597
11796TIP3    H156803   5.310   0.289   0.145  0.2949 -3.1052  1.2167
11796TIP3    H256804   5.284   0.275  -0.003  1.2439  2.3378  0.3049
11797TIP3   OH256805   2.877   0.397  14.122 -0.6300 -0.0150  0.3617
11797TIP3    H156806   2.961   0.411  14.079  0.7319 -3.5701  1.5194
11797TIP3    H256807   2.813   0.435  14.062  1.5918  0.5085 -1.8366
11798TIP3   OH256808   6.309   5.463   0.534  0.5800  0.1289 -0.0571
11798TIP3    H156809   6.228   5.464   0.483  1.4087 -0.8083 -1.4515
11798TIP3    H256810   6.348   5.549   0.518 -0.2963  0.7464  0.9529
11799TIP3   OH256811   3.164   2.836  15.291 -0.2374 -0.3209  0.2339
11799TIP3    H156812   3.201   2.924  15.283 -0.1196 -0.1245  2.4582
11799TIP3    H256813   3.240   2.778  15.291 -0.2729 -0.3806 -0.4264
11800TIP3   OH256814   3.998   3.527  15.054  0.4687  0.2048  0.1822
11800TIP3    H156815   3.936   3.546  14.984 -0.1742 -1.0113  0.4010
11800TIP3    H256816   3.947   3.533  15.135  1.0733  1.0145  0.5302
11801TIP3   OH256817   5.703   5.918  11.186  0.3248  0.8301 -0.1141
11801TIP3    H156818   5.741   5.902  11.100  0.6390 -1.0602  0.3223
11801TIP3    H256819   5.735   5.846  11.240 -1.5961  0.7412  1.0248
11802TIP3   OH256820   2.610   4.828  14.725  0.1649 -0.1433  0.6878
11802TIP3    H156821   2.638   4.859  14.639  0.4934  1.0760  1.2161
11802TIP3    H256822   2.613   4.906  14.781  0.7457 -1.0785  1.9997
11803TIP3   OH256823   1.542   1.345  14.586  0.2677  0.8875  0.6649
11803TIP3    H156824   1.575   1.345  14.676  2.3963  1.1461 -0.0705
11803TIP3    H256825   1.447   1.353  14.596  0.5628  3.0326  2.8452
11804TIP3   OH256826   4.069   1.290  12.596 -0.0892 -0.1255  0.0124
11804TIP3    H156827   4.085   1.213  12.542  1.4132 -0.3535  0.7363
11804TIP3    H256828   4.105   1.267  12.682  1.9684  1.9631 -0.1945
11805TIP3   OH256829   3.679   0.695  16.619  0.1692  0.5414  0.0051
11805TIP3    H156830   3.693   0.617  16.565  2.0122  0.2385  0.8708
11805TIP3    H256831   3.694   0.666  16.709 -0.2466  1.6499  0.4523
11806TIP3   OH256832   0.031   3.610   2.543  0.0194  0.1622  0.1787
11806TIP3    H156833   0.021   3.686   2.601 -1.6901 -0.1883  0.3934
11806TIP3    H256834  -0.036   3.623   2.476  0.2192 -0.7746 -0.2095
11807TIP3   OH256835   3.399   3.776   4.324  0.0492  0.2493  0.3401
11807TIP3    H156836   3.462   3.733   4.267  0.9050  0.4440  1.1157
11807TIP3    H256837   3.314   3.752   4.287  0.5623  1.2988 -1.6735
11808TIP3   OH256838   0.454   1.142   1.723 -0.0404 -0.6477 -0.2546
11808TIP3    H156839   0.501   1.185   1.652 -1.6674  1.8637  0.0655
11808TIP3    H256840   0.421   1.061   1.684  0.3330 -0.0353 -1.9320
11809TIP3   OH256841   1.179   2.796   1.859 -0.0816 -0.1882 -0.2894
11809TIP3    H156842   1.268   2.779   1.827  0.1366 -0.5246  0.4898
11809TIP3    H256843   1.142   2.710   1.875 -0.5859 -0.0502 -0.6896
11810TIP3   OH256844   1.587   1.801  14.112 -0.1685  0.8157  0.2401
11810TIP3    H156845   1.673   1.798  14.152  0.2719  0.6543 -0.6855
11810TIP3    H256846   1.596   1.750  14.031 -0.4487  2.8810 -1.1576
11811TIP3   OH256847   3.089   4.211   2.491 -0.2605  0.1995  0.3621
11811TIP3    H156848   3.022   4.156   2.451 -0.5793  1.6589 -1.1987
11811TIP3    H256849   3.073   4.299   2.457 -0.5224  1.5932  3.6973
11812TIP3   OH256850   3.751   2.281   0.679 -0.7007 -0.3676  0.5085
11812TIP3    H156851   3.759   2.308   0.587 -1.8230 -1.1953  0.1388
11812TIP3    H256852   3.798   2.198   0.684 -0.0553  0.0155  0.8522
11813TIP3   OH256853   5.732   2.522  15.853  0.3177  0.3307  0.8029
11813TIP3    H156854   5.704   2.436  15.884 -2.7545  1.1775  0.6718
11813TIP3    H256855   5.732   2.577  15.931 -1.6734  1.0916  0.3157
11814TIP3   OH256856   1.739   2.455   3.866  0.6230  0.2580  0.2711
11814TIP3    H156857   1.746   2.504   3.784  0.6389  1.1766  0.8041
11814TIP3    H256858   1.728   2.364   3.839 -0.5552  0.6837 -0.7747
11815TIP3   OH256859   3.406   0.949  12.563 -0.2499  0.1785 -0.6907
11815TIP3    H156860   3.420   1.032  12.518  0.6711 -0.0237 -0.7954
11815TIP3    H256861   3.363   0.893  12.498 -3.3488  1.3548  0.1655
11816TIP3   OH256862   2.940   5.088   1.279  0.3599 -0.5049  0.8304
11816TIP3    H156863   2.967   5.029   1.209 -1.8236  0.3699 -0.8696
11816TIP3    H256864   2.905   5.031   1.347  0.5335 -1.2833  0.2815
11817TIP3   OH256865   3.236   6.704   2.013 -0.2134  0.0205 -0.6232
11817TIP3    H156866   3.198   6.707   2.101  0.3449 -0.3967 -0.3659
11817TIP3    H256867   3.237   6.611   1.991  1.3735 -0.0659 -0.3075
11818TIP3   OH256868   0.265   6.668  10.735 -0.0565  0.3334 -0.4324
11818TIP3    H156869   0.192   6.727  10.751  0.2085 -0.1116  3.2331
11818TIP3    H256870   0.324   6.718  10.678 -2.0573  1.5918 -1.5393
11819TIP3   OH256871   6.481   4.796  11.961 -0.4882  0.1939  0.3474
11819TIP3    H156872   6.438   4.764  11.882  3.0867 -0.1987 -1.6957
11819TIP3    H256873   6.523   4.878  11.934  0.6444  0.1704  1.8864
11820TIP3   OH256874   2.359   0.944  16.769 -0.2176  0.5703 -0.2616
11820TIP3    H156875   2.443   0.985  16.749 -0.4441  2.2198  1.8470
11820TIP3    H256876   2.381   0.862  16.812  0.2722  0.3052 -0.9967
11821TIP3   OH256877   5.005   0.618  15.597 -0.3078  0.3538  0.1079
11821TIP3    H156878   5.067   0.549  15.572  0.2529  0.6853  0.5526
11821TIP3    H256879   5.007   0.619  15.692 -2.4967 -0.9546  0.2286
11822TIP3   OH256880   3.733   2.126  14.707 -0.0044 -0.1719 -0.2180
11822TIP3    H156881   3.698   2.165  14.787  1.0079 -1.1319  0.7326
11822TIP3    H256882   3.731   2.032  14.724  0.9642 -0.3452 -1.0004
11823TIP3   OH256883   1.537   4.275  14.010  0.3183 -0.1566 -0.0407
11823TIP3    H156884   1.612   4.322  13.975  0.7028 -0.8613 -0.1677
11823TIP3    H256885   1.572   4.223  14.082 -0.6074  2.0383  2.1631
11824TIP3   OH256886   3.765   5.642  13.524  0.7948 -0.0566 -0.0796
11824TIP3    H156887   3.712   5.626  13.602  0.4195  0.3429 -0.2513
11824TIP3    H256888   3.831   5.705  13.553  0.1336  0.7470 -0.2986
11825TIP3   OH256889   6.114   0.447  12.032  0.3649 -0.2840  0.5113
11825TIP3    H156890   6.169   0.399  11.970  0.5843  1.2334 -0.5196
11825TIP3    H256891   6.175   0.505  12.078 -0.2648  0.9678 -0.1963
11826TIP3   OH256892   0.255   2.919  12.239  0.2257  0.5809 -0.1542
11826TIP3    H156893   0.166   2.894  12.212  1.3434 -3.0909 -1.0279
11826TIP3    H256894   0.280   2.988  12.177 -1.9520  1.7462  0.1521
11827TIP3   OH256895   6.117   5.067   0.546 -0.1996  0.0503  0.5818
11827TIP3    H156896   6.102   4.973   0.539 -1.1048  0.2300 -0.0176
11827TIP3    H256897   6.032   5.107   0.527  0.4741  1.0345 -0.5583
11828TIP3   OH256898   0.032   1.007   0.931 -0.2624 -0.0493 -0.3635
11828TIP3    H156899  -0.051   1.024   0.887 -0.5771  1.0853  0.6147
11828TIP3    H256900   0.048   1.085   0.984  0.4729 -1.0496  0.9604
11829TIP3   OH256901   3.013   5.593  14.465 -0.0111  0.0287 -0.0075
11829TIP3    H156902   2.919   5.584  14.456  0.1582 -1.3824 -0.6053
11829TIP3    H256903   3.037   5.663  14.404 -0.6709  0.4907  0.2492
11830TIP3   OH256904   1.276   1.424  17.002 -0.0636 -0.2490  0.0659
11830TIP3    H156905   1.198   1.445  16.950 -0.8181 -1.0684  0.8218
11830TIP3    H256906   1.350   1.447  16.946 -0.8420 -0.9519 -1.2952
11831TIP3   OH256907   0.941   2.919   1.966 -0.2007 -0.0715  0.2270
11831TIP3    H156908   1.003   2.960   2.026 -0.3273  0.0252  0.2936
11831TIP3    H256909   0.983   2.837   1.940 -0.6877 -0.7322  1.4466
11832TIP3   OH256910   2.932   0.859  11.854 -0.3242 -0.0031  0.0060
11832TIP3    H156911   2.882   0.778  11.843 -1.7690  0.7564  0.6984
11832TIP3    H256912   2.944   0.893  11.766 -0.8410 -0.3087 -0.1824
11833TIP3   OH256913   3.424   2.941   3.056  0.6018  0.0904 -0.4741
11833TIP3    H156914   3.516   2.929   3.079  0.3701 -0.0271  0.3879
11833TIP3    H256915   3.394   3.010   3.114  0.5079  1.1484 -1.7244
11834TIP3   OH256916   0.517   2.836   2.334 -0.1919 -0.2540 -0.1867
11834TIP3    H156917   0.532   2.810   2.425 -0.5749 -0.7776 -0.2680
11834TIP3    H256918   0.472   2.761   2.295 -2.3228  0.9136 -0.1506
11835TIP3   OH256919   3.477   6.318  13.486 -0.0409  0.3977  0.1461
11835TIP3    H156920   3.404   6.332  13.426 -1.6936 -1.8624  1.4594
11835TIP3    H256921   3.489   6.402  13.529 -0.3249  1.4312 -1.6700
11836TIP3   OH256922   1.157   1.947  13.656  0.3756 -0.1205 -0.0440
11836TIP3    H156923   1.218   1.928  13.585  1.7597  0.1772  1.0232
11836TIP3    H256924   1.115   1.863  13.674  2.2711 -0.9449  0.8198
11837TIP3   OH256925   0.556   5.489   5.655 -0.1805 -0.4151  0.4743
11837TIP3    H156926   0.620   5.427   5.689  1.3623  1.1273  0.5271
11837TIP3    H256927   0.530   5.541   5.731 -0.8990 -0.4985  0.2950
11838TIP3   OH256928   1.889   6.355  17.233  0.6721  0.6146 -0.0938
11838TIP3    H156929   1.913   6.448  17.230 -0.9304  1.1048  0.9513
11838TIP3    H256930   1.973   6.309  17.242  1.5274  1.9117 -0.9810
11839TIP3   OH256931   5.467   6.246   4.538 -0.1424  0.2377 -0.1533
11839TIP3    H156932   5.518   6.313   4.492  3.4535  0.3222  3.4437
11839TIP3    H256933   5.418   6.294   4.604 -2.2603 -0.2245 -1.3200
11840TIP3   OH256934   1.785   0.627  11.476 -0.0896  0.3444 -0.3104
11840TIP3    H156935   1.785   0.720  11.455 -0.4759  0.5866  0.7001
11840TIP3    H256936   1.778   0.583  11.391 -0.3950  1.2436 -0.7630
11841TIP3   OH256937   0.383   3.788  14.221  0.7259  0.3891 -0.3648
11841TIP3    H156938   0.403   3.713  14.166 -0.4046  0.8854 -1.5184
11841TIP3    H256939   0.298   3.767  14.260  0.6484  0.8423 -0.2816
11842TIP3   OH256940   2.586   6.030  15.711 -0.6289  1.1529  0.3220
11842TIP3    H156941   2.505   6.006  15.756 -0.9645  3.3202  1.0068
11842TIP3    H256942   2.655   6.013  15.775 -0.7154  0.7987  0.3205
11843TIP3   OH256943   4.694   0.661  15.744 -0.1338  0.0516  0.4953
11843TIP3    H156944   4.669   0.687  15.833 -1.3623 -1.0257  0.4904
11843TIP3    H256945   4.746   0.582  15.755 -0.1782 -0.0114  0.2611
11844TIP3   OH256946   1.507   3.703  16.075  0.3626  0.2173  0.0264
11844TIP3    H156947   1.440   3.770  16.061 -0.3428 -0.9064 -2.5632
11844TIP3    H256948   1.476   3.654  16.152 -0.3563  1.3800  0.4976
11845TIP3   OH256949   3.155   4.531  13.386  0.3485 -0.3012  0.4242
11845TIP3    H156950   3.112   4.556  13.468  0.9177 -1.3003  1.0428
11845TIP3    H256951   3.198   4.448  13.405  1.6470  0.1240 -0.4877
11846TIP3   OH256952   1.953   0.454  12.896  0.2483  0.2107  0.1487
11846TIP3    H156953   1.982   0.446  12.805  1.8151 -0.7089  0.6745
11846TIP3    H256954   2.011   0.395  12.944  0.0257  1.3191  1.8646
11847TIP3   OH256955   2.841   6.126   0.270 -0.0457 -0.4610  0.0152
11847TIP3    H156956   2.816   6.125   0.363 -1.8608 -0.9254 -0.4398
11847TIP3    H256957   2.882   6.211   0.257 -0.2691 -0.1720  1.1283
11848TIP3   OH256958   4.496   5.442  13.418 -0.3405  0.4381 -0.1811
11848TIP3    H156959   4.475   5.392  13.339 -0.3686  0.2800 -0.0730
11848TIP3    H256960   4.563   5.390  13.462  0.0377  0.7747 -0.3559
11849TIP3   OH256961   2.135   2.892   0.567 -0.5885 -0.6549 -0.3159
11849TIP3    H156962   2.169   2.805   0.589 -2.6446 -1.8669 -1.5055
11849TIP3    H256963   2.062   2.905   0.628  1.0764  1.3276  1.3784
11850TIP3   OH256964   2.371   1.673   0.888  0.1343  0.1971 -0.5092
11850TIP3    H156965   2.319   1.597   0.915 -0.3097  0.6344 -0.1369
11850TIP3    H256966   2.314   1.748   0.901  1.4021  0.8753  1.5197
11851TIP3   OH256967   6.019   1.558  11.354 -0.1661 -0.0424  0.3600
11851TIP3    H156968   6.019   1.641  11.306  0.2397 -0.3976 -0.2466
11851TIP3    H256969   6.064   1.496  11.297 -1.1319 -0.8768  0.4786
11852TIP3   OH256970   6.632   6.243  15.969 -0.1051 -0.4024 -0.1487
11852TIP3    H156971   6.562   6.223  15.906  0.7755  0.3424 -1.4176
11852TIP3    H256972   6.675   6.159  15.984 -0.1497 -0.5492 -0.7931
11853TIP3   OH256973   2.157   5.343   0.163 -0.6712  0.2286  0.1652
11853TIP3    H156974   2.119   5.371   0.246  0.3453 -1.3009  1.1929
11853TIP3    H256975   2.082   5.333   0.104 -1.3679  1.6492  0.7797
11854TIP3   OH256976   4.023   0.744   0.414 -0.2479 -0.5722 -0.2943
11854TIP3    H156977   4.050   0.818   0.468  0.0445 -1.2331  0.5025
11854TIP3    H256978   3.940   0.771   0.375  0.8159  0.9379 -1.6333
11855TIP3   OH256979   4.072   0.479  16.742  0.0423  0.2061  0.0849
11855TIP3    H156980   4.041   0.564  16.773 -0.1181  0.2419 -0.1700
11855TIP3    H256981   4.068   0.422  16.819  1.3757  0.7491  0.5854
11856TIP3   OH256982   2.443   4.746   2.652  0.5841  0.4445 -0.2194
11856TIP3    H156983   2.406   4.759   2.564  0.4814  0.3640 -0.1879
11856TIP3    H256984   2.377   4.695   2.699 -0.2286  2.1042  0.5119
11857TIP3   OH256985   5.096   0.035   1.751 -0.6206  0.1766 -0.1559
11857TIP3    H156986   5.056   0.048   1.665 -1.6654 -1.6959 -0.0219
11857TIP3    H256987   5.071  -0.055   1.775 -0.7385  0.7937  2.2877
11858TIP3   OH256988   4.238   6.365   4.380 -0.1010  0.1986  0.1223
11858TIP3    H156989   4.245   6.335   4.289 -0.3692  2.1129 -0.5891
11858TIP3    H256990   4.306   6.318   4.427  0.5720 -0.2306 -1.2471
11859TIP3   OH256991   2.198   6.150   1.513 -0.2648  0.7309  0.0601
11859TIP3    H156992   2.291   6.148   1.492 -0.5999  2.2442 -1.8701
11859TIP3    H256993   2.185   6.234   1.558 -0.9074  1.3674 -1.2205
11860TIP3   OH256994   6.150   5.386  11.152 -0.4148 -0.9056  0.0805
11860TIP3    H156995   6.125   5.333  11.229 -0.3186 -1.8433 -0.5188
11860TIP3    H256996   6.193   5.324  11.093  0.4537  0.0282 -0.2921
11861TIP3   OH256997   1.189   2.458   5.634  0.4968  0.2279 -0.0473
11861TIP3    H156998   1.182   2.510   5.554 -1.9920  1.3714  0.7950
11861TIP3    H256999   1.202   2.368   5.603 -1.2298  0.5075 -1.8333
11862TIP3   OH257000   5.880   2.228  16.450 -0.2847  0.6482 -0.3968
11862TIP3    H157001   5.810   2.292  16.437  1.5755  2.3673 -3.2723
11862TIP3    H257002   5.844   2.145  16.422 -0.6523  1.9127 -4.2930
11863TIP3   OH257003   3.459   1.755  15.864  0.7109  0.0692 -0.0669
11863TIP3    H157004   3.375   1.798  15.843  1.4549  1.2076 -0.8408
11863TIP3    H257005   3.479   1.783  15.953  1.2478  1.4653 -0.6079
11864TIP3   OH257006   6.623   5.508   0.660  0.3507  0.0279 -0.0090
11864TIP3    H157007   6.642   5.596   0.628 -0.7871  0.8723  1.5172
11864TIP3    H257008   6.644   5.451   0.587  1.6554  1.5097 -0.8435
11865TIP3   OH257009   1.972   4.394   3.936  0.6790  0.1455 -0.8684
11865TIP3    H157010   2.067   4.387   3.927  1.1401 -0.8383  2.9556
11865TIP3    H257011   1.941   4.303   3.930  0.5466 -0.0260  1.3179
11866TIP3   OH257012   1.526   3.751   3.071  0.2928  0.1428 -0.6827
11866TIP3    H157013   1.506   3.841   3.096 -1.0572 -0.3721  0.2012
11866TIP3    H257014   1.617   3.738   3.098 -0.2666  0.4730  1.5363
11867TIP3   OH257015   5.113   2.603   1.980 -0.0697 -0.0195 -0.2682
11867TIP3    H157016   5.086   2.513   1.961  0.3310 -0.0100 -0.8891
11867TIP3    H257017   5.053   2.657   1.928 -0.9467  0.1151  0.8516
11868TIP3   OH257018   1.203   4.757   5.026 -0.3436  0.2974  0.5641
11868TIP3    H157019   1.204   4.748   4.931 -0.0402  0.4391  0.5530
11868TIP3    H257020   1.162   4.842   5.042 -2.9597 -0.8887  0.6619
11869TIP3   OH257021   5.709   0.642  13.289 -0.5359  0.0159 -0.3500
11869TIP3    H157022   5.642   0.704  13.318  1.2703  1.9135  0.0121
11869TIP3    H257023   5.746   0.682  13.210  1.3939 -0.0000  0.4762
11870TIP3   OH257024   1.742   4.284   1.956 -0.3335 -0.4211  0.1399
11870TIP3    H157025   1.810   4.349   1.974 -2.0163  1.3380  0.5324
11870TIP3    H257026   1.775   4.203   1.994  1.4195  0.4340  0.5252
11871TIP3   OH257027   0.173   4.549  14.061 -0.1567  0.2235  0.2682
11871TIP3    H157028   0.161   4.459  14.031  3.3537 -0.4644  0.4629
11871TIP3    H257029   0.204   4.541  14.151  3.1195  1.3069 -0.6143
11872TIP3   OH257030   6.082   4.013  16.436 -0.6182 -0.0215 -0.6505
11872TIP3    H157031   6.168   3.976  16.456 -0.4756  0.0137 -1.1741
11872TIP3    H257032   6.100   4.103  16.408 -0.8275 -0.0011 -0.7267
11873TIP3   OH257033   4.013   0.479  13.933 -0.2006  0.6250  0.1678
11873TIP3    H157034   3.941   0.538  13.909 -0.2809  0.8601  0.9603
11873TIP3    H257035   4.014   0.413  13.864  0.1162  1.7503 -0.9376
11874TIP3   OH257036   5.204   6.752  15.874  0.3128  0.8525 -0.3049
11874TIP3    H157037   5.294   6.732  15.850  0.2788  0.3395 -0.0261
11874TIP3    H257038   5.151   6.690  15.823  0.2352 -0.1711  0.9883
11875TIP3   OH257039   2.597   2.632  12.718  0.0480 -0.2350 -0.0442
11875TIP3    H157040   2.685   2.651  12.749  0.6571 -1.4494 -0.9518
11875TIP3    H257041   2.547   2.612  12.797  0.4854  0.7645  0.5070
11876TIP3   OH257042   2.938   2.784  14.558 -0.0360  0.4824  0.5688
11876TIP3    H157043   2.903   2.742  14.636 -0.5257  1.3709  0.8379
11876TIP3    H257044   2.941   2.877  14.580  0.4848  0.6593 -0.2203
11877TIP3   OH257045   3.879   2.251   2.022  0.0806 -0.1362  0.3348
11877TIP3    H157046   3.839   2.335   2.041 -0.5250 -0.5443  0.9355
11877TIP3    H257047   3.865   2.238   1.928  1.0523  0.8641  0.0346
11878TIP3   OH257048   0.318   3.227  13.763 -0.0318  0.0495 -0.5431
11878TIP3    H157049   0.253   3.160  13.786  0.6777 -1.1459 -1.8379
11878TIP3    H257050   0.381   3.225  13.835  0.7457 -1.7356 -1.2201
11879TIP3   OH257051   6.176   0.499  14.347  0.6393 -0.0187  0.3502
11879TIP3    H157052   6.084   0.516  14.369  0.5562 -0.8399  0.6469
11879TIP3    H257053   6.225   0.530  14.423  0.7905  2.2421 -0.5792
11880TIP3   OH257054   2.928   1.586  17.364 -0.4542 -0.0831  0.8743
11880TIP3    H157055   2.838   1.555  17.375 -0.5566 -0.5765 -1.0123
11880TIP3    H257056   2.918   1.675  17.332 -0.3298 -0.4841 -0.3389
11881TIP3   OH257057   6.606   4.820  10.800  0.8335  0.5734  0.1155
11881TIP3    H157058   6.701   4.812  10.801  0.7471 -0.5831  1.3277
11881TIP3    H257059   6.585   4.844  10.710  2.2136  0.0991 -0.3546
11882TIP3   OH257060   6.708   1.933   3.088 -0.3762  0.3709  0.1087
11882TIP3    H157061   6.767   2.003   3.061 -0.7865  0.5706 -0.2885
11882TIP3    H257062   6.754   1.852   3.066 -0.4999  0.5273 -0.7400
11883TIP3   OH257063   1.042   5.995   2.031 -0.1338  0.6219  0.4619
11883TIP3    H157064   1.099   6.072   2.028 -1.1867  1.4308  0.9650
11883TIP3    H257065   0.998   6.000   2.115 -1.8643  0.6770 -0.4108
11884TIP3   OH257066   3.998   0.431  16.469  0.3250  0.3415 -0.7488
11884TIP3    H157067   4.015   0.509  16.416 -1.7355  1.2035 -0.2314
11884TIP3    H257068   4.054   0.442  16.546 -1.3396  2.3994  0.2852
11885TIP3   OH257069   6.196   2.902  17.348 -0.4652  0.1095  0.1110
11885TIP3    H157070   6.234   2.853  17.275  1.0561  1.4585 -0.0457
11885TIP3    H257071   6.247   2.875  17.425 -1.9860 -1.2212  0.7024
11886TIP3   OH257072   3.411   4.736  12.541 -0.3956  0.5856  0.1538
11886TIP3    H157073   3.397   4.685  12.462  1.2049  2.0046 -1.1292
11886TIP3    H257074   3.372   4.684  12.611 -0.9597 -1.1895 -1.4105
11887TIP3   OH257075   5.286   2.697  12.458 -0.2958  0.3275  0.2704
11887TIP3    H157076   5.236   2.649  12.524 -0.6022 -0.7419 -0.7138
11887TIP3    H257077   5.370   2.714  12.500 -0.9148  0.7901  1.3831
11888TIP3   OH257078   1.737   3.658   2.298 -0.1173  0.2013 -0.2356
11888TIP3    H157079   1.650   3.696   2.287 -0.1156  0.2884  0.0545
11888TIP3    H257080   1.739   3.584   2.237 -0.6946 -0.3256  0.3673
11889TIP3   OH257081   0.037   3.720  11.186 -0.0460  0.1603 -0.2113
11889TIP3    H157082  -0.045   3.765  11.169 -1.0330 -0.6999  1.8465
11889TIP3    H257083   0.095   3.789  11.220  0.3820  0.9032 -2.2847
11890TIP3   OH257084   2.681   2.555  11.948 -0.5685  0.1412 -0.2971
11890TIP3    H157085   2.602   2.512  11.980 -1.4858  1.8559 -0.1483
11890TIP3    H257086   2.736   2.484  11.916 -1.1259 -1.3129  1.8017
11891TIP3   OH257087   0.343   3.555   3.233 -0.4143 -0.0694 -0.3893
11891TIP3    H157088   0.412   3.496   3.203  1.5679  1.9107  0.0429
11891TIP3    H257089   0.319   3.605   3.155 -0.7978 -0.1850 -0.3488
11892TIP3   OH257090   6.159   2.648  14.274  0.7171  0.1221  0.8732
11892TIP3    H157091   6.074   2.692  14.273  0.9264  0.5291  0.8767
11892TIP3    H257092   6.144   2.566  14.227  0.1591 -0.1206  1.4583
11893TIP3   OH257093   4.055   4.154   5.757 -0.3976 -0.2970 -0.9682
11893TIP3    H157094   4.001   4.152   5.679  0.5075  0.9178 -1.6561
11893TIP3    H257095   4.063   4.247   5.779  0.9643 -0.4663 -0.5976
11894TIP3   OH257096   1.441   6.351   4.170 -0.3406  0.1223 -0.0722
11894TIP3    H157097   1.389   6.413   4.118  1.0226  1.0832 -0.3471
11894TIP3    H257098   1.477   6.404   4.241 -0.7375 -0.8035  0.8575
11895TIP3   OH257099   5.609   1.036  16.704  0.3760 -0.0631  0.0075
11895TIP3    H157100   5.667   1.004  16.636  0.6529  0.4609 -0.0024
11895TIP3    H257101   5.548   0.963  16.720 -1.2395  0.6297 -2.4808
11896TIP3   OH257102   0.204   3.215   0.690 -0.1358 -0.2240  0.4050
11896TIP3    H157103   0.286   3.204   0.641  0.4926 -1.2611  1.6236
11896TIP3    H257104   0.168   3.126   0.695 -0.7064  0.0331  0.9291
11897TIP3   OH257105   3.942   2.458   6.970 -0.0995  0.6051  0.0531
11897TIP3    H157106   3.916   2.369   6.944 -0.5177 -0.0047  2.3887
11897TIP3    H257107   3.860   2.503   6.990  0.0990  1.6123 -1.2540
11898TIP3   OH257108   3.677   5.144   4.613  0.4643 -0.0266  0.1447
11898TIP3    H157109   3.599   5.197   4.592  1.2431  1.6655  1.2760
11898TIP3    H257110   3.642   5.070   4.662 -0.3956  1.3231  1.6896
11899TIP3   OH257111   6.675   1.384   3.443 -0.3875  0.1144 -0.2063
11899TIP3    H157112   6.611   1.454   3.459 -0.0886  1.0953 -2.8983
11899TIP3    H257113   6.724   1.413   3.367  1.5700 -1.8394  0.2045
11900TIP3   OH257114   1.331   3.126   6.316  0.2750 -0.1852  0.1329
11900TIP3    H157115   1.397   3.069   6.275  0.1901 -1.1503  1.2833
11900TIP3    H257116   1.372   3.155   6.397 -0.5568 -0.4749  0.6674
11901TIP3   OH257117   6.705   5.016  15.045  0.1471  0.0874 -0.0676
11901TIP3    H157118   6.727   4.944  15.104  1.0194 -1.0120 -1.6451
11901TIP3    H257119   6.768   5.084  15.065  0.7966 -0.4949 -0.1044
11902TIP3   OH257120   0.611   2.687  15.022 -0.1571 -0.1031 -0.0616
11902TIP3    H157121   0.612   2.660  15.114 -0.3792  2.3301  0.7195
11902TIP3    H257122   0.703   2.703  15.000 -0.0174 -1.4214 -0.5475
11903TIP3   OH257123   0.073   1.374  14.541 -0.9265  0.3488  0.1778
11903TIP3    H157124   0.001   1.432  14.517  0.4078  1.4728 -1.3872
11903TIP3    H257125   0.134   1.379  14.467  1.1031  0.0314  1.7168
11904TIP3   OH257126   3.306   6.402  12.527  0.3184 -0.0593  0.3631
11904TIP3    H157127   3.324   6.313  12.556  0.7044 -0.4616 -1.0449
11904TIP3    H257128   3.392   6.441  12.514  0.1682  0.8257  1.7751
11905TIP3   OH257129   2.503   2.080   3.677  0.7663  0.0299 -0.0853
11905TIP3    H157130   2.501   2.098   3.771  0.1867  0.7986 -0.2313
11905TIP3    H257131   2.433   2.135   3.641  1.1707 -0.0408 -1.0034
11906TIP3   OH257132   0.242   0.506  11.121 -0.5184  0.1583  0.1115
11906TIP3    H157133   0.168   0.561  11.148 -0.8214  0.4203 -1.1937
11906TIP3    H257134   0.200   0.428  11.084 -0.0987 -0.7568  1.4704
11907TIP3   OH257135   1.566   4.090  13.408  0.2756 -0.0970 -0.3472
11907TIP3    H157136   1.568   4.090  13.503 -1.2995 -0.7490 -0.2815
11907TIP3    H257137   1.531   4.005  13.384  3.0358 -0.9979 -1.6455
11908TIP3   OH257138   1.414   5.985   1.785 -0.0953 -0.0991  0.2185
11908TIP3    H157139   1.385   5.895   1.799 -1.4912  0.4724  1.1321
11908TIP3    H257140   1.344   6.026   1.735 -0.1897  0.8873  1.1236
11909TIP3   OH257141   4.955   2.667  12.492 -0.7037  0.5767 -0.7833
11909TIP3    H157142   5.018   2.597  12.510 -0.1762  1.7901  3.1577
11909TIP3    H257143   4.875   2.640  12.536 -0.7029  2.0269  0.2112
11910TIP3   OH257144   4.433   0.859  16.664 -0.3999 -0.5458 -0.0423
11910TIP3    H157145   4.408   0.949  16.644  0.5399 -0.0263  0.9996
11910TIP3    H257146   4.408   0.847  16.756  0.9203 -0.8109  0.3074
11911TIP3   OH257147   0.078   3.687  12.866 -0.1125 -0.5663  0.8214
11911TIP3    H157148   0.083   3.779  12.839  0.7090 -1.4389 -2.5156
11911TIP3    H257149  -0.013   3.674  12.892 -0.6950  0.7979 -0.4007
11912TIP3   OH257150   0.182   5.991   0.526 -0.2410 -0.3070  0.5379
11912TIP3    H157151   0.088   5.998   0.506 -0.1765  1.3130  0.6862
11912TIP3    H257152   0.223   6.057   0.470  0.7184 -0.4443  1.0709
11913TIP3   OH257153   1.888   0.563   4.912 -0.0123  0.0750 -0.5010
11913TIP3    H157154   1.882   0.659   4.911 -2.3286  0.0057 -2.8305
11913TIP3    H257155   1.851   0.538   4.997 -1.5312  1.2042 -0.7851
11914TIP3   OH257156   4.756   2.053   3.724  0.4519  0.9593 -0.2274
11914TIP3    H157157   4.772   2.133   3.674  1.9141  1.0921  0.4142
11914TIP3    H257158   4.814   1.988   3.685 -1.1841 -0.0125 -1.1677
11915TIP3   OH257159   4.020   4.692   1.579  0.0636  0.2970 -0.5114
11915TIP3    H157160   3.952   4.659   1.520 -0.2632  2.0265 -1.1660
11915TIP3    H257161   4.092   4.630   1.570 -0.2232  0.1645 -2.2739
11916TIP3   OH257162   2.080   0.478   3.793  0.2874  0.6583 -0.6204
11916TIP3    H157163   2.025   0.498   3.869 -1.0369 -1.8272 -0.8194
11916TIP3    H257164   2.160   0.440   3.830 -1.3722 -2.9158 -0.3750
11917TIP3   OH257165   0.074   0.031  14.210  0.1266  0.0476  0.1011
11917TIP3    H157166  -0.006   0.025  14.157 -0.2101  0.2555  0.5760
11917TIP3    H257167   0.145   0.011  14.149 -0.4220 -2.1078  0.0806
11918TIP3   OH257168   0.403   0.057   1.222  0.1381  0.4112 -0.0905
11918TIP3    H157169   0.375   0.064   1.130 -0.7156 -1.4108  0.0002
11918TIP3    H257170   0.354   0.125   1.267 -2.6264 -1.3034 -0.3115
11919TIP3   OH257171   5.451   2.174   4.123 -0.6580 -0.2890 -0.3217
11919TIP3    H157172   5.509   2.188   4.197 -1.2461  0.2712  0.0454
11919TIP3    H257173   5.493   2.105   4.072  0.5962  0.4471 -0.3370
11920TIP3   OH257174   2.425   2.860  14.302  0.3413  0.6017  0.3839
11920TIP3    H157175   2.344   2.855  14.353  0.0657  0.2457 -0.0814
11920TIP3    H257176   2.406   2.810  14.223  1.6668 -1.1430  1.1221
11921TIP3   OH257177   1.011   1.591   2.532  0.0854  0.1658  0.1435
11921TIP3    H157178   0.980   1.506   2.501 -0.1686 -1.1100  3.4582
11921TIP3    H257179   1.104   1.578   2.548  0.5186  1.2250 -1.3141
11922TIP3   OH257180   6.369   2.860   0.210  0.3831  0.0673 -0.1496
11922TIP3    H157181   6.440   2.915   0.242  0.5687 -1.0431  1.5197
11922TIP3    H257182   6.413   2.785   0.169  0.2722 -1.0831  1.7024
11923TIP3   OH257183   2.860   0.828   5.812 -0.4701 -0.1859  0.8263
11923TIP3    H157184   2.932   0.774   5.843  0.3396  0.0501 -0.6127
11923TIP3    H257185   2.896   0.878   5.739 -2.5131 -1.3280 -1.0885
11924TIP3   OH257186   3.363   3.569   4.827  0.6618  0.3665  0.1248
11924TIP3    H157187   3.426   3.621   4.778 -0.6761  1.5254 -0.4234
11924TIP3    H257188   3.416   3.521   4.891  1.9698  2.1308  0.4284
11925TIP3   OH257189   2.770   4.045   0.506  0.0623 -0.4481 -0.1537
11925TIP3    H157190   2.757   4.105   0.432 -0.1630  0.1433  0.3654
11925TIP3    H257191   2.843   4.084   0.555  1.1214 -1.5590 -0.7978
11926TIP3   OH257192   0.698   0.066  14.552  0.5067  0.1790 -0.3450
11926TIP3    H157193   0.715  -0.009  14.608  0.7788  0.4346 -0.0891
11926TIP3    H257194   0.619   0.106  14.589  1.0935  0.7660  0.2915
11927TIP3   OH257195   5.155   1.015   5.667  0.5274 -0.0776 -0.3495
11927TIP3    H157196   5.182   0.923   5.658  1.4188  0.2656 -1.5124
11927TIP3    H257197   5.162   1.050   5.578 -0.9079  0.8335 -0.1323
11928TIP3   OH257198   4.210   4.529   6.735  0.3785  0.2038  0.1803
11928TIP3    H157199   4.265   4.569   6.668  1.1529  0.9679  1.2360
11928TIP3    H257200   4.125   4.573   6.727  0.6488  0.7057  0.0953
11929TIP3   OH257201   5.182   5.042  11.045 -0.5413 -0.0365  0.4134
11929TIP3    H157202   5.171   5.131  11.011 -1.3281 -0.4255 -0.3852
11929TIP3    H257203   5.098   5.022  11.086 -0.2809 -0.3288  0.8068
11930TIP3   OH257204   4.628   3.702   6.018  0.2775  0.3728  0.3538
11930TIP3    H157205   4.576   3.741   6.089 -1.2049  2.6101 -1.8048
11930TIP3    H257206   4.691   3.771   5.995 -0.9489  0.7525 -2.1248
11931TIP3   OH257207   0.744   1.555  11.721 -0.0363 -0.0765  0.8897
11931TIP3    H157208   0.774   1.577  11.633 -1.2640  0.3034  0.5417
11931TIP3    H257209   0.806   1.489  11.752  1.3541  0.9549  0.3806
11932TIP3   OH257210   6.571   2.037  11.469 -0.2073  0.8026 -0.5047
11932TIP3    H157211   6.641   2.098  11.444  0.4201 -0.1204 -1.0569
11932TIP3    H257212   6.527   2.080  11.542  0.4740  1.7341 -0.6246
11933TIP3   OH257213   1.026   4.713  14.406  0.3409  0.1113 -0.2961
11933TIP3    H157214   1.063   4.647  14.347 -1.2825 -0.2708 -0.9362
11933TIP3    H257215   1.081   4.790  14.393  2.1855 -1.0231  0.3411
11934TIP3   OH257216   5.535   2.297  15.404 -0.7985  0.3376 -0.5259
11934TIP3    H157217   5.549   2.384  15.444  1.5264 -0.0001 -0.4535
11934TIP3    H257218   5.466   2.258  15.457  0.9613  0.5950  2.1699
11935TIP3   OH257219   4.757   2.397  14.734 -0.3066 -0.0502  0.3404
11935TIP3    H157220   4.723   2.425  14.819 -1.2608 -1.0484  0.3060
11935TIP3    H257221   4.838   2.349  14.756 -0.7366 -0.6166  0.7303
11936TIP3   OH257222   1.806   4.242  12.474  0.2573  0.2052 -0.1747
11936TIP3    H157223   1.863   4.259  12.398  1.4888 -0.6968  0.5032
11936TIP3    H257224   1.721   4.223  12.436  0.2538  2.0378 -1.2128
11937TIP3   OH257225   4.131   2.360   1.924  0.3490  0.1030 -0.4475
11937TIP3    H157226   4.046   2.332   1.957 -0.2085 -0.3371 -2.1527
11937TIP3    H257227   4.123   2.455   1.914 -0.0816  0.0231 -0.9254
11938TIP3   OH257228   2.086   2.870  16.789  0.3386  0.8318  0.1762
11938TIP3    H157229   2.092   2.945  16.731  0.8987  1.8070  1.4430
11938TIP3    H257230   2.091   2.907  16.877  0.9064 -0.7058  0.8315
11939TIP3   OH257231   3.697   4.151   4.904 -0.3783  0.3801  0.5557
11939TIP3    H157232   3.703   4.240   4.869 -1.5975 -0.1336 -1.1222
11939TIP3    H257233   3.725   4.095   4.831  0.2092 -0.6246  1.5338
11940TIP3   OH257234   1.281   5.499  15.851  0.2761  0.1037 -0.1282
11940TIP3    H157235   1.288   5.532  15.761 -1.1848 -2.8798 -1.4743
11940TIP3    H257236   1.193   5.522  15.879  0.3819  0.1642  0.1638
11941TIP3   OH257237   4.089   5.684   3.074  0.0237 -0.0401 -0.1357
11941TIP3    H157238   4.104   5.776   3.094  1.5959  0.1876 -2.0927
11941TIP3    H257239   4.116   5.674   2.983 -2.4213 -1.9275 -0.7688
11942TIP3   OH257240   4.307   0.208  17.017  0.2342 -0.1627  0.3549
11942TIP3    H157241   4.325   0.169  17.102 -0.5862 -0.2625  0.4887
11942TIP3    H257242   4.227   0.165  16.987 -0.7289  1.4474  0.5366
11943TIP3   OH257243   2.413   3.177  14.486  0.1259  0.2710 -0.6922
11943TIP3    H157244   2.501   3.183  14.450  0.3694 -2.6920 -0.8287
11943TIP3    H257245   2.371   3.107  14.436 -0.2323 -2.6064  3.1404
11944TIP3   OH257246   1.787   3.945  11.446  0.7993 -0.2232  0.3608
11944TIP3    H157247   1.787   3.859  11.488  0.3765 -0.7949 -0.7744
11944TIP3    H257248   1.842   3.934  11.368  1.4051  0.7592  0.6322
11945TIP3   OH257249   3.187   4.355   6.063 -0.0164  0.6391 -0.2342
11945TIP3    H157250   3.138   4.415   6.119  2.3587  1.2745  1.3099
11945TIP3    H257251   3.216   4.286   6.122 -0.0675 -0.3656 -1.3563
11946TIP3   OH257252   4.414   2.229  15.948 -0.1790  0.3351  0.7834
11946TIP3    H157253   4.495   2.182  15.967 -0.3540 -0.2782  0.0506
11946TIP3    H257254   4.345   2.174  15.984 -0.3378  0.3342  0.4854
11947TIP3   OH257255   4.156   2.171  12.621  0.7277  0.2477 -0.1641
11947TIP3    H157256   4.119   2.132  12.542  0.0621 -0.3655  0.4322
11947TIP3    H257257   4.230   2.114  12.643  0.7444  0.2582 -0.1940
11948TIP3   OH257258   2.802   2.414  17.226  0.3282 -0.0125 -0.6923
11948TIP3    H157259   2.868   2.395  17.293 -1.5711 -0.0781  1.2791
11948TIP3    H257260   2.802   2.510  17.220  0.5043 -0.0052 -0.5928
11949TIP3   OH257261   2.736   5.301   2.696 -0.0600  0.0413  0.9784
11949TIP3    H157262   2.777   5.279   2.780 -0.0838  0.8087  1.1965
11949TIP3    H257263   2.764   5.390   2.678 -0.4014  0.0313  0.3730
11950TIP3   OH257264   1.846   3.742  12.973 -0.1430  0.2594  0.2600
11950TIP3    H157265   1.903   3.699  12.910 -1.6346 -0.1790 -0.8531
11950TIP3    H257266   1.900   3.811  13.011  0.9979  0.1237 -1.0422
11951TIP3   OH257267   5.895   0.298   1.471  0.5836 -0.5540  0.4459
11951TIP3    H157268   5.984   0.264   1.460  1.0657  0.5562  0.6987
11951TIP3    H257269   5.889   0.370   1.408  0.0463 -0.3014  0.7741
11952TIP3   OH257270   0.060   4.954   4.480 -0.7091 -0.2412 -0.5018
11952TIP3    H157271   0.047   4.985   4.570  0.3811 -1.0121 -0.0600
11952TIP3    H257272  -0.023   4.973   4.437 -1.9498 -1.5590  1.1721
11953TIP3   OH257273   1.930   3.564  12.387 -0.0106 -0.1101 -0.1474
11953TIP3    H157274   1.943   3.523  12.301 -0.0536  1.1269 -0.7648
11953TIP3    H257275   2.014   3.603  12.409  0.4724 -1.7340  1.1424
11954TIP3   OH257276   0.677   2.957   1.555 -0.0358  0.0090  0.4879
11954TIP3    H157277   0.583   2.958   1.573 -0.4481 -0.3314 -1.3562
11954TIP3    H257278   0.718   2.975   1.639 -1.7938  2.2921  0.9819
11955TIP3   OH257279   5.416   5.415  11.832  0.6281 -0.4831  0.0423
11955TIP3    H157280   5.512   5.418  11.838  0.5513  0.9577  1.1845
11955TIP3    H257281   5.398   5.416  11.738  1.7338  0.8194 -0.1851
11956TIP3   OH257282   0.084   4.257  16.665  0.0999  0.6713  0.6649
11956TIP3    H157283   0.076   4.257  16.760 -0.5535  3.0041  0.6715
11956TIP3    H257284   0.163   4.307  16.647  0.0478  0.5182 -0.0211
11957TIP3   OH257285   6.507   2.081   2.977 -0.0944  0.4104 -0.2192
11957TIP3    H157286   6.429   2.038   3.013 -0.6220  1.5995  0.0887
11957TIP3    H257287   6.580   2.026   3.006 -0.7592 -0.3593  0.0327
11958TIP3   OH257288   5.084   6.481  15.353  0.0979  0.3874 -0.5321
11958TIP3    H157289   5.063   6.563  15.306 -2.4073 -1.0110 -2.1323
11958TIP3    H257290   5.023   6.480  15.426  0.0658 -0.0727 -0.5662
11959TIP3   OH257291   6.743   1.490   3.805 -0.1024 -0.2372  0.3662
11959TIP3    H157292   6.812   1.528   3.751  0.5718 -1.4601  0.3261
11959TIP3    H257293   6.784   1.477   3.891  0.2630 -2.4114 -0.0765
11960TIP3   OH257294   4.910   6.536   6.978 -0.2532  0.5310  0.5587
11960TIP3    H157295   4.905   6.528   6.882  0.1469 -1.0510  0.6274
11960TIP3    H257296   4.998   6.505   6.999 -0.3066  0.9637  1.4369
11961TIP3   OH257297   4.469   1.697  16.963  0.0558  0.2254 -0.4140
11961TIP3    H157298   4.525   1.722  17.036 -1.8384  0.9200  0.8633
11961TIP3    H257299   4.473   1.601  16.962 -0.7030  0.1550  1.2878
11962TIP3   OH257300   1.500   0.533   1.939  0.3073  0.3745  0.6312
11962TIP3    H157301   1.489   0.474   2.014  0.4676 -2.1529 -1.1941
11962TIP3    H257302   1.507   0.620   1.978  1.1299 -0.8708  3.6023
11963TIP3   OH257303   1.598   5.557   5.009 -0.0136  0.2801 -0.4162
11963TIP3    H157304   1.685   5.530   5.040  0.2294  1.1432 -0.3089
11963TIP3    H257305   1.606   5.558   4.914 -0.3041 -0.9059 -0.4622
11964TIP3   OH257306   0.320   1.899  16.136  0.3470  0.3401 -0.0311
11964TIP3    H157307   0.238   1.934  16.101  0.4763  1.0389  0.3521
11964TIP3    H257308   0.364   1.863  16.059 -0.3019 -0.0200 -0.2457
11965TIP3   OH257309   4.600   3.876  12.892 -0.2314  0.8462 -0.0386
11965TIP3    H157310   4.545   3.815  12.843  0.9900 -0.4567  0.1174
11965TIP3    H257311   4.657   3.916  12.826 -0.7486  1.5105 -0.0856
11966TIP3   OH257312   0.010   2.358   1.468  0.1954  0.2073  0.0890
11966TIP3    H157313  -0.081   2.387   1.466 -0.1094 -0.7383 -0.2544
11966TIP3    H257314   0.021   2.304   1.390  0.8026 -0.3957  0.5650
11967TIP3   OH257315   3.967   2.447  11.136 -0.5875  0.0918  0.2343
11967TIP3    H157316   4.015   2.370  11.106 -0.0093  0.3998  0.3569
11967TIP3    H257317   4.034   2.507  11.166 -0.7899  1.6672 -2.1445
11968TIP3   OH257318   5.673   5.511  13.296 -0.3403 -0.2437 -0.3842
11968TIP3    H157319   5.726   5.587  13.319 -0.9179  0.4118 -1.1459
11968TIP3    H257320   5.693   5.495  13.203 -0.7341 -0.5877 -0.4167
11969TIP3   OH257321   5.876   3.254   3.988 -0.0898 -0.2280 -0.2369
11969TIP3    H157322   5.929   3.254   3.908  0.7518 -1.2338  0.2976
11969TIP3    H257323   5.918   3.318   4.045  0.0009 -0.3631 -0.1531
11970TIP3   OH257324   4.303   3.252   1.889  0.1038  0.0795  0.2858
11970TIP3    H157325   4.311   3.187   1.960  1.0899  0.5495  0.6241
11970TIP3    H257326   4.392   3.283   1.875 -0.2951  1.0562 -0.1689
11971TIP3   OH257327   5.903   5.298  12.158  0.4862  0.8475 -0.0781
11971TIP3    H157328   5.852   5.372  12.124  0.3539  0.3479 -1.0071
11971TIP3    H257329   5.851   5.264  12.231  1.2201  2.5147  1.2679
11972TIP3   OH257330   3.848   1.312   6.106  0.0112 -0.5286 -0.0665
11972TIP3    H157331   3.905   1.339   6.034  0.9974 -2.3356 -0.0133
11972TIP3    H257332   3.760   1.331   6.075  0.5674  1.6579 -0.4417
11973TIP3   OH257333   3.356   2.271   5.042 -0.0473 -0.1868 -0.0738
11973TIP3    H157334   3.294   2.246   5.111 -0.7214 -1.2451 -1.0297
11973TIP3    H257335   3.435   2.298   5.089 -0.7556 -0.1289  1.1275
11974TIP3   OH257336   0.329   5.852   5.440 -0.2976  0.5207 -0.3204
11974TIP3    H157337   0.242   5.863   5.479 -0.1733  0.8539 -0.1348
11974TIP3    H257338   0.311   5.837   5.347 -0.6255 -0.8847 -0.0575
11975TIP3   OH257339   1.353   2.719  13.658 -0.0597 -0.3402  0.2605
11975TIP3    H157340   1.258   2.710  13.649 -0.1618 -0.0291  0.9357
11975TIP3    H257341   1.371   2.687  13.746  0.1573  1.6982  0.9934
11976TIP3   OH257342   3.393   5.874  13.859 -0.3191 -0.2437  0.2777
11976TIP3    H157343   3.301   5.862  13.880 -0.1910 -2.1219 -0.1168
11976TIP3    H257344   3.439   5.807  13.909  0.7257  0.0033 -0.3138
11977TIP3   OH257345   1.375   5.027   0.603  0.2813 -0.6695  0.0178
11977TIP3    H157346   1.371   4.931   0.611 -2.3857 -0.5262  1.4603
11977TIP3    H257347   1.322   5.059   0.676  0.7135  1.9254 -0.7242
11978TIP3   OH257348   5.563   5.416   6.653  0.4867  0.6526  0.4183
11978TIP3    H157349   5.540   5.491   6.707  0.7946  2.7477 -2.1529
11978TIP3    H257350   5.624   5.451   6.587 -1.9400 -0.9533 -2.9836
11979TIP3   OH257351   2.001   1.902  15.299  0.1322  0.2812  0.5583
11979TIP3    H157352   1.926   1.915  15.357  0.2708  1.3056  0.5307
11979TIP3    H257353   1.966   1.913  15.211 -0.0109 -0.9452  0.4419
11980TIP3   OH257354   0.110   4.615   1.010 -0.4520 -0.2604 -0.4068
11980TIP3    H157355   0.065   4.650   0.932  0.1339  0.5765 -0.3876
11980TIP3    H257356   0.173   4.683   1.033  1.6190 -1.8469 -1.0850
11981TIP3   OH257357   3.823   4.077   5.157  0.1036 -0.6859 -0.2302
11981TIP3    H157358   3.848   4.164   5.189  1.3229 -1.2408  0.3939
11981TIP3    H257359   3.751   4.094   5.096  0.7951  0.8330 -0.6756
11982TIP3   OH257360   1.054   5.115   3.618  0.2130 -0.2896  0.2476
11982TIP3    H157361   0.998   5.124   3.694  0.3065  3.2896  0.0294
11982TIP3    H257362   0.994   5.098   3.545 -0.4770  1.6212  0.3200
11983TIP3   OH257363   1.386   2.351   1.245  0.2469 -0.0189  0.1058
11983TIP3    H157364   1.466   2.300   1.234  0.8117  1.0228 -0.8187
11983TIP3    H257365   1.381   2.405   1.166 -1.1257  0.2774  0.3662
11984TIP3   OH257366   0.903   3.356  12.804 -0.4149 -1.2091 -0.0878
11984TIP3    H157367   0.968   3.413  12.845 -0.9164  0.4595 -1.5244
11984TIP3    H257368   0.951   3.308  12.737 -0.2389 -1.6194  0.3243
11985TIP3   OH257369   1.002   5.366   4.885  0.2239 -0.3810  0.0264
11985TIP3    H157370   0.980   5.361   4.978 -1.4656 -1.3685 -0.3908
11985TIP3    H257371   1.025   5.458   4.871 -1.2043  0.1627  1.0546
11986TIP3   OH257372   2.213   6.712  12.842 -0.5502 -0.4519  0.4741
11986TIP3    H157373   2.278   6.650  12.810  0.2099 -1.0883  3.0335
11986TIP3    H257374   2.230   6.719  12.936 -3.5307  0.1474  1.0713
11987TIP3   OH257375   0.285   5.633   3.268 -0.1834 -0.3508 -0.1719
11987TIP3    H157376   0.351   5.580   3.313 -0.7134 -2.1140 -1.3596
11987TIP3    H257377   0.231   5.668   3.338  0.7947 -0.5459  0.7075
11988TIP3   OH257378   0.805   0.004   5.765  0.7995 -0.0281  0.7093
11988TIP3    H157379   0.863   0.053   5.823  0.8125  0.4340  0.3044
11988TIP3    H257380   0.807  -0.085   5.801  0.6700  0.2835  1.5234
11989TIP3   OH257381   3.133   4.592   0.100 -0.2580 -0.3514  0.3630
11989TIP3    H157382   3.196   4.664   0.096 -0.0317 -0.5501  0.3622
11989TIP3    H257383   3.112   4.574   0.008 -0.1726 -0.4124  0.3551
11990TIP3   OH257384   1.544   4.179   5.635  0.1521 -0.2490 -0.1446
11990TIP3    H157385   1.603   4.253   5.643 -1.0368  0.8029 -0.8331
11990TIP3    H257386   1.519   4.158   5.725  0.7394 -0.0438  0.0711
11991TIP3   OH257387   4.383   2.371  12.643  0.2738 -0.1410 -0.1515
11991TIP3    H157388   4.287   2.374  12.637  0.2334  0.5667  0.6751
11991TIP3    H257389   4.401   2.339  12.731  0.7927 -0.1505 -0.2610
11992TIP3   OH257390   1.090   5.525  13.597 -0.2308 -0.3890 -0.0373
11992TIP3    H157391   1.121   5.595  13.654  0.4170 -0.5165 -0.2192
11992TIP3    H257392   1.000   5.550  13.575  0.6346  1.5305 -1.8205
11993TIP3   OH257393   4.753   0.758  16.677 -0.2116 -0.3023  0.7568
11993TIP3    H157394   4.786   0.847  16.667  0.7272 -0.8270 -1.0973
11993TIP3    H257395   4.688   0.747  16.607 -0.3104 -1.0888  0.9499
11994TIP3   OH257396   3.783   5.133  16.246 -0.3722 -0.1389  0.6843
11994TIP3    H157397   3.806   5.106  16.335  2.5902  3.0743  1.1137
11994TIP3    H257398   3.725   5.064  16.214 -0.4327 -2.1528  4.5601
11995TIP3   OH257399   2.271   1.633   3.766 -0.2585  0.0168 -0.7046
11995TIP3    H157400   2.325   1.696   3.717 -1.2608  0.6606 -1.0251
11995TIP3    H257401   2.323   1.553   3.768  2.6800  1.6972  2.6715
11996TIP3   OH257402   3.125   1.444   6.332 -0.4362  0.1976 -0.1480
11996TIP3    H157403   3.116   1.500   6.409  1.9976 -0.6940  0.8627
11996TIP3    H257404   3.043   1.393   6.330 -0.7277  0.5340  1.6085
11997TIP3   OH257405   3.905   2.832   2.914  0.2172 -0.9142  0.2203
11997TIP3    H157406   3.980   2.776   2.894  0.5412 -0.3624 -0.1416
11997TIP3    H257407   3.934   2.885   2.988  0.8717  0.5752 -1.0533
11998TIP3   OH257408   1.304   5.885   2.104 -0.3234  0.3164 -0.1740
11998TIP3    H157409   1.347   5.824   2.044 -1.8661  0.4833 -1.5072
11998TIP3    H257410   1.211   5.868   2.092 -0.7079  0.4437  2.1171
11999TIP3   OH257411   5.711   3.538   1.544 -0.4732 -0.0944  0.3004
11999TIP3    H157412   5.739   3.584   1.623 -2.5348 -0.1966  1.1440
11999TIP3    H257413   5.789   3.536   1.488  0.9352  0.2927  2.1721
12000TIP3   OH257414   2.329   5.759   5.449 -0.0209  0.4187  0.1039
12000TIP3    H157415   2.367   5.839   5.484  2.2006 -0.5293  0.0321
12000TIP3    H257416   2.392   5.729   5.383 -0.9666 -1.1955 -0.1223
12001TIP3   OH257417   4.884   2.409  15.204  0.2114 -0.0668 -0.2734
12001TIP3    H157418   4.932   2.347  15.258  1.6925  0.4710 -0.9039
12001TIP3    H257419   4.952   2.463  15.164 -1.0009  1.6635 -0.1051
12002TIP3   OH257420   4.026   6.657  13.193  0.4464 -0.3614  0.0106
12002TIP3    H157421   3.945   6.674  13.145 -0.7475 -0.0424  2.0498
12002TIP3    H257422   4.095   6.693  13.137 -1.1263  2.4843 -0.2666
12003TIP3   OH257423   6.183   5.332   4.576  0.0370 -0.1847  0.2616
12003TIP3    H157424   6.249   5.275   4.537  0.6741  0.6921  0.0173
12003TIP3    H257425   6.233   5.395   4.627 -0.6113  0.4752  0.1036
12004TIP3   OH257426   0.789   1.556   5.496  0.2462 -0.1407  0.0578
12004TIP3    H157427   0.796   1.520   5.408 -0.4011  0.3449 -0.2058
12004TIP3    H257428   0.877   1.548   5.532  0.5956 -0.0797 -0.7427
12005TIP3   OH257429   1.328   1.102   0.658  0.6671  0.1805 -0.3655
12005TIP3    H157430   1.324   1.025   0.715 -0.3551 -0.9464 -1.8716
12005TIP3    H257431   1.342   1.066   0.571  1.4638  1.8153 -0.9536
12006TIP3   OH257432   5.484   0.757  12.148 -0.5162  0.0228 -0.2893
12006TIP3    H157433   5.569   0.716  12.163 -1.1116 -0.8264  1.0248
12006TIP3    H257434   5.479   0.770  12.054  1.1664  0.3243 -0.3639
12007TIP3   OH257435   4.420   3.162   5.312  0.2679  0.6993  0.0095
12007TIP3    H157436   4.390   3.080   5.351  0.3805  0.4169 -0.4935
12007TIP3    H257437   4.477   3.201   5.378 -0.0716  0.5469  0.3946
12008TIP3   OH257438   5.331   5.154  16.988 -0.1415  0.0982 -0.9079
12008TIP3    H157439   5.296   5.128  17.073  2.1267 -0.2700 -0.0177
12008TIP3    H257440   5.348   5.248  16.996  0.5146 -0.0242 -0.7478
12009TIP3   OH257441   2.831   6.432   2.884 -0.3936 -0.7473  0.0299
12009TIP3    H157442   2.926   6.443   2.875 -0.2702 -1.3023  0.5924
12009TIP3    H257443   2.800   6.424   2.794 -0.0491  0.4802 -0.2166
12010TIP3   OH257444   2.624   0.002  13.976  0.3722 -0.4964  0.1592
12010TIP3    H157445   2.646  -0.091  13.976  0.1553 -0.5496  0.7226
12010TIP3    H257446   2.703   0.045  14.009  0.9881 -0.3432 -1.4309
12011TIP3   OH257447   5.559   0.136  14.740  0.1490  0.1516  0.2708
12011TIP3    H157448   5.488   0.114  14.680  0.5461 -1.3730  0.3036
12011TIP3    H257449   5.636   0.145  14.684  0.4414 -0.8904  0.4724
12012TIP3   OH257450   5.315   1.664  17.107  0.3824 -0.1688  0.2789
12012TIP3    H157451   5.245   1.727  17.087  0.9223  1.3357  2.7478
12012TIP3    H257452   5.342   1.632  17.021 -2.7555 -0.2331 -0.8419
12013TIP3   OH257453   1.906   1.615  12.361  0.0755  0.5433  0.0597
12013TIP3    H157454   1.886   1.539  12.416  1.0447 -0.2578 -0.6506
12013TIP3    H257455   2.001   1.618  12.359  0.0694  0.5861 -1.5044
12014TIP3   OH257456   0.787   0.953  15.530 -0.1374 -0.1911 -0.2245
12014TIP3    H157457   0.822   0.918  15.448 -1.0601  0.0217 -0.7182
12014TIP3    H257458   0.865   0.975  15.581  0.4816  1.0241 -1.6104
12015TIP3   OH257459   3.520   5.799  14.600 -0.1403  0.0553 -0.5751
12015TIP3    H157460   3.483   5.887  14.609  2.3306  1.1031  0.3393
12015TIP3    H257461   3.503   5.774  14.510 -0.5258  1.6638 -0.9677
12016TIP3   OH257462   1.669   3.551  15.137  0.0529  0.0898  0.1920
12016TIP3    H157463   1.629   3.626  15.093 -0.9429 -2.3696 -3.5298
12016TIP3    H257464   1.759   3.550  15.105  0.0430 -0.2925  0.1664
12017TIP3   OH257465   0.410   5.506   4.797 -0.6724 -0.4572  0.4389
12017TIP3    H157466   0.419   5.581   4.855  2.4575 -0.1628 -0.2474
12017TIP3    H257467   0.446   5.433   4.846 -0.7696 -0.8224 -0.0261
12018TIP3   OH257468   3.638   0.637   0.794 -0.5097 -0.6562  0.3524
12018TIP3    H157469   3.571   0.665   0.730  0.9740  0.8346 -0.6241
12018TIP3    H257470   3.598   0.656   0.879 -1.7345 -0.7572 -0.1688
12019TIP3   OH257471   2.088   1.408  14.656  0.2964  0.1119 -0.4215
12019TIP3    H157472   2.006   1.384  14.700  0.2759  0.7041 -0.1258
12019TIP3    H257473   2.120   1.484  14.705  2.9723 -2.2727  1.9222
12020TIP3   OH257474   2.149   3.511   5.296 -0.3718 -0.5898  0.0856
12020TIP3    H157475   2.227   3.550   5.335 -0.3674  0.9201 -1.3629
12020TIP3    H257476   2.150   3.540   5.205 -1.9411 -1.6148 -0.2961
12021TIP3   OH257477   3.775   3.015  12.521  1.4405 -0.2566 -0.0958
12021TIP3    H157478   3.822   2.942  12.564  1.7622  0.2564  0.4443
12021TIP3    H257479   3.712   3.044  12.587  0.1637 -1.0950 -0.9054
12022TIP3   OH257480   2.226   1.118  17.301 -0.0569  0.0775  0.1633
12022TIP3    H157481   2.141   1.106  17.342  0.5030 -1.2804  0.9903
12022TIP3    H257482   2.244   1.035  17.258  1.3458 -0.0824  0.9874
12023TIP3   OH257483   4.518   3.513  16.480  0.2945  0.0284  0.4996
12023TIP3    H157484   4.489   3.516  16.388  1.6133  1.1260  0.0738
12023TIP3    H257485   4.530   3.420  16.498  2.4377 -0.1556 -1.3161
12024TIP3   OH257486   2.136   4.225   5.023  0.0915  0.9501  0.1873
12024TIP3    H157487   2.191   4.303   5.021 -0.3563  1.2660 -0.2276
12024TIP3    H257488   2.048   4.258   5.040 -0.0189  0.4791  0.5588
12025TIP3   OH257489   0.169   2.290   4.478 -0.5412  0.2423 -0.1545
12025TIP3    H157490   0.161   2.373   4.430  0.2458 -0.3881 -1.4422
12025TIP3    H257491   0.226   2.236   4.422 -0.3408 -0.8574  1.0768
12026TIP3   OH257492   1.313   1.835   0.192 -0.2471  0.1187  0.5741
12026TIP3    H157493   1.357   1.750   0.191 -1.1327 -0.4195  2.3990
12026TIP3    H257494   1.236   1.824   0.137 -1.1127 -0.7382  1.9096
12027TIP3   OH257495   3.270   5.987  14.348  0.0391  0.4296 -0.2069
12027TIP3    H157496   3.311   6.044  14.284 -1.5946  0.7604 -1.0085
12027TIP3    H257497   3.243   6.046  14.419 -0.4992  0.4765 -0.4442
12028TIP3   OH257498   5.028   1.734  14.888 -0.4595  0.1204 -0.8270
12028TIP3    H157499   5.017   1.652  14.937 -3.0667  0.0706 -1.3193
12028TIP3    H257500   5.080   1.790  14.945  1.5725 -1.8966 -0.5584
12029TIP3   OH257501   5.904   2.331   3.031 -0.4784  0.2550 -0.1674
12029TIP3    H157502   5.961   2.386   2.977  0.3370 -0.5298 -0.1293
12029TIP3    H257503   5.863   2.271   2.969 -1.8863  1.3201 -0.2983
12030TIP3   OH257504   1.843   5.687  13.537  0.4912 -0.0960 -0.4821
12030TIP3    H157505   1.839   5.779  13.565  0.2910  0.0736 -1.0554
12030TIP3    H257506   1.802   5.638  13.608 -2.3334  0.5528 -1.5446
12031TIP3   OH257507   0.552   4.282  13.182  0.4320  0.5371  0.1799
12031TIP3    H157508   0.497   4.265  13.106 -1.6903  1.5829  1.4042
12031TIP3    H257509   0.518   4.364  13.219  1.9882  0.5486  1.7366
12032TIP3   OH257510   2.664   2.436  15.689 -0.3176  0.4036  0.5282
12032TIP3    H157511   2.669   2.415  15.783 -1.2164 -0.9731  0.3078
12032TIP3    H257512   2.573   2.461  15.675 -0.9073 -1.9951 -0.4164
12033TIP3   OH257513   5.243   5.508   1.171  0.3797  0.1659 -0.4546
12033TIP3    H157514   5.194   5.496   1.252  0.5355  0.7482 -0.2636
12033TIP3    H257515   5.307   5.437   1.170  0.6364  0.3818  0.1353
12034TIP3   OH257516   5.282   4.283  16.685  0.0079 -0.4169 -0.1879
12034TIP3    H157517   5.334   4.223  16.632 -0.6528  0.0362 -1.3845
12034TIP3    H257518   5.347   4.335  16.732  0.6163 -0.6692 -0.7272
12035TIP3   OH257519   5.255   5.417  10.864  0.4475 -0.2472 -0.1780
12035TIP3    H157520   5.223   5.469  10.791  1.3905  1.2775  0.4354
12035TIP3    H257521   5.316   5.354  10.825 -1.3426 -1.5371 -1.0361
12036TIP3   OH257522   2.828   5.735  11.035  0.2691 -0.2037  0.4109
12036TIP3    H157523   2.781   5.661  10.997  0.2286  0.2345 -0.4120
12036TIP3    H257524   2.782   5.753  11.116  0.8104 -1.6343  1.0737
12037TIP3   OH257525   3.176   3.797  13.248 -0.2809  0.3697  0.0815
12037TIP3    H157526   3.179   3.746  13.167 -2.0520  0.1286  0.1320
12037TIP3    H257527   3.191   3.732  13.317 -0.2080  0.3296  0.0288
12038TIP3   OH257528   0.740   3.661   5.109 -0.3727 -0.0882  0.1113
12038TIP3    H157529   0.763   3.582   5.158  2.6080 -1.6770 -3.3376
12038TIP3    H257530   0.768   3.733   5.166  1.0178 -1.6807  1.5884
12039TIP3   OH257531   5.931   0.767   5.414 -0.3186  0.0550 -0.0838
12039TIP3    H157532   5.995   0.806   5.473 -3.4159  2.3632  2.0734
12039TIP3    H257533   5.847   0.805   5.441 -2.1808  0.3810 -5.2688
12040TIP3   OH257534   0.364   2.943   3.386  0.4732 -0.1603 -0.0717
12040TIP3    H157535   0.458   2.958   3.387  1.0389 -3.1619  0.5784
12040TIP3    H257536   0.349   2.894   3.305  0.1757 -2.8500  1.4670
12041TIP3   OH257537   3.880   5.275  14.296  0.0499  0.0156 -0.2284
12041TIP3    H157538   3.908   5.366  14.298  1.5898 -0.3592 -2.2498
12041TIP3    H257539   3.939   5.231  14.357  1.4642 -0.1204 -1.6318
12042TIP3   OH257540   0.877   4.187  15.708  0.0782 -0.9176  0.5609
12042TIP3    H157541   0.785   4.211  15.723 -0.3300 -0.6271 -1.9070
12042TIP3    H257542   0.872   4.107  15.655  1.2346 -0.5267 -0.1614
12043TIP3   OH257543   6.548   5.353   3.165 -0.0007 -0.6406 -0.1172
12043TIP3    H157544   6.536   5.267   3.206 -2.0388  0.1964  1.2307
12043TIP3    H257545   6.459   5.379   3.139  0.4696  1.3444  0.1430
12044TIP3   OH257546   0.858   0.157   3.881 -0.1723 -0.0921 -0.0471
12044TIP3    H157547   0.944   0.185   3.849 -0.3690 -0.2186 -0.7111
12044TIP3    H257548   0.865   0.160   3.976  0.4651  0.2099 -0.1006
12045TIP3   OH257549   2.002   0.724  14.768 -0.0712 -0.6663 -0.2540
12045TIP3    H157550   2.062   0.677  14.825 -0.8907 -0.8202  0.5094
12045TIP3    H257551   1.940   0.657  14.738 -0.4319 -0.3375 -0.2591
12046TIP3   OH257552   5.001   4.890  12.270  0.2484 -0.0730 -0.7916
12046TIP3    H157553   4.952   4.915  12.349 -1.8985 -0.0492 -2.0689
12046TIP3    H257554   5.048   4.970  12.246 -1.5629  0.9023 -1.2655
12047TIP3   OH257555   4.231   1.780   4.197  0.0918  0.3961  0.0640
12047TIP3    H157556   4.202   1.870   4.215 -0.1345  0.6372 -1.3912
12047TIP3    H257557   4.182   1.727   4.260 -1.0533  1.1377 -0.1541
12048TIP3   OH257558   2.095   6.249   5.585  0.2750 -0.2707  0.0762
12048TIP3    H157559   2.059   6.160   5.595 -0.0840 -0.0368  0.9328
12048TIP3    H257560   2.069   6.294   5.665  0.8615  0.4746 -0.1479
12049TIP3   OH257561   3.656   4.080  16.471 -0.2557 -0.0961 -0.3199
12049TIP3    H157562   3.707   4.131  16.408  0.3580  1.9718  1.6787
12049TIP3    H257563   3.574   4.130  16.480  0.8230  1.3985  2.5433
12050TIP3   OH257564   4.271   2.053   6.683  0.6234  0.3360 -0.0915
12050TIP3    H157565   4.250   1.973   6.636 -1.1557 -0.7320  2.3158
12050TIP3    H257566   4.235   2.040   6.770  3.8373  2.1156  1.7115
12051TIP3   OH257567   3.483   0.552  14.789  0.6475 -0.0647  0.0775
12051TIP3    H157568   3.531   0.582  14.711  0.1512 -1.0895 -0.6446
12051TIP3    H257569   3.408   0.613  14.795  0.5014 -0.1822 -0.4550
12052TIP3   OH257570   1.902   5.927   1.035 -0.5383 -0.1789 -0.2911
12052TIP3    H157571   1.848   5.860   1.076 -0.0208  0.4104  1.4358
12052TIP3    H257572   1.990   5.910   1.069 -0.1649  0.5721 -0.8718
12053TIP3   OH257573   2.600   5.710  10.703 -0.1890 -0.3669  0.6203
12053TIP3    H157574   2.539   5.700  10.776 -0.7233 -2.7508 -0.0591
12053TIP3    H257575   2.573   5.791  10.660 -2.5846 -1.0833  0.6490
12054TIP3   OH257576   2.114   0.770   5.378  0.4082  0.2765 -0.3233
12054TIP3    H157577   2.067   0.759   5.460  2.7571 -0.7574  0.9839
12054TIP3    H257578   2.099   0.688   5.331  3.0530 -1.3070  1.3588
12055TIP3   OH257579   5.864   5.048  11.783  0.2284  0.1142  0.5768
12055TIP3    H157580   5.869   5.024  11.876  1.5118  0.3713  0.5911
12055TIP3    H257581   5.910   4.978  11.737 -0.9001 -0.3096  0.0613
12056TIP3   OH257582   3.726   3.313   2.345  0.4255 -0.3073 -0.0188
12056TIP3    H157583   3.752   3.342   2.257  0.7945 -0.2587  0.1065
12056TIP3    H257584   3.760   3.381   2.403 -2.2127  1.1905 -0.0346
12057TIP3   OH257585   4.916   1.360   5.541  0.0860 -0.1519 -0.2337
12057TIP3    H157586   4.881   1.413   5.468 -0.5664  1.0551  0.8976
12057TIP3    H257587   4.880   1.402   5.619  2.2242 -0.3051  0.8935
12058TIP3   OH257588   3.567   6.194   3.293 -0.3002 -0.4152 -0.0491
12058TIP3    H157589   3.575   6.278   3.248 -0.9179 -0.2607  0.1135
12058TIP3    H257590   3.481   6.198   3.336  0.6549 -0.1685  1.9508
12059TIP3   OH257591   0.081   4.862   4.070  0.3832 -0.6156 -0.5942
12059TIP3    H157592   0.106   4.812   4.148 -0.1330 -0.4280 -0.3058
12059TIP3    H257593   0.147   4.931   4.063 -0.9955  0.9927  1.2009
12060TIP3   OH257594   4.294   0.145   2.485 -0.4346  0.0008  0.3817
12060TIP3    H157595   4.242   0.226   2.483 -0.7592 -0.2178 -0.4113
12060TIP3    H257596   4.231   0.077   2.510  0.0498  0.1270  2.0631
12061TIP3   OH257597   5.672   3.384  15.125 -0.0191 -0.2084 -0.5100
12061TIP3    H157598   5.586   3.376  15.165  0.1087 -1.9023 -0.4903
12061TIP3    H257599   5.660   3.446  15.052 -0.9986  0.3507  0.1129
12062TIP3   OH257600   4.421   0.531  14.992 -0.1652 -0.0535  0.4960
12062TIP3    H157601   4.450   0.444  15.018 -0.7573 -0.2183  0.6072
12062TIP3    H257602   4.485   0.591  15.032  0.6269 -0.4633 -0.1266
12063TIP3   OH257603   0.408   3.847   5.351  0.6499 -0.1212 -0.0647
12063TIP3    H157604   0.371   3.780   5.293  0.0422  1.3413 -1.4275
12063TIP3    H257605   0.442   3.914   5.292 -0.4785  1.7044  1.2531
12064TIP3   OH257606   6.117   3.024   2.016 -0.4492 -0.1894 -0.2370
12064TIP3    H157607   6.207   2.993   2.019 -0.1434  0.7079 -0.1327
12064TIP3    H257608   6.066   2.945   1.997  0.4726 -0.4784 -1.6481
12065TIP3   OH257609   4.671   1.128   0.599  0.1283  0.0308  0.0141
12065TIP3    H157610   4.680   1.223   0.589  0.3860  0.1086  0.8907
12065TIP3    H257611   4.693   1.092   0.513  2.1660  0.6399  0.2198
12066TIP3   OH257612   0.547   3.667   3.440  0.3282 -0.1570  0.1773
12066TIP3    H157613   0.520   3.754   3.466 -0.7856 -1.0650  2.2583
12066TIP3    H257614   0.489   3.643   3.368 -0.3884  0.2260  0.6285
12067TIP3   OH257615   5.870   0.770   2.180 -0.6048  0.7039  0.1943
12067TIP3    H157616   5.932   0.698   2.164 -1.0256  0.2698  0.4633
12067TIP3    H257617   5.915   0.848   2.148 -0.7821  0.1033 -1.6478
12068TIP3   OH257618   1.575   1.684  14.817 -0.1319  0.0766  0.7189
12068TIP3    H157619   1.522   1.726  14.748  2.4384  1.7069 -0.4071
12068TIP3    H257620   1.566   1.742  14.893 -1.5387 -0.7642  1.2269
12069TIP3   OH257621   5.011   2.894  15.126 -0.2777  0.1711 -0.1019
12069TIP3    H157622   5.011   2.881  15.031 -1.5343  1.3543 -0.3018
12069TIP3    H257623   4.923   2.870  15.154 -0.9153  2.6477  0.2762
12070TIP3   OH257624   1.088   3.322  17.078 -0.8695 -0.2501  0.5157
12070TIP3    H157625   1.128   3.404  17.109 -1.1493  0.4269 -0.8355
12070TIP3    H257626   1.014   3.308  17.137  1.2167 -1.4896  3.0056
12071TIP3   OH257627   4.703   1.163   5.719  0.4429 -0.4214  0.0355
12071TIP3    H157628   4.651   1.131   5.793 -0.0606 -0.9311 -0.5222
12071TIP3    H257629   4.647   1.228   5.677  0.5796 -0.3932 -0.1032
12072TIP3   OH257630   1.224   2.596   0.792 -0.0356  0.3093  0.6491
12072TIP3    H157631   1.242   2.686   0.763 -0.0630  0.2753  0.5275
12072TIP3    H257632   1.194   2.551   0.713  1.6444 -0.2699  0.3193
12073TIP3   OH257633   5.837   4.525  15.277 -0.1680  0.1014  0.4765
12073TIP3    H157634   5.801   4.570  15.201  1.5256 -0.7249 -0.8960
12073TIP3    H257635   5.870   4.442  15.242 -0.6447 -0.9586  2.4042
12074TIP3   OH257636   3.140   3.608  10.777 -0.5007 -0.3076  0.0134
12074TIP3    H157637   3.160   3.515  10.777  2.9795  0.3021 -0.8225
12074TIP3    H257638   3.084   3.621  10.699  0.3855 -1.4709 -0.8470
12075TIP3   OH257639   2.993   0.310  11.082 -0.3872  0.3044 -0.1352
12075TIP3    H157640   2.980   0.358  11.000  0.9164 -1.8109 -1.7010
12075TIP3    H257641   2.910   0.267  11.099 -0.0960 -0.9684 -1.6273
12076TIP3   OH257642   4.091   0.571   3.867  0.6447  0.0147  0.9425
12076TIP3    H157643   4.046   0.638   3.815 -1.1454 -0.9901  1.0929
12076TIP3    H257644   4.169   0.549   3.816 -0.2816  0.1247 -0.5867
12077TIP3   OH257645   2.723   5.744   3.760 -0.3852  0.1408 -0.3518
12077TIP3    H157646   2.767   5.810   3.705  0.3209  0.6285  0.7548
12077TIP3    H257647   2.777   5.740   3.839 -1.2955 -0.6495  0.2461
12078TIP3   OH257648   4.632   4.785   5.354  0.4782 -0.0160 -0.2259
12078TIP3    H157649   4.579   4.771   5.275 -0.6976 -1.4559  0.7578
12078TIP3    H257650   4.654   4.878   5.353 -0.0978  0.1305 -1.8805
12079TIP3   OH257651   3.989   3.921   5.947  0.1745 -0.4107  0.4770
12079TIP3    H157652   4.078   3.888   5.953  0.0268 -1.4786 -2.0687
12079TIP3    H257653   3.997   4.006   5.905  0.0331 -0.1484  0.9696
12080TIP3   OH257654   6.725   1.830  16.955  0.2518 -0.5000 -0.2260
12080TIP3    H157655   6.661   1.759  16.961 -0.2179 -0.2342 -1.6302
12080TIP3    H257656   6.723   1.856  16.863  2.4447 -0.5140 -0.3303
12081TIP3   OH257657   6.329   4.175   4.608 -0.1734 -0.2306  0.1770
12081TIP3    H157658   6.416   4.216   4.603  0.0377 -0.7623 -0.5947
12081TIP3    H257659   6.340   4.089   4.569 -0.5843 -1.1249  1.9206
12082TIP3   OH257660   4.956   1.017   0.663 -0.3108 -0.5001  0.6145
12082TIP3    H157661   4.884   1.007   0.727 -1.5678  0.7950 -0.5257
12082TIP3    H257662   4.913   1.009   0.578  0.5072  2.2225 -0.1494
12083TIP3   OH257663   1.206   2.072   4.029  0.5354 -0.0783 -0.2091
12083TIP3    H157664   1.296   2.091   4.002  0.0805  0.7710 -1.2251
12083TIP3    H257665   1.208   1.982   4.060  1.7826  0.0107  0.0075
12084TIP3   OH257666   4.738   6.254  14.613 -0.1009 -0.8674 -0.0461
12084TIP3    H157667   4.756   6.161  14.598 -0.3387 -0.6307 -2.0648
12084TIP3    H257668   4.824   6.292  14.630  0.0312 -1.4051  0.5384
12085TIP3   OH257669   6.411   4.813   0.301  0.2573 -0.9488 -0.1660
12085TIP3    H157670   6.320   4.842   0.290  1.1542  1.6157 -1.6717
12085TIP3    H257671   6.433   4.838   0.391 -0.6553 -2.0900  0.3997
12086TIP3   OH257672   5.547   5.326  12.802 -0.7151 -0.4096 -0.0962
12086TIP3    H157673   5.469   5.319  12.748  0.5536 -1.6934 -1.8809
12086TIP3    H257674   5.528   5.273  12.879 -1.0720 -1.9521 -1.2063
12087TIP3   OH257675   2.404   4.078  12.545  0.3155 -0.1450  0.4349
12087TIP3    H157676   2.370   3.992  12.522  1.5566 -0.1466 -1.6152
12087TIP3    H257677   2.457   4.062  12.623 -0.7081 -0.9187  1.0048
12088TIP3   OH257678   6.137   5.226  14.701  0.0054  0.2385  0.3417
12088TIP3    H157679   6.125   5.234  14.607 -0.9214  0.4871  0.4668
12088TIP3    H257680   6.189   5.147  14.713  1.6111  1.1318 -0.4615
12089TIP3   OH257681   5.446   4.625  14.528  0.2185 -0.3929 -0.2678
12089TIP3    H157682   5.526   4.610  14.578  0.6800  0.8697 -0.5799
12089TIP3    H257683   5.394   4.546  14.541  0.4763 -0.2665  1.8799
12090TIP3   OH257684   1.846   5.485  16.615 -0.3252  0.4522 -0.1463
12090TIP3    H157685   1.826   5.438  16.534  0.8835  0.7469 -0.6379
12090TIP3    H257686   1.843   5.578  16.591 -0.7340  0.5671  0.3362
12091TIP3   OH257687   1.054   2.996   0.259  0.8371 -0.3372 -0.3396
12091TIP3    H157688   1.059   3.008   0.354  1.7454 -0.4861 -0.3579
12091TIP3    H257689   1.098   3.073   0.223  1.6714 -0.9181 -0.5964
12092TIP3   OH257690   1.686   3.703  12.102  0.5815 -0.5089  0.4990
12092TIP3    H157691   1.694   3.622  12.153 -0.4753 -0.1896  1.2219
12092TIP3    H257692   1.744   3.765  12.146  0.5823 -0.5778  0.5953
12093TIP3   OH257693   1.827   6.717   3.500  0.0139 -0.2820 -0.1667
12093TIP3    H157694   1.786   6.696   3.584  0.5673 -1.9634 -0.2639
12093TIP3    H257695   1.879   6.639   3.480 -0.3209 -0.0264 -2.2013
12094TIP3   OH257696   3.037   2.971   3.921 -0.4354 -0.2907  0.2137
12094TIP3    H157697   3.116   3.003   3.963 -0.8950  1.6887 -0.3334
12094TIP3    H257698   3.004   3.045   3.871 -1.4150 -1.7358 -1.4179
12095TIP3   OH257699   6.093   5.573   3.767 -0.3759  0.1796  0.3314
12095TIP3    H157700   6.061   5.506   3.828  0.5575  0.5953  1.3178
12095TIP3    H257701   6.089   5.655   3.818  0.8728  0.4575  0.0167
12096TIP3   OH257702   0.205   1.358   2.179  0.4339  0.7413 -0.2246
12096TIP3    H157703   0.276   1.295   2.167  0.1392  0.1711  0.9275
12096TIP3    H257704   0.142   1.337   2.109 -0.0114 -0.7530  0.5825
12097TIP3   OH257705   6.001   6.491   5.306  0.5250  0.0087  0.3540
12097TIP3    H157706   6.048   6.550   5.365  0.1912 -0.4559  1.0983
12097TIP3    H257707   5.908   6.509   5.324  0.4207 -0.3069  0.1386
12098TIP3   OH257708   4.150   2.012  15.452 -0.0772 -0.0649 -0.1681
12098TIP3    H157709   4.130   2.106  15.454  0.5839  0.0631  1.0375
12098TIP3    H257710   4.064   1.970  15.450 -0.3852  0.5600 -1.6269
12099TIP3   OH257711   6.313   0.950  11.308 -0.2100 -0.7029 -0.3633
12099TIP3    H157712   6.254   0.912  11.243 -2.0772  0.1531  0.7346
12099TIP3    H257713   6.360   1.019  11.260 -1.0042 -0.5785 -0.9828
12100TIP3   OH257714   4.288   6.098   6.322 -0.0733 -0.5715 -0.2839
12100TIP3    H157715   4.219   6.052   6.370 -0.1081 -0.5849 -0.3474
12100TIP3    H257716   4.298   6.181   6.369  1.1023 -1.2893  0.8243
12101TIP3   OH257717   3.273   6.751   0.355  0.1064  0.4630  0.0700
12101TIP3    H157718   3.240   6.699   0.282  1.0919 -1.3297  0.8378
12101TIP3    H257719   3.207   6.743   0.424  0.4591 -0.1756  0.3444
12102TIP3   OH257720   6.502   3.233  12.604 -0.2431 -1.0511 -0.6509
12102TIP3    H157721   6.529   3.262  12.517 -1.5866 -1.8352 -1.3708
12102TIP3    H257722   6.571   3.173  12.632  1.9020  1.6918  0.3111
12103TIP3   OH257723   2.202   2.602   2.813  0.7869 -0.2878 -0.2474
12103TIP3    H157724   2.274   2.614   2.874 -0.8517  1.8424  1.4425
12103TIP3    H257725   2.159   2.522   2.843  0.3178  0.4447  1.1440
12104TIP3   OH257726   5.046   4.957  17.023  0.0941  0.8871  0.0964
12104TIP3    H157727   5.004   4.890  16.969  0.1351  1.7239 -1.0248
12104TIP3    H257728   4.974   5.008  17.058  0.1033  2.0403 -1.4544
12105TIP3   OH257729   2.509   2.128   3.953  0.1702 -0.1653  0.3085
12105TIP3    H157730   2.446   2.194   3.926 -0.2694 -0.6933  0.0221
12105TIP3    H257731   2.517   2.140   4.048 -0.1301  0.1000  0.3016
12106TIP3   OH257732   4.021   2.016  15.038  0.1948  0.1526 -0.0163
12106TIP3    H157733   4.039   2.083  14.971  2.4688 -0.4335 -0.0824
12106TIP3    H257734   4.108   1.988  15.067 -0.7358 -0.9850  1.8259
12107TIP3   OH257735   4.235   1.407  16.787 -0.1605 -0.0654 -0.3196
12107TIP3    H157736   4.278   1.451  16.861  1.8250 -1.3285 -0.6627
12107TIP3    H257737   4.273   1.448  16.709 -0.1723 -0.6214 -0.6263
12108TIP3   OH257738   5.831   2.215  16.857 -0.0538 -0.1454  0.0817
12108TIP3    H157739   5.911   2.208  16.908  0.4366  0.7201 -0.5317
12108TIP3    H257740   5.843   2.153  16.785 -0.9331 -1.6892  1.2131
12109TIP3   OH257741   3.653   2.290   2.633  0.1995 -0.3781  0.1912
12109TIP3    H157742   3.566   2.263   2.663 -0.0098 -0.1398 -0.2002
12109TIP3    H257743   3.691   2.337   2.708 -0.1681 -0.1216  0.2146
12110TIP3   OH257744   2.553   2.765  14.651 -0.4349  0.3560 -0.0601
12110TIP3    H157745   2.468   2.786  14.690 -0.0969 -0.0578  0.9400
12110TIP3    H257746   2.617   2.805  14.711  0.0656  1.5191 -1.3250
12111TIP3   OH257747   2.292   4.048   6.057 -0.3609 -0.0377 -0.6251
12111TIP3    H157748   2.334   3.966   6.029 -1.0860 -0.3733 -0.7554
12111TIP3    H257749   2.214   4.055   6.002 -0.3988  0.6558 -0.4929
12112TIP3   OH257750   5.189   6.396  16.576 -0.4796  0.0461 -0.0526
12112TIP3    H157751   5.267   6.385  16.521 -0.2078 -0.7719  0.4720
12112TIP3    H257752   5.148   6.476  16.544  1.2756  1.2197  0.4839
12113TIP3   OH257753   3.196   5.334   2.278 -0.6403  0.3867  0.1319
12113TIP3    H157754   3.105   5.308   2.295 -1.2395  2.6659  0.7960
12113TIP3    H257755   3.192   5.381   2.194  0.5916 -2.3771 -1.5953
12114TIP3   OH257756   4.317   5.186   0.856 -0.1914  0.3863 -0.7626
12114TIP3    H157757   4.302   5.276   0.886 -4.0487  1.4062 -4.6114
12114TIP3    H257758   4.371   5.196   0.777 -1.0373 -0.5376 -1.4880
12115TIP3   OH257759   2.186   3.011   4.001 -0.1936  0.5298 -0.7516
12115TIP3    H157760   2.101   2.986   4.037  0.1810 -2.0503 -1.4830
12115TIP3    H257761   2.245   3.011   4.076 -0.5066  0.6656 -0.5042
12116TIP3   OH257762   5.028   3.449   0.354 -0.0118 -0.3336 -0.4507
12116TIP3    H157763   5.116   3.464   0.320  0.0062  0.4370 -0.1026
12116TIP3    H257764   4.986   3.393   0.290  1.0133 -1.4449 -0.1897
12117TIP3   OH257765   0.991   1.109   1.405  0.5673 -0.6512  0.1809
12117TIP3    H157766   1.040   1.070   1.333  0.9765 -0.8397  0.5522
12117TIP3    H257767   1.007   1.051   1.480 -1.8191 -1.8134 -0.1340
12118TIP3   OH257768   5.179   5.974  16.311  0.1143  0.2338  0.0092
12118TIP3    H157769   5.258   6.004  16.355  0.8778 -2.0294  0.3048
12118TIP3    H257770   5.154   5.894  16.358 -2.0866  0.6035 -0.3909
12119TIP3   OH257771   4.710   1.663  15.126 -0.4906 -0.5737 -0.0510
12119TIP3    H157772   4.785   1.650  15.067 -2.2794  0.2187 -2.6778
12119TIP3    H257773   4.666   1.579  15.129  1.4140 -1.6430  3.1182
12120TIP3   OH257774   3.359   3.762  14.409 -0.4772  0.2500 -0.1584
12120TIP3    H157775   3.418   3.705  14.360  0.2667  0.7510  0.1273
12120TIP3    H257776   3.363   3.846  14.363 -3.2980 -0.4475 -1.9357
12121TIP3   OH257777   6.147   0.154  12.092  0.0657  0.1636  0.0268
12121TIP3    H157778   6.221   0.215  12.085  0.3326 -0.1055  0.4833
12121TIP3    H257779   6.134   0.123  12.002 -0.7285  1.6413 -0.4073
12122TIP3   OH257780   2.072   0.417  14.554 -0.0326  0.3097 -0.3481
12122TIP3    H157781   2.148   0.390  14.502  0.5067  1.3174 -0.1147
12122TIP3    H257782   2.021   0.472  14.495  0.1066  0.7069 -0.1022
12123TIP3   OH257783   3.124   1.927  11.448 -0.7102  0.3940 -0.0945
12123TIP3    H157784   3.149   1.924  11.540 -1.7952 -1.3287  0.1816
12123TIP3    H257785   3.194   1.881  11.402 -0.2202  1.1642 -0.1375
12124TIP3   OH257786   5.193   6.643  10.664 -0.1339 -0.3966  0.6605
12124TIP3    H157787   5.116   6.698  10.656  0.5874  0.6408  0.5563
12124TIP3    H257788   5.259   6.686  10.608  0.1050 -2.0205 -0.3494
12125TIP3   OH257789   4.535   0.136   0.980 -0.5594  0.3251  0.3983
12125TIP3    H157790   4.544   0.074   1.052 -1.0158 -1.4795 -1.0197
12125TIP3    H257791   4.451   0.179   0.995 -0.6616 -0.0506  0.9296
12126TIP3   OH257792   4.932   3.981  13.059 -0.1051 -0.4841  0.1976
12126TIP3    H157793   4.932   4.015  12.969 -1.0582 -1.4062 -0.1693
12126TIP3    H257794   4.942   3.886  13.048 -1.4452 -0.7306  1.0025
12127TIP3   OH257795   1.039   3.271  10.950 -0.0351  0.3853  0.0195
12127TIP3    H157796   1.086   3.188  10.953  1.4198  1.1233 -0.8085
12127TIP3    H257797   0.973   3.259  10.882 -1.0169 -0.6359  1.1177
12128TIP3   OH257798   6.503   1.088   6.821 -0.5368 -0.1348 -0.4413
12128TIP3    H157799   6.562   1.093   6.746 -2.6338  0.5729 -2.1447
12128TIP3    H257800   6.561   1.092   6.897  1.5544  1.1665 -1.9800
12129TIP3   OH257801   6.295   5.430   3.052 -0.0651 -0.1626 -0.1224
12129TIP3    H157802   6.268   5.374   2.978 -0.3492  0.6786 -0.6679
12129TIP3    H257803   6.212   5.459   3.091  0.0763 -1.1520  0.9771
12130TIP3   OH257804   1.246   4.941  11.927 -0.4489  0.1821 -0.3270
12130TIP3    H157805   1.195   4.930  12.007 -0.1843  1.4216  0.0320
12130TIP3    H257806   1.181   4.937  11.857 -0.5638 -1.8984 -0.1584
12131TIP3   OH257807   1.596   2.675  14.498 -0.1692  0.3992  0.0800
12131TIP3    H157808   1.622   2.758  14.457 -1.9735  1.0351  0.1505
12131TIP3    H257809   1.561   2.622  14.427  1.0016 -0.3543  0.0303
12132TIP3   OH257810   2.211   4.114   2.999  0.7217  0.1672  0.2784
12132TIP3    H157811   2.223   4.117   3.094  0.4222 -1.9505  0.4310
12132TIP3    H257812   2.293   4.079   2.965 -0.1677 -1.8090  0.0682
12133TIP3   OH257813   0.691   3.712  14.936 -0.1798 -0.4398  0.4185
12133TIP3    H157814   0.759   3.756  14.885 -0.5531 -1.5259 -1.0800
12133TIP3    H257815   0.618   3.702  14.876 -0.9349 -1.0581  1.4125
12134TIP3   OH257816   1.709   5.706   5.317 -0.0747  0.1916  0.8773
12134TIP3    H157817   1.774   5.776   5.304  2.4812 -1.7382  2.2736
12134TIP3    H257818   1.687   5.713   5.410 -1.4455  0.4278  0.5449
12135TIP3   OH257819   3.284   1.645   0.547 -0.1374 -0.0513  0.3513
12135TIP3    H157820   3.238   1.562   0.538  0.4720 -0.2998 -0.6008
12135TIP3    H257821   3.369   1.621   0.585 -0.6682  0.3792  1.9021
12136TIP3   OH257822   0.366   1.773   6.064  0.3607  0.2629 -0.0043
12136TIP3    H157823   0.315   1.850   6.090 -1.9998 -0.9141 -0.8774
12136TIP3    H257824   0.368   1.719   6.143 -2.5825 -1.0831 -0.7005
12137TIP3   OH257825   5.000   0.973   4.381  0.2873  0.6557 -0.1564
12137TIP3    H157826   5.035   0.923   4.454 -0.3609 -0.2311 -0.4386
12137TIP3    H257827   5.051   0.943   4.305  1.0811  1.7015 -0.0628
12138TIP3   OH257828   5.557   2.767  14.285  0.3545  0.0096 -0.0515
12138TIP3    H157829   5.642   2.811  14.279  1.0108 -1.2922 -0.5134
12138TIP3    H257830   5.576   2.682  14.324 -0.6984 -0.4059 -0.4028
12139TIP3   OH257831   1.632   3.061  12.269 -0.0491 -0.6208  0.0765
12139TIP3    H157832   1.583   2.989  12.231 -0.1301 -0.5677  0.0811
12139TIP3    H257833   1.572   3.100  12.332 -0.0855 -0.4021 -0.0959
12140TIP3   OH257834   4.852   2.911  16.905 -0.1890 -0.4120  0.2520
12140TIP3    H157835   4.795   2.934  16.832 -0.5343  0.5317  0.8170
12140TIP3    H257836   4.811   2.949  16.982  1.6370  1.0616  0.5697
12141TIP3   OH257837   2.348   3.181   6.504  0.0162 -0.4344 -0.2601
12141TIP3    H157838   2.331   3.268   6.470  1.3910  0.4533  1.1842
12141TIP3    H257839   2.440   3.182   6.527 -0.2918 -1.7735  1.1835
12142TIP3   OH257840   5.634   3.798  16.999  0.6031  0.1718  0.1568
12142TIP3    H157841   5.709   3.822  16.945 -0.2345 -1.2105 -1.7679
12142TIP3    H257842   5.644   3.703  17.013 -0.2417  0.1526  0.7393
12143TIP3   OH257843   2.096   4.920   1.284 -0.0964  0.0813 -0.1609
12143TIP3    H157844   2.119   5.011   1.269 -0.2799  0.0669 -0.5373
12143TIP3    H257845   2.009   4.923   1.324  0.1407  0.0930  0.3702
12144TIP3   OH257846   4.080   6.697   6.128  0.0539  0.0619 -0.1113
12144TIP3    H157847   4.032   6.629   6.174 -0.0493  0.7825  0.8706
12144TIP3    H257848   4.061   6.777   6.176  1.9010  0.4421  0.0809
12145TIP3   OH257849   3.089   5.929  12.012 -0.2358 -0.0838 -0.5572
12145TIP3    H157850   3.174   5.915  11.969  0.3841 -0.3586  0.7231
12145TIP3    H257851   3.029   5.869  11.967  0.4451 -0.5140 -0.9064
12146TIP3   OH257852   3.578   0.312   4.199  0.0719  0.4598  0.1878
12146TIP3    H157853   3.617   0.228   4.174  0.5032 -0.1836  2.7242
12146TIP3    H257854   3.613   0.374   4.135 -0.5163 -1.2782 -1.9745
12147TIP3   OH257855   6.115   3.639  16.967  0.5405  0.2176 -0.2675
12147TIP3    H157856   6.209   3.640  16.950  1.2061 -1.3994  2.5763
12147TIP3    H257857   6.087   3.550  16.946 -0.1038  0.3393  0.0193
12148TIP3   OH257858   3.063   5.119   3.997 -0.2717 -0.1960  0.2259
12148TIP3    H157859   2.997   5.146   3.933 -1.1934 -0.3611  1.0825
12148TIP3    H257860   3.015   5.066   4.061  1.1399 -2.3266 -0.3904
12149TIP3   OH257861   3.117   0.331   4.305 -0.0702  0.4823  0.3407
12149TIP3    H157862   3.091   0.366   4.220  3.2626 -1.4577 -1.6703
12149TIP3    H257863   3.050   0.265   4.324  0.0022 -0.2619 -1.6852
12150TIP3   OH257864   0.993   5.282   5.148 -0.0794 -0.5379 -0.0514
12150TIP3    H157865   0.997   5.334   5.229 -2.9042 -1.1290  0.6051
12150TIP3    H257866   1.041   5.202   5.168 -0.0517 -0.3245  0.7700
12151TIP3   OH257867   2.564   4.106  16.957  0.0428  1.0338 -0.5794
12151TIP3    H157868   2.657   4.116  16.939  1.6842 -2.3163  3.9880
12151TIP3    H257869   2.537   4.031  16.905  0.5618  0.6079 -0.2421
12152TIP3   OH257870   4.908   4.847   3.816 -0.0776  0.3236  0.2264
12152TIP3    H157871   4.982   4.901   3.789 -0.6344  1.2673  0.5339
12152TIP3    H257872   4.833   4.884   3.771 -0.1891 -1.4894 -1.1904
12153TIP3   OH257873   3.361   5.112  15.511  0.0555  0.0277 -0.0404
12153TIP3    H157874   3.287   5.116  15.451  0.7149  2.4827 -0.8182
12153TIP3    H257875   3.366   5.200  15.549  0.9632 -0.8516  2.0173
12154TIP3   OH257876   4.915   1.104  14.951 -0.3382  0.5773 -0.6344
12154TIP3    H157877   4.902   1.011  14.968 -0.1036  0.9767  2.5024
12154TIP3    H257878   4.865   1.148  15.020  0.5272  2.7206 -1.2776
12155TIP3   OH257879   0.824   5.898  15.130  0.2501 -0.7958 -0.0914
12155TIP3    H157880   0.746   5.850  15.103 -1.0297  1.6043 -1.0080
12155TIP3    H257881   0.820   5.901  15.225  0.5149 -2.6381  0.0105
12156TIP3   OH257882   6.672   0.529  10.896 -0.2265 -0.4069 -0.1870
12156TIP3    H157883   6.582   0.517  10.925 -0.9314 -0.1093 -2.1185
12156TIP3    H257884   6.723   0.470  10.952 -1.6090 -0.6528  0.8712
12157TIP3   OH257885   0.609   2.382   0.863 -0.0663  0.1688  0.4243
12157TIP3    H157886   0.673   2.334   0.810  1.6098  2.0668  0.5980
12157TIP3    H257887   0.605   2.333   0.945  0.7572 -0.3186  0.1921
12158TIP3   OH257888   0.924   4.252   2.316  0.0206  0.2290 -0.3141
12158TIP3    H157889   0.852   4.191   2.331 -0.2895  0.8400  0.8156
12158TIP3    H257890   0.909   4.286   2.228 -0.4533 -0.4536 -0.5074
12159TIP3   OH257891   2.995   2.400   6.472  0.3989  0.2985 -0.0952
12159TIP3    H157892   3.032   2.325   6.426 -1.6001 -0.5383 -0.4620
12159TIP3    H257893   3.058   2.470   6.459  2.2023 -1.2383  0.0490
12160TIP3   OH257894   4.765   4.818   2.618 -0.1685 -0.4832 -0.4859
12160TIP3    H157895   4.808   4.840   2.700  0.9571 -1.3931 -0.8051
12160TIP3    H257896   4.760   4.900   2.569 -0.7786  0.0483  0.4404
12161TIP3   OH257897   4.465   0.906  13.194 -0.5418 -0.4849 -0.1870
12161TIP3    H157898   4.370   0.900  13.203 -0.4325 -1.9192  0.1869
12161TIP3    H257899   4.499   0.838  13.253  0.7550  0.6868  0.4739
12162TIP3   OH257900   5.640   2.886   3.921 -0.1570 -0.1848 -0.8374
12162TIP3    H157901   5.711   2.826   3.900  0.0535  0.1742 -1.1673
12162TIP3    H257902   5.679   2.950   3.981  0.1094  0.6407 -1.8447
12163TIP3   OH257903   1.565   4.426  15.697  0.3284 -0.2130  0.2481
12163TIP3    H157904   1.604   4.498  15.647 -1.7628 -0.2306 -1.5740
12163TIP3    H257905   1.515   4.469  15.767  2.1618 -0.1306  1.5790
12164TIP3   OH257906   0.884   6.011   2.240 -0.5261 -0.3300  0.4196
12164TIP3    H157907   0.912   6.089   2.288  0.5938 -1.7193  2.1533
12164TIP3    H257908   0.801   5.987   2.280 -0.7036 -0.2438  0.1117
12165TIP3   OH257909   2.951   1.421  11.539  0.5579 -1.2366  0.2738
12165TIP3    H157910   3.034   1.415  11.491  0.2773 -0.5278 -0.2984
12165TIP3    H257911   2.884   1.414  11.472  0.1599 -0.7434  0.6183
12166TIP3   OH257912   5.646   3.578  14.562  0.3262 -0.4152 -0.5654
12166TIP3    H157913   5.688   3.654  14.522 -0.7165  0.0922 -0.7120
12166TIP3    H257914   5.641   3.513  14.492 -2.0829  0.6992 -1.5133
12167TIP3   OH257915   4.204   4.059  11.992 -0.4456  0.0039 -0.1743
12167TIP3    H157916   4.298   4.043  12.003 -0.4814 -0.9860 -1.1649
12167TIP3    H257917   4.185   4.130  12.054  1.3510  1.6080 -1.3121
12168TIP3   OH257918   4.547   1.292   6.632  0.2479  0.5393  0.1507
12168TIP3    H157919   4.568   1.385   6.622  0.0048  0.6293  0.4936
12168TIP3    H257920   4.581   1.268   6.718  1.3811  0.0131 -0.4084
12169TIP3   OH257921   1.811   3.608  12.654 -0.1625  0.0534 -0.1239
12169TIP3    H157922   1.867   3.550  12.706  0.4630  0.1476 -0.6753
12169TIP3    H257923   1.847   3.602  12.565 -0.0761  1.2830 -0.1946
12170TIP3   OH257924   6.012   6.137   1.424 -0.0200 -0.6091  0.3258
12170TIP3    H157925   6.054   6.088   1.495 -0.5242 -1.0771  0.3095
12170TIP3    H257926   6.004   6.074   1.352  0.0086 -0.2875  0.0394
12171TIP3   OH257927   4.077   2.139  11.743  0.0239 -0.3633 -0.0444
12171TIP3    H157928   4.133   2.076  11.697  0.5076 -0.9733  1.3341
12171TIP3    H257929   3.988   2.112  11.721  0.2391 -0.9724 -0.2095
12172TIP3   OH257930   5.473   1.818   4.366  0.3569 -0.1354  0.5081
12172TIP3    H157931   5.460   1.764   4.444 -1.3263 -1.0227 -0.3306
12172TIP3    H257932   5.453   1.907   4.395  0.3076 -0.3716  1.2211
12173TIP3   OH257933   5.785   4.511  13.909  0.5576 -0.2574  0.6241
12173TIP3    H157934   5.873   4.546  13.923  0.7324 -0.1091 -0.7065
12173TIP3    H257935   5.797   4.440  13.846 -0.3748  0.3903 -0.3290
12174TIP3   OH257936   3.499   6.144  15.031 -0.0559 -0.1722  0.1766
12174TIP3    H157937   3.532   6.056  15.048 -1.2138 -0.7322 -0.3836
12174TIP3    H257938   3.577   6.195  15.008  0.4021 -1.5571 -1.5774
12175TIP3   OH257939   1.789   1.230  11.389  0.3348  0.1956 -0.5352
12175TIP3    H157940   1.866   1.179  11.413  0.4921  0.3850 -0.6267
12175TIP3    H257941   1.715   1.170  11.397  0.3786  0.2607  0.4417
12176TIP3   OH257942   2.262   1.109  16.987 -0.5470  0.0022 -0.4894
12176TIP3    H157943   2.270   1.049  16.913 -2.6906  0.5292 -1.2077
12176TIP3    H257944   2.201   1.066  17.047  0.3127  0.0867  0.4679
12177TIP3   OH257945   2.337   0.406   3.895 -0.4785  0.2348 -0.5045
12177TIP3    H157946   2.379   0.320   3.889 -1.2567 -0.0594 -2.7814
12177TIP3    H257947   2.402   0.461   3.939  0.8659 -1.0316 -0.8256
12178TIP3   OH257948   5.577   3.526  13.183 -0.1412  0.1948 -0.6683
12178TIP3    H157949   5.605   3.587  13.114  0.1656  2.6929  1.5154
12178TIP3    H257950   5.656   3.508  13.233 -0.3719 -1.5571 -0.8508
12179TIP3   OH257951   0.101   0.062   0.010  0.9819 -0.3057  0.0293
12179TIP3    H157952   0.136   0.106  -0.068 -0.3834  1.0285  0.1358
12179TIP3    H257953   0.097  -0.030  -0.014  1.6241 -0.0592 -1.0745
12180TIP3   OH257954   2.200   5.188  11.736 -0.1136  0.4618  0.0167
12180TIP3    H157955   2.265   5.256  11.754 -0.4803  0.7966  0.1126
12180TIP3    H257956   2.244   5.106  11.755  0.1028  0.7130  0.6363
12181TIP3   OH257957   3.650   2.545  11.558 -0.2339 -0.0953  0.9981
12181TIP3    H157958   3.599   2.607  11.610 -0.7910  1.0044 -0.7539
12181TIP3    H257959   3.741   2.559  11.586 -0.6806 -1.1386  3.2090
12182TIP3   OH257960   3.121   0.028   5.708  0.4676 -1.0451  0.3855
12182TIP3    H157961   3.170   0.054   5.630  1.7117  0.3988  1.5603
12182TIP3    H257962   3.032   0.010   5.677  0.1432  2.2817 -0.9889
12183TIP3   OH257963   6.411   3.529   3.758 -0.5337 -0.2317 -0.6222
12183TIP3    H157964   6.411   3.609   3.706 -2.0290  0.9276  1.0218
12183TIP3    H257965   6.339   3.541   3.821  1.8608 -0.9744  2.5151
12184TIP3   OH257966   6.077   4.471   1.139  0.1373  0.1596 -0.5189
12184TIP3    H157967   6.172   4.464   1.142  0.1019 -0.7014 -1.0777
12184TIP3    H257968   6.056   4.473   1.046 -0.3599  1.0655 -0.4068
12185TIP3   OH257969   2.429   6.028   6.137 -0.2479  0.1151  0.0161
12185TIP3    H157970   2.470   5.978   6.208 -0.2121 -0.9511 -0.7401
12185TIP3    H257971   2.335   6.025   6.157 -0.3747 -1.2920 -0.6338
12186TIP3   OH257972   5.002   2.940   4.250  1.2396  0.7120  0.1173
12186TIP3    H157973   5.005   2.858   4.200  0.1231  1.9953 -2.2081
12186TIP3    H257974   5.068   2.996   4.208  1.4586  1.2826  1.1833
12187TIP3   OH257975   3.465   2.056  11.425  0.2286  0.4113  0.2659
12187TIP3    H157976   3.449   2.147  11.452  1.3711  0.3468  1.2453
12187TIP3    H257977   3.383   2.029  11.384 -0.0415  1.9668 -0.2961
12188TIP3   OH257978   3.906   0.254   2.043  0.1948 -0.2218 -0.0188
12188TIP3    H157979   3.993   0.261   2.083  0.8542  1.2938 -1.5961
12188TIP3    H257980   3.863   0.337   2.063 -1.0522 -1.0876  1.0211
12189TIP3   OH257981   4.591   3.153  15.774 -0.3527 -0.2327  0.0679
12189TIP3    H157982   4.565   3.102  15.696 -0.0584 -1.7717  0.9300
12189TIP3    H257983   4.666   3.204  15.745 -0.1165 -0.9426 -0.6228
12190TIP3   OH257984   4.862   6.746   2.740 -0.5992 -0.1988  0.2931
12190TIP3    H157985   4.830   6.717   2.826 -0.6754 -0.4581  0.1783
12190TIP3    H257986   4.834   6.838   2.734 -2.2770 -0.7122 -0.2399
12191TIP3   OH257987   3.752   4.407   6.586  0.0781 -0.1802  0.5035
12191TIP3    H157988   3.790   4.320   6.575  0.9720  0.2216  0.4163
12191TIP3    H257989   3.681   4.410   6.521  2.1047  0.3318 -1.8508
12192TIP3   OH257990   0.227   0.468  10.812  1.0274  0.2434 -0.3490
12192TIP3    H157991   0.191   0.537  10.757  0.9296  0.2359 -0.2941
12192TIP3    H257992   0.153   0.409  10.828  0.8482  0.6675  0.4593
12193TIP3   OH257993   1.559   3.563   2.040  0.1056 -0.3157  0.5117
12193TIP3    H157994   1.471   3.600   2.053  0.5774  0.1463  2.8697
12193TIP3    H257995   1.545   3.488   1.982 -1.8020 -0.0367  0.5445
12194TIP3   OH257996   2.214   4.360  14.569 -1.0857 -0.3751 -0.4724
12194TIP3    H157997   2.153   4.344  14.642 -0.0462  1.7593  0.9774
12194TIP3    H257998   2.244   4.450  14.583  1.3513 -0.8920 -1.9185
12195TIP3   OH257999   5.391   4.710  16.139 -0.2350  0.4755  0.6728
12195TIP3    H158000   5.378   4.678  16.049  0.6363 -1.9393  1.3331
12195TIP3    H258001   5.390   4.805  16.131  0.8346  0.3387 -2.0486
12196TIP3   OH258002   3.775   2.567  14.015  0.2858  0.7675  0.1171
12196TIP3    H158003   3.690   2.568  13.970  0.5187 -0.9743 -0.4208
12196TIP3    H258004   3.820   2.645  13.981 -0.3909  0.6940 -1.0157
12197TIP3   OH258005   3.382   1.853   4.339  0.5950  0.1217  0.3134
12197TIP3    H158006   3.428   1.772   4.362 -0.0515 -0.4100 -0.2323
12197TIP3    H258007   3.437   1.893   4.271 -0.2226 -1.0087 -1.0504
12198TIP3   OH258008   6.647   4.318   0.598  0.1815  0.0596  0.3384
12198TIP3    H158009   6.607   4.232   0.589 -0.8062  0.5530 -0.2290
12198TIP3    H258010   6.574   4.379   0.588  0.8167  0.9549  1.0508
12199TIP3   OH258011   0.811   1.205  16.496  0.8962 -0.2578  0.6154
12199TIP3    H158012   0.870   1.220  16.422  1.8362 -1.4717  1.0958
12199TIP3    H258013   0.851   1.253  16.568 -0.5839  1.8200  0.1299
12200TIP3   OH258014   3.144   4.787   2.159 -1.0000 -0.3008 -0.0050
12200TIP3    H158015   3.050   4.774   2.151 -1.2062  1.0115  0.0335
12200TIP3    H258016   3.178   4.702   2.186 -2.1482 -0.8389 -0.2034
12201TIP3   OH258017   2.566   0.615  15.978  0.7248  0.1877  0.0752
12201TIP3    H158018   2.619   0.616  16.058  0.1583 -0.0096  0.4569
12201TIP3    H258019   2.563   0.707  15.951  2.6362  0.0292 -0.8870
12202TIP3   OH258020   0.798   4.863  13.916 -0.7599 -0.4755  0.4925
12202TIP3    H158021   0.708   4.842  13.941 -1.4975  0.3457 -1.3400
12202TIP3    H258022   0.789   4.924  13.843  1.2411 -1.7828 -0.9587
12203TIP3   OH258023   5.796   4.697  11.776  0.2593  0.0114  0.5022
12203TIP3    H158024   5.887   4.711  11.748  0.2523  0.5078  0.7189
12203TIP3    H258025   5.750   4.672  11.696  0.2081  1.5410  0.0165
12204TIP3   OH258026   4.553   2.988  15.993  0.0187  0.2155 -0.4691
12204TIP3    H158027   4.564   3.038  15.912  0.7038  0.0708 -0.4670
12204TIP3    H258028   4.506   3.048  16.052  0.3054  0.6401 -0.6669
12205TIP3   OH258029   4.082   3.165   0.691  0.2401  0.6537 -0.5227
12205TIP3    H158030   4.131   3.083   0.703 -2.5025 -1.0407 -0.0926
12205TIP3    H258031   4.096   3.213   0.773  0.9159  0.0527 -0.2732
12206TIP3   OH258032   4.594   6.603  17.312  0.4806  0.2711 -0.0651
12206TIP3    H158033   4.626   6.522  17.354  1.6203  0.3821 -0.6809
12206TIP3    H258034   4.571   6.577  17.223  1.6695  0.7633 -0.5449
12207TIP3   OH258035   3.143   3.458  15.709  0.4039 -0.1220  0.1216
12207TIP3    H158036   3.204   3.384  15.707  1.1242  0.4659 -1.5664
12207TIP3    H258037   3.062   3.424  15.670  0.4481 -0.2685  0.1587
12208TIP3   OH258038   6.422   3.406   0.505  0.4363 -0.1158  0.1935
12208TIP3    H158039   6.418   3.311   0.515 -1.7893 -0.1291 -0.3257
12208TIP3    H258040   6.346   3.439   0.552  0.5032  1.3045 -0.6336
12209TIP3   OH258041   1.920   6.204   3.293 -0.6586  0.1678  0.7613
12209TIP3    H158042   1.895   6.141   3.360  1.0651  0.1393  1.4438
12209TIP3    H258043   2.011   6.183   3.273 -0.6271  1.2526 -0.3597
12210TIP3   OH258044   1.593   2.316   2.728  0.0173  0.0649 -0.5251
12210TIP3    H158045   1.586   2.233   2.680 -2.3219  0.0265 -0.1995
12210TIP3    H258046   1.517   2.318   2.785  1.1288  1.5238  1.0132
12211TIP3   OH258047   3.399   6.549   4.834  0.0958  0.2011 -0.7225
12211TIP3    H158048   3.338   6.492   4.788 -1.7916  0.9677  0.7307
12211TIP3    H258049   3.350   6.629   4.852  1.7201  1.0919 -0.0315
12212TIP3   OH258050   3.368   5.581  13.941 -0.2326 -0.6237 -0.7274
12212TIP3    H158051   3.283   5.559  13.979 -0.1228 -1.8510 -1.1250
12212TIP3    H258052   3.428   5.586  14.015 -0.5980  0.0071 -0.4679
12213TIP3   OH258053   6.013   6.432  11.415 -0.3767  0.1786 -0.1103
12213TIP3    H158054   5.920   6.431  11.390 -0.1704  1.3183 -0.9809
12213TIP3    H258055   6.012   6.452  11.509 -1.0365 -1.0530  0.1814
12214TIP3   OH258056   1.520   5.325  12.789 -0.4089  0.1915  0.5902
12214TIP3    H158057   1.509   5.318  12.694  2.2458  3.5251 -0.1504
12214TIP3    H258058   1.449   5.271  12.825 -2.3010 -0.2418 -3.2356
12215TIP3   OH258059   2.797   6.675   3.848  0.7376  0.6470  0.1739
12215TIP3    H158060   2.740   6.737   3.803  0.4684 -0.6392 -1.3568
12215TIP3    H258061   2.774   6.590   3.810 -0.4382 -0.7903  3.6570
12216TIP3   OH258062   5.607   5.437   2.430 -0.2821 -0.2044  0.2659
12216TIP3    H158063   5.608   5.402   2.341 -1.4571  0.4400 -0.0289
12216TIP3    H258064   5.685   5.492   2.436  0.4917 -1.2609  0.0748
12217TIP3   OH258065   2.239   5.911  12.005 -0.8665 -0.1391  0.1688
12217TIP3    H158066   2.218   5.977  12.070  1.3105  0.0161  0.8103
12217TIP3    H258067   2.204   5.945  11.923  0.3383  1.9313  0.4516
12218TIP3   OH258068   2.215   5.811   0.770  0.3680 -0.0046 -0.4426
12218TIP3    H158069   2.232   5.727   0.727  3.0005 -0.1555  0.7373
12218TIP3    H258070   2.259   5.876   0.715  0.3220  0.3108 -0.1138
12219TIP3   OH258071   1.604   2.346  16.421 -0.1477 -0.4519  0.0307
12219TIP3    H158072   1.610   2.321  16.329 -1.3478  0.8496 -0.4455
12219TIP3    H258073   1.618   2.441  16.421  2.8870 -0.7753  1.5839
12220TIP3   OH258074   6.679   2.488  13.021 -0.1197  0.5113  0.1044
12220TIP3    H158075   6.608   2.550  13.032 -0.7053 -0.0533 -0.4411
12220TIP3    H258076   6.704   2.464  13.110  0.7351  2.1924  0.3718
12221TIP3   OH258077   3.302   1.077   2.757  0.3889 -0.9162 -0.1039
12221TIP3    H158078   3.257   1.031   2.829  0.1513 -1.3355 -0.5139
12221TIP3    H258079   3.386   1.032   2.749  0.7457 -0.3640  0.4236
12222TIP3   OH258080   2.109   2.170  17.127 -0.4708 -0.0787  0.4744
12222TIP3    H158081   2.091   2.218  17.208 -0.4569  0.1824  0.3255
12222TIP3    H258082   2.191   2.124  17.144 -0.8343 -0.5952  0.8537
12223TIP3   OH258083   6.426   2.517  12.518  0.6526  0.3799 -0.0049
12223TIP3    H158084   6.346   2.563  12.495  0.3911  0.3239  0.7720
12223TIP3    H258085   6.414   2.429  12.483  1.5177  1.0885 -2.2683
12224TIP3   OH258086   4.275   2.206   5.258 -0.4934  0.0935  0.2749
12224TIP3    H158087   4.308   2.296   5.263 -0.9271  0.2568  0.2635
12224TIP3    H258088   4.317   2.161   5.332  0.9735 -0.1230 -0.6482
12225TIP3   OH258089   4.863   1.193  16.320 -0.0577 -0.3615 -0.6333
12225TIP3    H158090   4.917   1.246  16.379  0.1788  0.2941 -1.4160
12225TIP3    H258091   4.870   1.238  16.235 -1.1781 -0.7357 -0.9320
12226TIP3   OH258092   4.475   4.288  14.832  0.1824  0.0785 -0.3681
12226TIP3    H158093   4.506   4.197  14.838 -0.1351 -0.0396 -0.4692
12226TIP3    H258094   4.422   4.300  14.911 -1.9875 -0.6946 -1.6092
12227TIP3   OH258095   5.432   1.252  16.757 -0.0041 -0.4693 -0.4976
12227TIP3    H158096   5.422   1.206  16.673  0.5177  1.0411 -1.4384
12227TIP3    H258097   5.500   1.204  16.803  0.9360 -0.3374 -1.7006
12228TIP3   OH258098   6.417   5.990  11.276 -0.5149  0.2267 -0.4960
12228TIP3    H158099   6.511   5.992  11.296 -0.5984  0.3178 -0.0975
12228TIP3    H258100   6.389   5.902  11.303 -0.9909  0.9463  1.5298
12229TIP3   OH258101   5.029   2.915  11.456 -0.2881 -0.0404  1.2991
12229TIP3    H158102   4.957   2.967  11.490 -1.4601 -0.8699  0.1798
12229TIP3    H258103   5.099   2.979  11.440 -1.4937  1.1404  0.4763
12230TIP3   OH258104   5.579   3.982   5.461 -0.1256 -0.4337 -0.2457
12230TIP3    H158105   5.533   4.053   5.416 -0.6850 -0.8360 -0.3194
12230TIP3    H258106   5.671   3.995   5.438 -0.1639  0.4987  0.0551
12231TIP3   OH258107   4.006   1.346   4.410 -0.0234 -0.3195 -0.5747
12231TIP3    H158108   3.914   1.333   4.387  0.2723 -0.9485 -1.4506
12231TIP3    H258109   4.039   1.257   4.423  0.4265 -0.0850 -0.1021
12232TIP3   OH258110   6.505   4.670  11.346  0.2774 -0.7555 -0.1709
12232TIP3    H158111   6.582   4.724  11.363  0.0471 -0.5615  0.2682
12232TIP3    H258112   6.475   4.697  11.260  0.6872 -0.8169 -0.3360
12233TIP3   OH258113   0.490   3.388  15.039  0.3817  0.0094  0.1605
12233TIP3    H158114   0.577   3.425  15.050  0.1529  0.2892  1.1235
12233TIP3    H258115   0.505   3.294  15.031  0.6496 -0.2029  2.5467
12234TIP3   OH258116   0.864   0.966  14.812  0.9476  0.3489  0.1510
12234TIP3    H158117   0.945   0.990  14.855  0.4211 -0.0944  1.4289
12234TIP3    H258118   0.852   0.873  14.832 -0.5064  0.7027  1.0639
12235TIP3   OH258119   6.159   5.002  16.688  0.0434  0.3752  0.5356
12235TIP3    H158120   6.173   4.980  16.595 -1.1291  1.2442  0.1260
12235TIP3    H258121   6.167   4.919  16.734  3.7755  0.3080  0.1263
12236TIP3   OH258122   5.973   3.706   2.681 -0.2875 -0.0438 -0.1479
12236TIP3    H158123   5.912   3.639   2.708 -2.2946  1.9424  0.5654
12236TIP3    H258124   6.029   3.720   2.757 -1.1844  0.4661  0.4343
12237TIP3   OH258125   3.871   3.972   1.342  0.3091 -0.2161  0.2453
12237TIP3    H158126   3.807   4.038   1.317  0.0186  0.0967  1.7411
12237TIP3    H258127   3.949   4.021   1.366  0.8213 -0.5482 -0.6865
12238TIP3   OH258128   6.193   1.600   3.226  0.3234 -0.4904 -0.8116
12238TIP3    H158129   6.154   1.613   3.139  1.0433 -0.8693 -1.2050
12238TIP3    H258130   6.185   1.506   3.242  0.1423 -0.4133 -0.4378
12239TIP3   OH258131   0.639   3.599  16.475 -0.3192  0.2026  0.0698
12239TIP3    H158132   0.601   3.519  16.511 -2.3662  0.6163 -1.0588
12239TIP3    H258133   0.644   3.659  16.549 -1.0754 -0.1500  0.4113
12240TIP3   OH258134   4.038   1.465  12.187  0.0010  0.3004  0.2282
12240TIP3    H158135   4.127   1.444  12.216  0.6087  5.0964  2.8970
12240TIP3    H258136   4.049   1.537  12.126 -2.0737 -1.7988 -2.9443
12241TIP3   OH258137   1.560   2.012  15.725 -0.0568  0.0136 -0.2141
12241TIP3    H158138   1.527   1.975  15.807  1.2097 -0.8506 -0.0559
12241TIP3    H258139   1.489   2.066  15.693 -1.5652 -1.6463  0.1483
12242TIP3   OH258140   6.350   5.017   1.175  0.2141  0.2987  0.0029
12242TIP3    H158141   6.292   4.942   1.189 -0.8358  1.4346  2.3164
12242TIP3    H258142   6.291   5.086   1.146  1.1327  0.3490 -1.8562
12243TIP3   OH258143   5.147   0.804  15.393  0.0275 -0.0648  0.4500
12243TIP3    H158144   5.141   0.712  15.367  0.5008  0.1209 -0.3234
12243TIP3    H258145   5.240   0.824  15.390 -0.1909  0.9071 -1.0862
12244TIP3   OH258146   2.288   3.451   3.718  0.0434 -0.7595 -0.3149
12244TIP3    H158147   2.235   3.405   3.783  1.7957 -0.3340  1.5198
12244TIP3    H258148   2.311   3.534   3.760  2.2982 -1.0210 -0.8984
12245TIP3   OH258149   3.731   1.504  17.150 -0.5534  0.4846  0.0951
12245TIP3    H158150   3.744   1.495  17.056 -2.5433 -1.3672 -0.0683
12245TIP3    H258151   3.648   1.551  17.159 -0.0780  1.1982  0.9631
12246TIP3   OH258152   0.377   4.350   0.247 -0.8158 -0.0476 -0.1815
12246TIP3    H158153   0.340   4.433   0.219 -0.7110  0.0083 -0.1537
12246TIP3    H258154   0.409   4.366   0.336  2.4518  0.9278 -1.3837
12247TIP3   OH258155   2.887   5.462   5.727  0.1296 -0.3839  0.6821
12247TIP3    H158156   2.940   5.389   5.694 -1.0702 -0.8801 -0.2472
12247TIP3    H258157   2.877   5.520   5.651  1.6169  1.1277  1.5830
12248TIP3   OH258158   3.244   5.734   4.106  0.0095  0.1670 -0.0494
12248TIP3    H158159   3.241   5.654   4.054 -2.2529  0.9199 -1.2004
12248TIP3    H258160   3.223   5.706   4.195 -0.1037 -0.5922 -0.3076
12249TIP3   OH258161   6.037   2.574  16.973  0.1345 -0.5346 -0.4755
12249TIP3    H158162   5.953   2.529  16.984 -0.4319  0.2952 -1.1956
12249TIP3    H258163   6.032   2.613  16.885  1.2929 -0.5044 -0.5424
12250TIP3   OH258164   0.376   3.721  16.899  0.0883  0.2215 -1.1737
12250TIP3    H158165   0.332   3.659  16.957  0.6002 -0.5831 -1.6112
12250TIP3    H258166   0.311   3.789  16.882 -0.8958 -0.7786 -1.5760
12251TIP3   OH258167   6.052   6.092   1.776 -0.1539  0.6356  0.2301
12251TIP3    H158168   6.090   6.167   1.822 -2.4104  2.8286 -1.2344
12251TIP3    H258169   6.124   6.029   1.771  1.3650  1.9570  3.0008
12252TIP3   OH258170   2.299   6.472  12.563  0.2851 -0.1259 -0.1583
12252TIP3    H158171   2.367   6.519  12.514  0.0634 -1.0304 -1.3872
12252TIP3    H258172   2.345   6.433  12.637  1.1534 -0.8454 -1.0541
12253TIP3   OH258173   5.876   6.569  12.942 -0.0783  0.1340  0.5916
12253TIP3    H158174   5.965   6.534  12.930  0.2558  0.2178  2.4674
12253TIP3    H258175   5.829   6.544  12.863  1.3977 -0.6092 -0.0911
12254TIP3   OH258176   1.479   0.509  10.994 -0.3542  0.1210  0.2162
12254TIP3    H158177   1.431   0.445  10.941  0.4863 -0.6438  0.3641
12254TIP3    H258178   1.513   0.459  11.068  0.0575  0.8039  0.4966
12255TIP3   OH258179   0.874   5.422  16.101  0.0020 -0.2317 -0.1826
12255TIP3    H158180   0.839   5.454  16.185  0.7794  0.5157 -0.1287
12255TIP3    H258181   0.894   5.330  16.117 -1.9037 -0.6969 -0.2161
12256TIP3   OH258182   5.012   3.378   2.964  0.4998 -0.4192  0.5099
12256TIP3    H158183   5.043   3.439   2.897  0.6373 -1.0393 -0.0050
12256TIP3    H258184   4.979   3.434   3.034 -1.4818  0.2944 -0.8930
12257TIP3   OH258185   4.621   4.604  11.565 -1.0537 -0.2081 -0.5969
12257TIP3    H158186   4.582   4.525  11.527 -3.7193  0.6522  0.1837
12257TIP3    H258187   4.645   4.578  11.654 -3.3033  0.1877  0.1744
12258TIP3   OH258188   0.924   2.422  13.789  0.0243 -0.2967  0.2816
12258TIP3    H158189   1.000   2.439  13.733  0.1487 -0.2312  0.4672
12258TIP3    H258190   0.941   2.473  13.868  1.3104 -2.6296  1.6436
12259TIP3   OH258191   3.835   0.926   4.636 -0.2700  0.4976  0.3323
12259TIP3    H158192   3.779   0.850   4.618 -1.6971  0.7500  3.0351
12259TIP3    H258193   3.775   1.000   4.637  0.7570  1.3572 -0.2170
12260TIP3   OH258194   1.206   4.405  11.207 -0.4688  0.4968 -0.0095
12260TIP3    H158195   1.192   4.342  11.136  0.4699  0.7290 -0.4190
12260TIP3    H258196   1.143   4.380  11.274 -0.6622 -0.3741 -0.4981
12261TIP3   OH258197   5.457   2.950  12.117  0.4273 -0.0821  0.4827
12261TIP3    H158198   5.378   2.914  12.155  0.6699 -1.8238 -0.5515
12261TIP3    H258199   5.527   2.893  12.148  0.9534  0.0402 -0.4335
12262TIP3   OH258200   6.589   4.167   1.241  0.5540 -0.2660  0.1447
12262TIP3    H158201   6.576   4.125   1.156 -3.0622  0.3501  0.2146
12262TIP3    H258202   6.585   4.095   1.305 -0.3400 -0.3888 -0.0374
12263TIP3   OH258203   2.799   5.200   0.476 -0.0162  0.8128  0.0887
12263TIP3    H158204   2.740   5.261   0.431 -1.1522  1.0342  1.7926
12263TIP3    H258205   2.771   5.113   0.446 -0.2212  0.9861 -0.2345
12264TIP3   OH258206   6.672   1.757  12.747 -0.0673  0.0096  0.2597
12264TIP3    H158207   6.620   1.702  12.688 -1.4143  0.6422  0.8087
12264TIP3    H258208   6.738   1.797  12.691 -0.6368 -0.2472 -0.6148
12265TIP3   OH258209   4.652   3.192  12.226  0.1673 -0.1048 -0.3721
12265TIP3    H158210   4.645   3.144  12.309  0.9967 -1.0728 -0.8341
12265TIP3    H258211   4.567   3.235  12.216  0.6012  1.3586  1.7479
12266TIP3   OH258212   4.450   0.283  13.488  0.4959  0.1063 -0.0086
12266TIP3    H158213   4.364   0.254  13.518  0.1218  2.1806  1.1015
12266TIP3    H258214   4.442   0.287  13.393 -0.3328 -0.5870  0.0175
12267TIP3   OH258215   1.103   1.495  14.143  0.0367 -0.6950  0.4713
12267TIP3    H158216   1.120   1.411  14.185 -1.1990 -1.7626 -1.0496
12267TIP3    H258217   1.188   1.521  14.107  0.8961 -0.2134  2.7177
12268TIP3   OH258218   0.429   5.927  14.470  0.3532  0.3335  0.1808
12268TIP3    H158219   0.459   5.853  14.524  0.0319  0.0041 -0.0832
12268TIP3    H258220   0.474   5.915  14.387  0.7814  0.7920  0.3437
12269TIP3   OH258221   3.530   2.655   2.855 -0.2749 -0.4187 -0.1814
12269TIP3    H158222   3.505   2.597   2.783  0.1356  0.4471 -1.0467
12269TIP3    H258223   3.570   2.731   2.812 -0.4858  0.3514  0.9380
12270TIP3   OH258224   0.298   2.017   6.096 -0.3453  0.2547  0.2868
12270TIP3    H158225   0.253   2.101   6.103 -0.5719  0.1895 -0.3283
12270TIP3    H258226   0.379   2.038   6.049 -0.8622 -0.0279 -0.7556
12271TIP3   OH258227   1.300   1.353  11.102  0.1346  0.4464 -0.0709
12271TIP3    H158228   1.241   1.362  11.027  1.6866  0.0156 -1.4145
12271TIP3    H258229   1.288   1.263  11.131  1.6077 -0.3580 -1.7347
12272TIP3   OH258230   6.497   1.634   1.860 -0.2161  0.1300 -0.1874
12272TIP3    H158231   6.415   1.631   1.811 -0.2254 -0.3044 -0.1498
12272TIP3    H258232   6.480   1.696   1.931 -0.6844 -0.3471  0.1264
12273TIP3   OH258233   2.881   1.111   1.800 -0.4361  0.1707 -0.2591
12273TIP3    H158234   2.790   1.081   1.810 -0.2247 -0.5372 -0.4321
12273TIP3    H258235   2.887   1.187   1.858 -0.8103 -0.4755  0.6504
12274TIP3   OH258236   1.931   3.110   1.572  0.3891  0.0150 -0.4259
12274TIP3    H158237   1.873   3.117   1.648  1.1332  0.8120  0.0835
12274TIP3    H258238   1.990   3.185   1.579  1.5961 -0.8620 -0.8503
12275TIP3   OH258239   2.356   3.356   3.185  0.3235  0.3000  0.1231
12275TIP3    H158240   2.369   3.419   3.255 -0.0973 -1.1163  1.5320
12275TIP3    H258241   2.262   3.335   3.189  0.2713  0.2820 -0.9399
12276TIP3   OH258242   2.934   1.389  15.466 -0.3713  0.4576 -0.5848
12276TIP3    H158243   2.887   1.472  15.468  0.1128  0.7317 -0.2200
12276TIP3    H258244   2.884   1.331  15.523 -0.1586  0.8120 -0.0283
12277TIP3   OH258245   0.559   4.034   5.797  0.5231  0.0405 -0.2188
12277TIP3    H158246   0.483   4.081   5.762  0.4259  0.4017  0.4704
12277TIP3    H258247   0.623   4.036   5.726 -0.1755 -0.4203 -0.8714
12278TIP3   OH258248   5.214   2.102  11.901  0.1127  0.0498 -0.2977
12278TIP3    H158249   5.134   2.153  11.885 -0.9404 -1.2203  0.6555
12278TIP3    H258250   5.230   2.113  11.995  1.1298  0.3667 -0.4995
12279TIP3   OH258251   2.086   5.822   3.383  0.0500 -0.4212 -0.4063
12279TIP3    H158252   2.021   5.860   3.442  1.5799 -0.0480  1.1251
12279TIP3    H258253   2.137   5.763   3.437  1.4929 -0.1012 -1.3440
12280TIP3   OH258254   2.188   5.004   2.776  0.0734  1.0057 -0.1834
12280TIP3    H158255   2.262   5.037   2.828  0.9384 -0.1488 -0.6412
12280TIP3    H258256   2.196   4.909   2.780 -0.0790  0.8734 -2.0726
12281TIP3   OH258257   0.923   6.570  16.065  0.1037  0.1802  0.2455
12281TIP3    H158258   0.833   6.599  16.052 -0.0227  0.6332  1.9851
12281TIP3    H258259   0.973   6.651  16.072  0.4132 -0.0614  0.8266
12282TIP3   OH258260   3.218   2.560   6.482 -0.7208  0.3757  0.5143
12282TIP3    H158261   3.223   2.652   6.508  1.6719  0.1763  1.0013
12282TIP3    H258262   3.217   2.512   6.564  0.4664 -0.0728  0.2884
12283TIP3   OH258263   1.342   0.587  12.790  0.0064 -0.4979  0.3089
12283TIP3    H158264   1.294   0.521  12.740 -0.8086 -0.6279  1.2327
12283TIP3    H258265   1.309   0.670  12.756 -0.1277 -0.5770  0.2414
12284TIP3   OH258266   4.536   6.637   3.578 -0.2835 -0.1400  0.7406
12284TIP3    H158267   4.489   6.636   3.661 -2.9494 -0.2828 -0.6367
12284TIP3    H258268   4.487   6.700   3.525 -0.4327 -2.0796 -1.6000
12285TIP3   OH258269   0.172   6.305   1.461 -1.3282  0.2607 -0.4238
12285TIP3    H158270   0.099   6.324   1.402 -4.1215 -2.3720  1.7997
12285TIP3    H258271   0.140   6.332   1.547  1.5936  1.6846  0.3356
12286TIP3   OH258272   5.494   3.720   6.048  0.2705 -0.1523 -0.3621
12286TIP3    H158273   5.404   3.693   6.030  0.0990 -0.0543  0.3255
12286TIP3    H258274   5.518   3.673   6.128 -0.4689  2.5595  1.6032
12287TIP3   OH258275   1.298   1.666  10.238  0.0630  0.4512  0.8396
12287TIP3    H158276   1.241   1.679  10.314  2.0342 -0.2530  2.5375
12287TIP3    H258277   1.338   1.581  10.253 -0.5722 -0.3922 -1.7972
12288TIP3   OH258278   5.924   6.238  15.238 -0.1687 -0.3132  0.5088
12288TIP3    H158279   5.846   6.188  15.212 -0.1893 -0.6146  1.1204
12288TIP3    H258280   5.892   6.299  15.305  0.2324 -0.9144  1.2740
12289TIP3   OH258281   2.868   1.872   2.340  0.1184  0.0199  0.3424
12289TIP3    H158282   2.832   1.948   2.386 -1.2525 -0.7004  0.4957
12289TIP3    H258283   2.931   1.835   2.401  0.2275  0.5792  0.5780
12290TIP3   OH258284   5.991   1.595   5.520 -0.7233  0.6102 -0.0385
12290TIP3    H158285   5.959   1.683   5.503 -1.8562  0.1168 -0.5808
12290TIP3    H258286   6.077   1.592   5.478 -0.5613  1.5230  0.2073
12291TIP3   OH258287   4.353   5.463   3.837  0.3386  0.0258 -0.5051
12291TIP3    H158288   4.422   5.494   3.778  1.6790 -2.1802 -0.2186
12291TIP3    H258289   4.313   5.389   3.791  0.7080 -1.0793  0.8610
12292TIP3   OH258290   4.938   1.149   5.818  0.3375 -0.4482 -0.0927
12292TIP3    H158291   4.995   1.100   5.759  1.3893  0.3033  0.2631
12292TIP3    H258292   4.872   1.189   5.761  0.4430 -0.9545 -0.5745
12293TIP3   OH258293   6.636   0.918   0.611  0.1195  0.0208  0.0484
12293TIP3    H158294   6.616   0.996   0.664  0.4580  1.0607 -1.3055
12293TIP3    H258295   6.577   0.924   0.536  0.5180 -0.7518 -0.3404
12294TIP3   OH258296   4.111   2.590   3.494  0.1032  0.8783 -0.2003
12294TIP3    H158297   4.043   2.602   3.428  0.5370 -0.2127 -0.8709
12294TIP3    H258298   4.130   2.678   3.526 -0.5978  1.3416 -1.0418
12295TIP3   OH258299   5.457   6.292   1.770 -0.5397  0.1241  0.4912
12295TIP3    H158300   5.394   6.263   1.836  0.7418 -1.6994  0.9789
12295TIP3    H258301   5.429   6.248   1.690 -0.8175  0.6231  0.3051
12296TIP3   OH258302   6.648   6.478  12.203  0.3233  0.3350  0.2008
12296TIP3    H158303   6.593   6.442  12.273  0.5456  0.8072  0.6287
12296TIP3    H258304   6.738   6.460  12.231  0.5343  2.6928  1.3211
12297TIP3   OH258305   3.005   2.032  13.026  0.0643 -1.4685  0.7756
12297TIP3    H158306   2.977   2.122  13.043  0.5380 -1.0817 -0.3768
12297TIP3    H258307   2.964   1.980  13.095 -0.2917 -0.3833  1.3998
12298TIP3   OH258308   4.168   0.826   1.764  0.5709  0.1933 -0.1998
12298TIP3    H158309   4.103   0.770   1.807 -1.9170  1.8174 -1.6440
12298TIP3    H258310   4.224   0.765   1.716  0.6186 -1.3069  1.6288
12299TIP3   OH258311   4.461   0.966   4.689  0.8219 -0.1439 -0.1722
12299TIP3    H158312   4.542   0.964   4.637  0.8134 -1.9272 -0.1876
12299TIP3    H258313   4.409   0.893   4.655  1.0655 -1.7808  2.6779
12300TIP3   OH258314   1.395   3.860   0.060 -0.7484 -0.5512  0.0189
12300TIP3    H158315   1.456   3.787   0.061 -1.0862 -0.8561 -0.9104
12300TIP3    H258316   1.442   3.930   0.013 -0.3496 -0.0885  1.0746
12301TIP3   OH258317   4.772   1.318  12.662 -0.0373  0.6341  0.1262
12301TIP3    H158318   4.697   1.259  12.664  0.8952 -0.6007  1.8080
12301TIP3    H258319   4.752   1.385  12.727  1.7384 -1.7615  3.4602
12302TIP3   OH258320   2.505   3.713   2.524 -0.2542 -0.3878  1.1147
12302TIP3    H158321   2.585   3.761   2.543 -0.8011  0.9346  0.1866
12302TIP3    H258322   2.533   3.621   2.520  1.8959  0.2279 -2.3127
12303TIP3   OH258323   2.515   2.500   2.310 -0.2929  0.2569 -0.4254
12303TIP3    H158324   2.510   2.416   2.357  0.8427 -0.0139 -0.7584
12303TIP3    H258325   2.424   2.524   2.294 -0.6420 -0.7685 -0.0630
12304TIP3   OH258326   4.446   5.074  11.751 -0.0153  0.5446 -0.1214
12304TIP3    H158327   4.404   5.059  11.835  1.0207  0.5273  0.4152
12304TIP3    H258328   4.522   5.129  11.771  1.9852 -1.8483 -0.5373
12305TIP3   OH258329   2.807   1.799   3.766 -0.5480 -0.7304  0.0665
12305TIP3    H158330   2.781   1.882   3.806  1.3131  0.6054 -1.3366
12305TIP3    H258331   2.813   1.738   3.840  1.6052  1.3507  1.7768
12306TIP3   OH258332   5.356   4.582   5.811  0.0071 -0.0997  0.0055
12306TIP3    H158333   5.356   4.627   5.727  0.6160  0.7472  0.4484
12306TIP3    H258334   5.391   4.646   5.873 -0.2402 -0.7802  0.8692
12307TIP3   OH258335   3.080   2.400  16.190 -0.5663 -0.4138 -0.1743
12307TIP3    H158336   3.071   2.386  16.096  2.4089  0.5093 -0.7097
12307TIP3    H258337   3.084   2.312  16.227  0.0695 -0.8221 -1.1635
12308TIP3   OH258338   4.078   4.025   0.604 -0.4799 -0.3292 -0.5374
12308TIP3    H158339   4.056   3.940   0.565 -2.3405 -0.9838  1.6990
12308TIP3    H258340   4.116   4.003   0.689  0.7362  1.0845 -0.6792
12309TIP3   OH258341   3.902   1.993  13.968  0.5913  0.0040  0.1066
12309TIP3    H158342   3.947   1.909  13.980  0.3599  0.0181  1.0983
12309TIP3    H258343   3.945   2.052  14.029 -0.1974  0.2411  0.4446
12310TIP3   OH258344   4.799   6.099  16.414 -0.7306  0.0407 -0.1657
12310TIP3    H158345   4.703   6.104  16.411 -0.7240  0.8035  0.3737
12310TIP3    H258346   4.827   6.191  16.423  0.0513 -0.1692 -0.4184
12311TIP3   OH258347   1.323   4.902  13.900  0.2789  0.0879  0.3427
12311TIP3    H158348   1.342   4.809  13.894  1.3932  0.3688 -0.9714
12311TIP3    H258349   1.251   4.916  13.839 -1.3480 -0.2260  2.0903
12312TIP3   OH258350   4.476   6.146  14.727 -0.4107  0.4260 -0.2593
12312TIP3    H158351   4.512   6.104  14.649  0.7051  0.5140  0.1848
12312TIP3    H258352   4.415   6.081  14.762  1.4082 -0.9807  0.5093
12313TIP3   OH258353   2.962   4.821  13.345 -0.0663  0.2852  0.4713
12313TIP3    H158354   2.907   4.817  13.424  0.2767  2.1433  0.8589
12313TIP3    H258355   2.958   4.733  13.308 -0.5289 -0.5375  2.3646
12314TIP3   OH258356   5.463   5.097   2.680 -0.7910 -0.3068 -0.2668
12314TIP3    H158357   5.440   5.018   2.728  0.4966 -0.5826 -0.0752
12314TIP3    H258358   5.536   5.135   2.728 -0.1976  0.0071 -1.3819
12315TIP3   OH258359   2.545   5.661  13.372 -0.1479  0.1251  0.0905
12315TIP3    H158360   2.483   5.726  13.402  1.7301  1.3191  1.5719
12315TIP3    H258361   2.610   5.711  13.323 -0.3379 -1.1098 -1.5171
12316TIP3   OH258362   0.017   0.069   6.425 -0.4047 -0.1425  0.9393
12316TIP3    H158363   0.014   0.162   6.400  1.1953 -0.7298 -1.7963
12316TIP3    H258364   0.102   0.058   6.466 -0.5003 -0.4720  1.0466
12317TIP3   OH258365   0.598   6.194  11.164 -0.3781 -0.3068  0.2901
12317TIP3    H158366   0.542   6.224  11.235 -0.2268  0.4407  0.1023
12317TIP3    H258367   0.665   6.141  11.206  0.2510  0.8858  0.8277
12318TIP3   OH258368   0.453   5.801  14.031  0.2339 -0.6156  0.5724
12318TIP3    H158369   0.440   5.706  14.028 -0.1458 -0.5299 -0.8621
12318TIP3    H258370   0.487   5.824  13.945  1.6077  0.3916  1.3322
12319TIP3   OH258371   3.836   2.931  14.181  0.8140 -0.3836 -0.5128
12319TIP3    H158372   3.858   2.846  14.220  0.3126 -0.1213  0.3643
12319TIP3    H258373   3.803   2.909  14.093  1.4662 -1.0235 -0.6084
12320TIP3   OH258374   5.878   6.141   6.079 -0.2746  0.8305 -0.9214
12320TIP3    H158375   5.874   6.113   5.988  1.1992  1.1785 -1.1179
12320TIP3    H258376   5.967   6.176   6.090  1.0925 -2.8033  1.6977
12321TIP3   OH258377   3.612   0.254   3.493 -0.4723 -0.1277  0.4276
12321TIP3    H158378   3.688   0.196   3.494  0.1247  0.6149 -0.2238
12321TIP3    H258379   3.537   0.196   3.505  0.0609 -1.1261 -0.8254
12322TIP3   OH258380   5.154   1.267   1.267  0.5409 -0.2110 -0.1579
12322TIP3    H158381   5.128   1.280   1.176 -0.8429  1.8545  0.4784
12322TIP3    H258382   5.101   1.193   1.296 -1.1143  0.8761 -0.2784
12323TIP3   OH258383   5.384   1.787  12.327  0.2591  0.3589  0.4206
12323TIP3    H158384   5.322   1.718  12.302  0.5658  0.1446  0.2381
12323TIP3    H258385   5.437   1.747  12.396  0.9367  0.1393 -0.2113
12324TIP3   OH258386   5.981   6.611  17.237 -0.4881 -0.5655  0.8155
12324TIP3    H158387   5.941   6.524  17.246  0.0336 -0.9608 -0.4429
12324TIP3    H258388   6.006   6.616  17.145 -0.3116  0.8461  0.9277
12325TIP3   OH258389   0.912   5.713   0.080 -0.4668  0.1570  0.0516
12325TIP3    H158390   0.845   5.782   0.079 -1.2366 -0.4530  2.1414
12325TIP3    H258391   0.869   5.637   0.041 -1.2404 -0.3597  1.7789
12326TIP3   OH258392   2.077   0.360  16.678 -0.4417  0.6226 -0.2090
12326TIP3    H158393   2.147   0.312  16.634  1.1861  3.7953 -1.3466
12326TIP3    H258394   1.996   0.319  16.646  0.7971 -2.0408 -0.1687
12327TIP3   OH258395   5.256   3.970   4.811  0.1668  0.1162 -0.6581
12327TIP3    H158396   5.347   3.954   4.837  0.2878  0.7863 -0.6344
12327TIP3    H258397   5.204   3.918   4.872  0.5181  0.2379 -0.2454
12328TIP3   OH258398   4.714   6.437  11.946 -0.0811 -0.1704  0.4244
12328TIP3    H158399   4.785   6.483  11.902 -0.3703  1.4357  1.5526
12328TIP3    H258400   4.736   6.440  12.039 -1.8497  0.8812  0.8747
12329TIP3   OH258401   3.752   0.965  13.235  0.5510  0.8800  0.1767
12329TIP3    H158402   3.674   1.020  13.232  0.6156  1.0955  1.6489
12329TIP3    H258403   3.774   0.960  13.328  1.0708 -0.9153 -0.0030
12330TIP3   OH258404   4.156   5.162   4.003 -0.0020  0.1064 -0.3477
12330TIP3    H158405   4.167   5.253   4.033 -2.1887  0.3156 -0.0400
12330TIP3    H258406   4.217   5.153   3.930 -0.1349  2.0067 -0.7437
12331TIP3   OH258407   6.552   6.282  10.968  0.2001  0.3675 -0.5002
12331TIP3    H158408   6.560   6.377  10.976 -1.4687  0.3417  3.2487
12331TIP3    H258409   6.640   6.249  10.988  0.6196  1.0615 -1.1399
12332TIP3   OH258410   4.564   0.534  16.249 -0.3099  0.3532 -0.6026
12332TIP3    H158411   4.584   0.539  16.343 -1.9033  1.1732 -0.2697
12332TIP3    H258412   4.648   0.545  16.206  0.3897  0.4467  0.7343
12333TIP3   OH258413   2.088   0.427   6.285 -0.2327  0.3038  0.7043
12333TIP3    H158414   2.011   0.379   6.256 -0.0432  0.5807 -0.2836
12333TIP3    H258415   2.161   0.384   6.242 -0.1219  1.9146 -0.8480
12334TIP3   OH258416   3.223   2.035  13.288  0.4492 -0.2300  0.1364
12334TIP3    H158417   3.273   2.097  13.235  1.2486 -1.5565 -0.7263
12334TIP3    H258418   3.216   2.077  13.374  2.4092  0.3476  0.0590
12335TIP3   OH258419   1.066   5.758  15.956  0.5410  0.0696  0.0334
12335TIP3    H158420   1.031   5.769  15.867 -1.1750  0.6035  0.7265
12335TIP3    H258421   1.161   5.762  15.945  0.4691 -1.9155 -2.0150
12336TIP3   OH258422   0.973   1.491  16.913  0.0804  0.2080 -0.3585
12336TIP3    H158423   0.980   1.460  17.003 -0.3675 -2.7217 -1.2398
12336TIP3    H258424   0.883   1.521  16.906 -0.5122 -1.4460 -0.3149
12337TIP3   OH258425   3.051   0.068  12.977  0.2584 -0.2350 -0.7081
12337TIP3    H158426   3.062   0.007  12.905  2.2067 -0.1395 -0.5327
12337TIP3    H258427   3.024   0.150  12.935  0.8620 -0.3210 -1.2738
12338TIP3   OH258428   3.365   5.076   6.150 -0.1027 -0.5888  0.2040
12338TIP3    H158429   3.372   5.035   6.236  1.7976 -1.6219 -0.3651
12338TIP3    H258430   3.281   5.047   6.116 -0.7685 -0.3653  1.5929
12339TIP3   OH258431   3.412   5.927  12.667 -0.0386  0.3830  0.4168
12339TIP3    H158432   3.502   5.896  12.676  0.3179  1.0941 -0.5366
12339TIP3    H258433   3.370   5.901  12.749  1.0813  0.2009  0.9598
12340TIP3   OH258434   4.301   3.934   1.159  0.5417  0.1951 -0.1449
12340TIP3    H158435   4.271   4.011   1.207  0.7912  0.5782 -0.5801
12340TIP3    H258436   4.234   3.868   1.173  0.3247  0.4944  0.2366
12341TIP3   OH258437   4.403   4.731   1.883 -0.0563 -0.3373  0.6599
12341TIP3    H158438   4.458   4.663   1.922  1.0411  0.5890  0.7597
12341TIP3    H258439   4.318   4.688   1.870  1.3038 -2.5981 -1.7653
12342TIP3   OH258440   2.881   1.264  12.088  0.3925 -0.5210  0.0946
12342TIP3    H158441   2.926   1.348  12.081 -0.4754  0.0576  1.0124
12342TIP3    H258442   2.950   1.200  12.102  0.9899  0.2466  0.7689
12343TIP3   OH258443   5.573   0.529   1.426 -0.2115 -0.3007 -0.2517
12343TIP3    H158444   5.517   0.567   1.359 -0.9433  0.6087  0.8447
12343TIP3    H258445   5.648   0.493   1.378 -0.1703  1.3054 -1.4546
12344TIP3   OH258446   4.058   6.660   0.060 -0.6459  0.0922  0.0708
12344TIP3    H158447   4.043   6.750   0.089  0.2670  0.5898 -0.9281
12344TIP3    H258448   3.992   6.646  -0.009  0.9218  1.0009 -1.7221
12345TIP3   OH258449   0.869   1.615   2.104  0.1616  0.4318  0.8079
12345TIP3    H158450   0.871   1.709   2.087  1.3988  0.3219  0.2577
12345TIP3    H258451   0.808   1.605   2.178 -0.3711  1.5959  0.5418
12346TIP3   OH258452   5.221   2.405   0.775  0.1184 -0.2935 -0.5316
12346TIP3    H158453   5.300   2.426   0.825 -1.1207  0.6044  1.1644
12346TIP3    H258454   5.226   2.311   0.759  1.2358 -0.3507  0.0906
12347TIP3   OH258455   5.466   2.926   4.628  0.0781  0.6254 -0.1700
12347TIP3    H158456   5.447   2.832   4.629  0.4483  0.5158  2.0845
12347TIP3    H258457   5.557   2.932   4.655 -0.4764  1.6771  1.6286
12348TIP3   OH258458   4.917   6.283  16.652  1.0498 -0.1124  0.0296
12348TIP3    H158459   4.959   6.280  16.566  0.2100 -0.3442 -0.3758
12348TIP3    H258460   4.967   6.221  16.705 -1.3418 -3.7372 -1.6135
12349TIP3   OH258461   4.626   5.905  11.852 -0.1000  0.1903  0.4586
12349TIP3    H158462   4.637   5.883  11.759 -0.7043  0.6182  0.2760
12349TIP3    H258463   4.707   5.877  11.893 -0.4776 -1.5620  0.0973
12350TIP3   OH258464   3.141   2.936   6.027  0.2861 -0.1754 -0.0221
12350TIP3    H158465   3.077   2.870   6.051 -0.6958  0.7412 -0.0328
12350TIP3    H258466   3.220   2.887   6.005  1.0589 -1.2163  4.1775
12351TIP3   OH258467   0.797   4.382   0.482 -0.3561  0.2712  0.2757
12351TIP3    H158468   0.879   4.418   0.447 -0.8113 -0.5163 -1.6905
12351TIP3    H258469   0.813   4.375   0.576  1.2973  1.5061  0.1383
12352TIP3   OH258470   1.964   4.833   1.799 -0.2529  0.0138  0.0262
12352TIP3    H158471   1.973   4.922   1.765  0.9952 -0.1355 -0.0819
12352TIP3    H258472   2.036   4.785   1.759 -0.2425 -0.7705  0.9508
12353TIP3   OH258473   4.003   6.739  15.251 -0.3931 -1.0394  0.3440
12353TIP3    H158474   4.077   6.679  15.258  0.2612 -0.3196 -0.1406
12353TIP3    H258475   3.926   6.685  15.267  0.1878 -1.9693  0.0755
12354TIP3   OH258476   5.425   2.266  15.818 -0.2186 -0.4411  0.2081
12354TIP3    H158477   5.393   2.209  15.889  0.1472 -1.9819 -0.8058
12354TIP3    H258478   5.399   2.354  15.845  0.3764 -0.8892  2.5062
12355TIP3   OH258479   0.077   2.326  17.169  0.0471  0.3085  0.3625
12355TIP3    H158480   0.059   2.322  17.263  1.4106  0.2587  0.6529
12355TIP3    H258481   0.089   2.234  17.144 -1.7063  0.1950 -0.1885
12356TIP3   OH258482   2.743   3.007   3.026 -0.2887  0.1430 -0.3465
12356TIP3    H158483   2.765   3.097   3.001 -0.6729  0.3216 -0.0506
12356TIP3    H258484   2.663   3.016   3.078 -0.8688 -0.4684 -1.1244
12357TIP3   OH258485   0.278   3.694  13.129 -0.1304  0.5153 -0.3665
12357TIP3    H158486   0.301   3.780  13.094 -1.1612  0.3429 -1.5347
12357TIP3    H258487   0.361   3.647  13.133  0.4711  1.5907  0.4228
12358TIP3   OH258488   3.680   4.478   3.864 -0.2416  0.0896 -0.4885
12358TIP3    H158489   3.676   4.512   3.953 -1.4669  0.5993 -0.7214
12358TIP3    H258490   3.749   4.531   3.822  0.5113 -0.3204  0.1974
12359TIP3   OH258491   2.362   1.233  12.226  0.4535 -0.3229 -0.0071
12359TIP3    H158492   2.441   1.204  12.180 -0.4465 -2.7265 -0.1499
12359TIP3    H258493   2.305   1.267  12.157  1.3258  1.5064  0.1062
12360TIP3   OH258494   5.886   0.825  15.669 -0.0135  0.2731  0.3357
12360TIP3    H158495   5.882   0.891  15.599  0.0681 -0.1416 -0.0646
12360TIP3    H258496   5.831   0.861  15.739  1.1105  1.4149  0.6720
12361TIP3   OH258497   1.776   4.036   4.133 -0.8261 -0.2685 -0.6456
12361TIP3    H158498   1.683   4.053   4.118 -0.6551  2.0285  0.5545
12361TIP3    H258499   1.780   4.003   4.222 -0.7078 -3.1564 -1.6216
12362TIP3   OH258500   5.608   1.243   5.002 -0.5158 -0.0833  0.1430
12362TIP3    H158501   5.629   1.248   4.908 -0.4905  0.6227  0.1867
12362TIP3    H258502   5.635   1.327   5.037 -2.5770  0.5141  0.3747
12363TIP3   OH258503   1.258   5.875   2.486  0.3312  0.4630 -0.2297
12363TIP3    H158504   1.310   5.942   2.441  1.8669 -0.0139  0.7794
12363TIP3    H258505   1.269   5.796   2.432  1.9192 -0.0265  0.7388
12364TIP3   OH258506   4.741   6.159   5.892 -0.3576 -0.3577 -0.2299
12364TIP3    H158507   4.690   6.119   5.963 -1.3632 -2.8613 -2.1885
12364TIP3    H258508   4.832   6.142   5.916 -0.6296 -0.1591  1.0006
12365TIP3   OH258509   1.761   5.613   4.573 -0.6948 -0.0336 -0.0125
12365TIP3    H158510   1.788   5.695   4.614  1.2197 -1.3194  1.4583
12365TIP3    H258511   1.781   5.625   4.480  1.3214  0.5429  0.4518
12366TIP3   OH258512   4.761   1.110  14.497 -0.2391  0.3121 -0.2013
12366TIP3    H158513   4.785   1.120  14.405 -0.2874  0.9380 -0.1468
12366TIP3    H258514   4.824   1.164  14.545 -1.2327  1.3112  0.0051
12367TIP3   OH258515   1.471   2.568  12.370 -0.4940  0.0111 -0.1161
12367TIP3    H158516   1.396   2.514  12.393 -0.8179  0.7842  0.6830
12367TIP3    H258517   1.502   2.532  12.286 -0.2961 -1.8153  0.7039
12368TIP3   OH258518   5.596   5.694  16.540 -0.7937  0.1749 -0.1917
12368TIP3    H158519   5.666   5.651  16.590  0.7066  0.8304 -1.6323
12368TIP3    H258520   5.554   5.752  16.603  1.8214  1.9020  0.1062
12369TIP3   OH258521   4.028   0.601   4.679  0.0869 -0.5744  0.5003
12369TIP3    H158522   3.974   0.526   4.657  0.8423 -1.4386  1.5154
12369TIP3    H258523   4.092   0.568   4.742 -0.2681  1.1681  1.8675
12370TIP3   OH258524   4.382   4.884  15.571 -0.4851 -0.1311  0.0414
12370TIP3    H158525   4.290   4.884  15.543 -0.3372  0.4118 -0.4819
12370TIP3    H258526   4.414   4.797  15.548 -0.2886  0.3784 -1.8600
12371TIP3   OH258527   3.433   4.747  15.132  0.1493 -0.0153 -0.1171
12371TIP3    H158528   3.439   4.674  15.071  0.5754 -0.3184  0.2844
12371TIP3    H258529   3.517   4.792  15.123  1.0270 -1.1897  1.6522
12372TIP3   OH258530   1.218   5.194   4.835 -0.1890  0.6718 -0.2304
12372TIP3    H158531   1.150   5.258   4.857  0.2490  0.8845  0.5585
12372TIP3    H258532   1.300   5.244   4.835  0.1709  0.1115  0.4819
12373TIP3   OH258533   2.404   0.440   0.874 -0.0910  0.1589  0.2934
12373TIP3    H158534   2.400   0.531   0.844 -1.0570 -0.0706 -0.3279
12373TIP3    H258535   2.432   0.391   0.797 -2.3231 -0.4059 -0.2137
12374TIP3   OH258536   3.865   1.274   0.734 -0.3437  0.0071  0.4950
12374TIP3    H158537   3.920   1.246   0.661 -0.5032  1.4596 -0.2056
12374TIP3    H258538   3.775   1.268   0.700 -0.4724 -0.0998  0.8471
12375TIP3   OH258539   0.960   3.309  15.741 -0.0153 -0.7925 -0.4798
12375TIP3    H158540   0.952   3.355  15.657  1.7983  0.2920 -0.1073
12375TIP3    H258541   0.970   3.217  15.717 -3.3762 -1.0800 -1.2569
12376TIP3   OH258542   5.024   0.501  14.220 -0.2203 -0.6505 -0.0616
12376TIP3    H158543   4.952   0.494  14.282 -1.4801 -2.6113 -1.6146
12376TIP3    H258544   5.093   0.548  14.268 -1.3270 -1.5475  2.5858
12377TIP3   OH258545   1.974   0.840  15.540  0.3113  0.5618 -0.4981
12377TIP3    H158546   2.039   0.786  15.587  1.1941  0.2386 -2.0235
12377TIP3    H258547   1.988   0.928  15.574  0.8851  0.3313 -0.0994
12378TIP3   OH258548   3.497   5.065   0.924 -0.9171  0.5627  0.2960
12378TIP3    H158549   3.402   5.068   0.930 -1.0333 -0.7578 -0.6963
12378TIP3    H258550   3.520   5.140   0.868 -1.5477 -0.3078 -1.1659
12379TIP3   OH258551   3.767   4.735  16.176 -0.3615  0.0440 -0.2183
12379TIP3    H158552   3.771   4.687  16.259 -1.2647  1.5404  0.7416
12379TIP3    H258553   3.858   4.760  16.159 -0.1279 -0.5134  0.1854
12380TIP3   OH258554   6.663   5.224  15.614 -0.4064  0.1346  0.1168
12380TIP3    H158555   6.689   5.260  15.699  0.9332  1.9443 -1.0067
12380TIP3    H258556   6.585   5.172  15.634  0.0438  0.2324  2.4978
12381TIP3   OH258557   0.174   3.836  15.542  0.5683 -0.2867  0.7040
12381TIP3    H158558   0.260   3.796  15.543  0.8535  0.2641 -0.2447
12381TIP3    H258559   0.153   3.846  15.450  0.3961  1.4603  0.8955
12382TIP3   OH258560   5.465   5.170   3.467  0.3933 -0.1600 -0.2424
12382TIP3    H158561   5.415   5.251   3.460  0.3902  0.0157  1.4143
12382TIP3    H258562   5.422   5.110   3.406 -0.0031  0.8762 -1.0096
12383TIP3   OH258563   4.259   5.373  11.150 -0.0729  0.7093 -0.2179
12383TIP3    H158564   4.241   5.443  11.087  0.9842 -0.1163 -1.4821
12383TIP3    H258565   4.230   5.293  11.106 -2.7390  0.4116  1.8082
12384TIP3   OH258566   0.383   4.407  16.443  0.1398  0.1346  0.5002
12384TIP3    H158567   0.402   4.366  16.527  0.2607 -1.7346 -0.3921
12384TIP3    H258568   0.300   4.452  16.456 -0.8655 -1.7915  1.1024
12385TIP3   OH258569   0.136   6.369  12.239  0.2497 -0.1483 -0.5025
12385TIP3    H158570   0.116   6.312  12.313 -1.5493  2.3503  1.0753
12385TIP3    H258571   0.221   6.408  12.261 -0.9852  1.7969  1.1890
12386TIP3   OH258572   0.825   5.683   5.057  0.2880 -0.1762  0.0949
12386TIP3    H158573   0.851   5.702   4.967 -0.3810  1.3364  0.1985
12386TIP3    H258574   0.865   5.598   5.076 -1.1770 -1.5204 -2.3025
12387TIP3   OH258575   1.618   6.655   4.193 -0.2960  0.2738 -0.2236
12387TIP3    H158576   1.593   6.739   4.154 -0.4034 -0.1960 -1.1757
12387TIP3    H258577   1.707   6.639   4.162 -0.0224  0.3407  0.4947
12388TIP3   OH258578   4.933   5.259  11.838  0.5387  0.7445  0.1703
12388TIP3    H158579   4.849   5.224  11.807  0.4045 -0.8738  2.1149
12388TIP3    H258580   4.987   5.264  11.760 -0.5625 -0.7036 -0.7381
12389TIP3   OH258581   6.503   6.277  11.893  0.5750  0.1700 -0.0217
12389TIP3    H158582   6.446   6.319  11.957  0.9490  0.7201 -0.0487
12389TIP3    H258583   6.444   6.252  11.822  0.5265  1.7222 -0.5520
12390TIP3   OH258584   3.692   1.502   6.917 -0.4034  0.2983  0.5685
12390TIP3    H158585   3.680   1.597   6.913  0.6897  0.4948  1.5863
12390TIP3    H258586   3.772   1.486   6.866 -0.0560  0.0391  1.1941
12391TIP3   OH258587   2.506   4.591  14.415 -0.2136  0.1222 -0.2661
12391TIP3    H158588   2.591   4.634  14.401  1.1437 -2.8491 -2.1264
12391TIP3    H258589   2.461   4.601  14.331 -0.6126 -0.4871 -0.1257
12392TIP3   OH258590   2.265   5.621   3.730  0.0620  0.1329 -0.2194
12392TIP3    H158591   2.246   5.568   3.807 -0.4166 -0.2912 -0.6193
12392TIP3    H258592   2.213   5.701   3.743  0.9190  0.5983  0.4650
12393TIP3   OH258593   5.774   3.553  10.841 -0.0044  0.0085  0.2887
12393TIP3    H158594   5.718   3.491  10.888  0.2987 -0.2856  0.2674
12393TIP3    H258595   5.723   3.633  10.836 -0.5988 -0.3899 -0.1076
12394TIP3   OH258596   3.793   0.074   5.149 -0.0876  0.5285 -0.0769
12394TIP3    H158597   3.701   0.095   5.134 -0.0174  0.0528 -1.3169
12394TIP3    H258598   3.838   0.159   5.141 -0.2685  0.5563 -0.9293
12395TIP3   OH258599   5.637   3.775   4.243 -0.5336 -0.4170 -0.6249
12395TIP3    H158600   5.590   3.805   4.165 -3.1835 -1.1152  0.5819
12395TIP3    H258601   5.572   3.725   4.293  1.6343 -1.7820  1.0448
12396TIP3   OH258602   4.872   5.824   6.510 -0.2594  0.4244  0.1340
12396TIP3    H158603   4.936   5.848   6.577  0.4744  0.1113 -0.4375
12396TIP3    H258604   4.819   5.903   6.498 -1.1406  0.1329  1.8727
12397TIP3   OH258605   6.634   4.250  13.490  0.0001  0.0636  0.1448
12397TIP3    H158606   6.660   4.280  13.402 -1.7192  0.5757 -0.2325
12397TIP3    H258607   6.671   4.316  13.549  0.3221  0.2688 -0.2754
12398TIP3   OH258608   1.534   5.555  11.735 -0.1096 -0.2135  0.5892
12398TIP3    H158609   1.586   5.484  11.772 -1.5599 -1.7332 -0.1738
12398TIP3    H258610   1.453   5.555  11.787  0.1292  1.3521  1.0165
12399TIP3   OH258611   6.641   4.591  13.536 -0.2222  0.4479  0.0672
12399TIP3    H158612   6.551   4.576  13.507 -0.1825 -2.6672  1.1891
12399TIP3    H258613   6.636   4.591  13.632  1.0190 -0.6999  0.1731
12400TIP3   OH258614   6.600   4.661   4.372  0.4593  0.0283 -0.3697
12400TIP3    H158615   6.597   4.586   4.312  0.5460 -0.1544 -0.1443
12400TIP3    H258616   6.583   4.737   4.315 -0.7291 -0.2489 -0.4213
12401TIP3   OH258617   1.908   2.222   6.167 -0.3026  0.4406  0.8985
12401TIP3    H158618   1.817   2.218   6.195 -0.6200 -0.0671 -0.1550
12401TIP3    H258619   1.924   2.315   6.152 -1.2390  0.3700 -0.7149
12402TIP3   OH258620   4.772   2.036   0.230 -0.1612  0.3003 -0.3780
12402TIP3    H158621   4.813   1.953   0.255 -0.0926  0.0731 -1.1970
12402TIP3    H258622   4.822   2.103   0.275  0.0393 -0.0816 -0.0279
12403TIP3   OH258623   3.053   3.882   4.406 -0.5221  0.2247  0.6896
12403TIP3    H158624   3.015   3.838   4.482 -1.4848 -0.2786 -0.0600
12403TIP3    H258625   3.075   3.812   4.345 -1.5173  0.7126 -0.2743
12404TIP3   OH258626   4.047   3.506  16.867 -0.2721 -0.1868 -0.2684
12404TIP3    H158627   3.960   3.482  16.898 -1.0567  2.3513 -0.2564
12404TIP3    H258628   4.031   3.577  16.805  1.7731  0.1092 -0.5134
12405TIP3   OH258629   0.873   3.015  17.126 -0.0779 -0.6229  0.2535
12405TIP3    H158630   0.863   3.005  17.031 -0.2243 -2.2779  0.4117
12405TIP3    H258631   0.963   3.046  17.137 -0.7830  1.9521 -0.5030
12406TIP3   OH258632   2.355   5.797   4.687  0.1198 -0.0642  0.4582
12406TIP3    H158633   2.396   5.736   4.626  0.6886 -0.9560  1.7112
12406TIP3    H258634   2.267   5.761   4.702 -0.1549  0.3564 -0.0998
12407TIP3   OH258635   4.261   0.490   3.003  0.1605 -0.4387 -0.0849
12407TIP3    H158636   4.280   0.449   2.919  2.4187  1.6640 -0.7221
12407TIP3    H258637   4.304   0.434   3.067 -0.6291 -1.4503 -0.4105
12408TIP3   OH258638   3.573   6.361  13.883 -0.4018 -0.2869 -0.2969
12408TIP3    H158639   3.615   6.381  13.967 -1.1995  1.8665 -0.3560
12408TIP3    H258640   3.537   6.273  13.896  1.3508 -0.8942  0.8318
12409TIP3   OH258641   1.225   6.115  11.585 -0.0235  0.0055 -0.0658
12409TIP3    H158642   1.304   6.063  11.574  1.1060  1.6303 -0.0278
12409TIP3    H258643   1.242   6.167  11.664 -2.6580 -2.1986  2.1384
12410TIP3   OH258644   2.631   6.325  17.089  0.1803  0.5231  0.2680
12410TIP3    H158645   2.590   6.292  17.169 -2.4520  0.8525 -0.8271
12410TIP3    H258646   2.645   6.419  17.107 -1.8993  0.9592 -0.1398
12411TIP3   OH258647   4.063   6.229   6.222  0.4086 -0.7924  0.5560
12411TIP3    H158648   4.134   6.273   6.268  0.5021 -0.1387 -0.2000
12411TIP3    H258649   4.048   6.149   6.272  2.1889 -1.3181  0.3136
12412TIP3   OH258650   0.169   5.070  11.566  0.5615 -0.0432  0.2728
12412TIP3    H158651   0.180   4.976  11.551  0.0585 -0.2893  1.3588
12412TIP3    H258652   0.233   5.091  11.634  2.2319  0.8785 -1.4880
12413TIP3   OH258653   6.283   6.084  13.234 -0.1350  0.4170 -0.0840
12413TIP3    H158654   6.242   6.066  13.150 -0.0981 -0.7993  0.1403
12413TIP3    H258655   6.376   6.094  13.215 -0.2984  1.5076 -0.3620
12414TIP3   OH258656   3.993   0.306   5.053  0.0012  0.7560 -0.1152
12414TIP3    H158657   4.066   0.256   5.089  0.7661  1.5073 -0.5687
12414TIP3    H258658   3.979   0.376   5.117 -0.2863  0.6515 -0.0624
12415TIP3   OH258659   6.687   3.894  11.506 -0.5574  0.3827 -0.3467
12415TIP3    H158660   6.700   3.960  11.574  0.1297 -0.3697  0.2776
12415TIP3    H258661   6.603   3.915  11.467 -0.8712  0.9463  0.6119
12416TIP3   OH258662   3.823   2.741   4.185 -0.2797  0.0269  0.1632
12416TIP3    H158663   3.906   2.788   4.187 -0.8460  1.0850 -0.4751
12416TIP3    H258664   3.804   2.729   4.092  0.0825 -1.9294  0.2838
12417TIP3   OH258665   0.947   3.077   4.949  0.7387  0.3631 -0.1363
12417TIP3    H158666   1.028   3.025   4.940  0.4829 -0.1952  0.6506
12417TIP3    H258667   0.940   3.094   5.043 -0.9222 -1.0342  0.0436
12418TIP3   OH258668   5.128   1.204   5.457 -0.0170 -0.3472  0.1589
12418TIP3    H158669   5.097   1.190   5.367 -0.3066  0.1174  0.1861
12418TIP3    H258670   5.064   1.264   5.495  0.7617  0.3958  0.3062
12419TIP3   OH258671   3.590   1.066   4.326  0.1300  0.7253  0.2618
12419TIP3    H158672   3.628   1.088   4.411  1.3730  1.1971 -0.3914
12419TIP3    H258673   3.527   0.997   4.345  0.5521  0.6637  1.5316
12420TIP3   OH258674   6.323   5.819   5.278 -0.2309 -0.2414  0.0237
12420TIP3    H158675   6.362   5.899   5.243 -0.9387 -1.2095 -3.2893
12420TIP3    H258676   6.390   5.784   5.337  1.9788  0.6037 -1.8146
12421TIP3   OH258677   4.405   1.266  10.703 -0.1747 -0.0350  0.2464
12421TIP3    H158678   4.354   1.194  10.666  1.5187 -1.2096  0.1039
12421TIP3    H258679   4.341   1.335  10.717 -1.2135 -0.0146 -3.4889
12422TIP3   OH258680   2.524   3.997   4.319  0.2225 -0.3655 -0.3667
12422TIP3    H158681   2.607   3.952   4.301 -1.0298 -2.4382 -1.2227
12422TIP3    H258682   2.534   4.028   4.410  0.6862 -3.6477  0.8410
12423TIP3   OH258683   0.717   1.821  16.618  0.2519 -0.6235 -0.7794
12423TIP3    H158684   0.756   1.890  16.566  1.4687 -1.3734 -0.9002
12423TIP3    H258685   0.640   1.793  16.568 -0.1919  0.5547 -0.7735
12424TIP3   OH258686   5.267   5.075   0.959 -0.2533  0.4632 -0.4052
12424TIP3    H158687   5.196   5.073   1.024 -2.4486  1.8746 -2.5957
12424TIP3    H258688   5.320   5.150   0.986 -0.6885  0.5764  0.1813
12425TIP3   OH258689   2.347   5.785  14.890  0.4316  0.1710  0.0029
12425TIP3    H158690   2.443   5.784  14.892  0.4286 -0.9515  0.7677
12425TIP3    H258691   2.326   5.813  14.801  1.5304 -2.1675 -1.1121
12426TIP3   OH258692   2.821   2.903   0.368 -0.8261  0.3204 -0.3074
12426TIP3    H158693   2.777   2.898   0.453 -1.2660  0.9766 -0.4925
12426TIP3    H258694   2.909   2.868   0.385 -0.5634  1.3861  0.6681
12427TIP3   OH258695   0.520   4.623   6.312  0.3838 -0.8497  0.1502
12427TIP3    H158696   0.553   4.537   6.285  4.0236 -0.1116  1.7372
12427TIP3    H258697   0.521   4.620   6.407 -0.7675  0.5310  0.2316
12428TIP3   OH258698   0.877   2.219  13.977 -0.7054 -0.3630  0.5085
12428TIP3    H158699   0.931   2.284  13.932 -1.4950  0.2391  0.4022
12428TIP3    H258700   0.939   2.170  14.032 -0.1827  0.9801  1.1743
12429TIP3   OH258701   0.559   1.351  16.827 -0.2512  0.0241  0.3244
12429TIP3    H158702   0.480   1.359  16.775  0.3713  1.7657 -0.4400
12429TIP3    H258703   0.551   1.421  16.893  0.7041  0.3250  0.1373
12430TIP3   OH258704   5.112   3.319   3.799  0.0636  0.2132  0.4348
12430TIP3    H158705   5.158   3.265   3.735  0.9821  1.2456  0.2061
12430TIP3    H258706   5.180   3.352   3.857 -0.5197  0.9083  0.7350
12431TIP3   OH258707   2.316   1.717  14.721  0.0124 -0.2903 -0.3883
12431TIP3    H158708   2.322   1.679  14.634  0.4356 -1.1221 -0.0101
12431TIP3    H258709   2.224   1.742  14.730 -0.4128 -1.7051 -0.4807
12432TIP3   OH258710   4.821   4.994   0.474 -0.0307  0.4925 -0.2504
12432TIP3    H158711   4.906   4.983   0.518 -0.1336 -0.0546 -0.1830
12432TIP3    H258712   4.840   5.052   0.400  0.4409  0.2312 -0.3411
12433TIP3   OH258713   4.740   3.045   4.277  0.9253  0.0916  0.2789
12433TIP3    H158714   4.755   3.094   4.358  0.7253  0.5814  0.0274
12433TIP3    H258715   4.826   3.014   4.252  0.6817 -2.2370  2.0081
12434TIP3   OH258716   2.589   4.588  14.857  0.0906  0.5548  0.4625
12434TIP3    H158717   2.612   4.681  14.853  1.5200  0.3326  2.2186
12434TIP3    H258718   2.511   4.585  14.913  0.3750  0.6451  0.8631
12435TIP3   OH258719   0.534   6.021   4.423  0.3357 -0.6152  0.1159
12435TIP3    H158720   0.611   6.077   4.414 -0.5599  0.5007 -0.7377
12435TIP3    H258721   0.570   5.933   4.436  1.7576 -0.3548 -1.7636
12436TIP3   OH258722   4.636   0.344  14.890  0.5193  0.4516 -0.0947
12436TIP3    H158723   4.618   0.251  14.876 -1.3736  0.9137 -1.1044
12436TIP3    H258724   4.667   0.350  14.980 -1.5237 -0.9012  0.7626
12437TIP3   OH258725   1.884   6.202   1.732 -0.1190 -0.6250  0.6792
12437TIP3    H158726   1.828   6.267   1.773  0.8938  2.3691 -2.2756
12437TIP3    H258727   1.973   6.236   1.742  0.8052 -2.9993  1.3660
12438TIP3   OH258728   4.382   2.171  16.933 -0.1366 -0.1515 -0.1486
12438TIP3    H158729   4.389   2.234  17.006 -1.3718  0.5052 -0.5687
12438TIP3    H258730   4.414   2.089  16.970 -0.4350  0.2451  1.0483
12439TIP3   OH258731   0.230   0.285   1.277  0.4946 -0.0009  0.1241
12439TIP3    H158732   0.287   0.359   1.255  0.8564 -0.4920 -0.6318
12439TIP3    H258733   0.151   0.299   1.227  1.1243 -0.8578 -1.1697
12440TIP3   OH258734   3.884   3.263  14.860 -0.2117 -0.1080  0.1654
12440TIP3    H158735   3.979   3.262  14.867 -0.1134 -0.1272 -1.0053
12440TIP3    H258736   3.859   3.170  14.866 -0.0357 -0.2307 -0.8717
12441TIP3   OH258737   0.529   5.154   5.868  0.1343  0.3555  0.2611
12441TIP3    H158738   0.486   5.097   5.932 -1.4231  0.7262 -0.4025
12441TIP3    H258739   0.474   5.148   5.789  0.4033  2.0734 -0.1104
12442TIP3   OH258740   1.797   4.976   5.982  0.0895 -0.2987  0.0433
12442TIP3    H158741   1.833   4.969   6.070 -0.9604 -1.4453  0.4147
12442TIP3    H258742   1.765   4.888   5.963 -3.4262  0.8128  0.1758
12443TIP3   OH258743   4.694   0.919   0.822 -0.6831 -0.2164 -0.0302
12443TIP3    H158744   4.658   0.979   0.757  0.6887  0.8772  0.1543
12443TIP3    H258745   4.691   0.969   0.904  2.0247  0.3474 -0.1667
12444TIP3   OH258746   5.763   0.726   4.950  0.2405  0.0274  0.6705
12444TIP3    H158747   5.828   0.695   4.886 -0.0403  1.7040 -0.4792
12444TIP3    H258748   5.798   0.698   5.035  0.5896 -2.3140 -0.1806
12445TIP3   OH258749   2.595   5.468   2.970  0.0562 -0.7095  0.0063
12445TIP3    H158750   2.677   5.463   2.920 -0.1137 -1.4875 -0.2110
12445TIP3    H258751   2.584   5.380   3.005  0.6581  0.0282  2.2271
12446TIP3   OH258752   3.777   6.712   2.185  0.4121  0.2300 -0.1780
12446TIP3    H158753   3.778   6.808   2.192  0.0111  0.1801  0.5992
12446TIP3    H258754   3.709   6.684   2.245  1.1655 -0.6037  0.3114
12447TIP3   OH258755   2.695   2.403  11.153  0.1722  0.4470 -0.0840
12447TIP3    H158756   2.644   2.427  11.231 -1.4628 -1.9453 -0.2941
12447TIP3    H258757   2.631   2.403  11.082  0.9034 -0.6663 -0.7612
12448TIP3   OH258758   5.326   5.113  15.716 -0.3936  0.3365 -0.3617
12448TIP3    H158759   5.389   5.174  15.676  0.1424 -0.9240 -1.5150
12448TIP3    H258760   5.241   5.143  15.685 -0.0766  0.1117 -1.4846
12449TIP3   OH258761   1.882   3.190  16.620  0.0532 -0.5294  0.0076
12449TIP3    H158762   1.810   3.164  16.677 -1.1674  1.0553 -0.7500
12449TIP3    H258763   1.952   3.128  16.641 -1.2740 -1.6880  1.2522
12450TIP3   OH258764   1.043   2.051  12.105 -0.0370 -0.4605 -0.2265
12450TIP3    H158765   1.077   2.006  12.182 -0.2386  0.4157  0.3851
12450TIP3    H258766   1.114   2.111  12.079 -0.5336  0.3353  0.1969
12451TIP3   OH258767   3.985   1.498   1.775 -0.3724  0.5937  0.1690
12451TIP3    H158768   3.938   1.472   1.695 -0.8105 -0.8406  0.8669
12451TIP3    H258769   3.985   1.594   1.772 -0.6464  0.5764 -1.3904
12452TIP3   OH258770   3.053   0.911  16.380  0.3279 -0.0996  0.2709
12452TIP3    H158771   3.053   0.815  16.377  0.3181 -0.1301  1.0585
12452TIP3    H258772   3.091   0.938  16.297  1.8602 -0.8074  0.7197
12453TIP3   OH258773   2.918   3.910  15.352  0.1164  0.2992 -0.2444
12453TIP3    H158774   2.858   3.870  15.289  1.4614  1.3960 -2.3579
12453TIP3    H258775   2.923   4.001  15.325  1.2259  0.6705  1.1062
12454TIP3   OH258776   0.880   5.202   4.247  0.1446  0.1200  0.4434
12454TIP3    H158777   0.887   5.268   4.178  0.4351 -2.9110 -2.6381
12454TIP3    H258778   0.964   5.208   4.293  0.0253  2.0690  0.5156
12455TIP3   OH258779   6.474   6.539  14.503 -0.1579  0.2497  0.6675
12455TIP3    H158780   6.440   6.462  14.548 -2.1260 -0.3605 -1.6406
12455TIP3    H258781   6.555   6.509  14.461 -1.0292 -0.7182 -0.4094
12456TIP3   OH258782   3.132   3.891  14.817  0.5439  0.0660 -0.1545
12456TIP3    H158783   3.167   3.924  14.900  0.1750  0.8955 -0.3185
12456TIP3    H258784   3.146   3.796  14.821 -2.5136 -0.4644  2.3755
12457TIP3   OH258785   2.403   3.187   0.441  0.0072  0.4021 -0.6957
12457TIP3    H158786   2.394   3.282   0.431 -0.6590  0.3462 -0.6844
12457TIP3    H258787   2.417   3.175   0.535  1.9208  0.6063 -0.9061
12458TIP3   OH258788   6.220   0.563  14.604  0.1543  0.0795  0.4500
12458TIP3    H158789   6.283   0.493  14.586  1.4833  1.1167  0.9169
12458TIP3    H258790   6.248   0.599  14.688 -1.0329  0.6278  0.6285
12459TIP3   OH258791   0.731   6.527   5.903  0.3867  0.0253  0.2601
12459TIP3    H158792   0.676   6.485   5.838  1.6130 -2.0202  0.4377
12459TIP3    H258793   0.698   6.495   5.987  3.2507 -3.4787  0.3253
12460TIP3   OH258794   0.897   5.491   0.831  0.3689  0.3619 -0.0810
12460TIP3    H158795   0.900   5.533   0.745  0.4938  3.8922  1.4679
12460TIP3    H258796   0.806   5.464   0.841  0.0706  1.0095 -0.9048
12461TIP3   OH258797   4.885   3.935  17.373 -0.0513  0.2619 -0.0750
12461TIP3    H158798   4.857   3.980  17.293 -2.7664 -0.2115  0.5320
12461TIP3    H258799   4.810   3.883  17.399  1.5035 -1.2444  1.6778
12462TIP3   OH258800   5.394   1.694  13.046  0.4877 -0.3486 -0.5536
12462TIP3    H158801   5.452   1.642  12.989 -1.6720 -1.5158 -1.7924
12462TIP3    H258802   5.359   1.630  13.109 -1.1996 -0.1839 -1.2839
12463TIP3   OH258803   1.160   1.807   1.550 -0.0116 -0.6811  0.0642
12463TIP3    H158804   1.194   1.884   1.595  0.3665 -0.5559 -0.4317
12463TIP3    H258805   1.065   1.820   1.548  0.0826 -0.0446 -0.3552
12464TIP3   OH258806   4.823   2.938  13.216  0.2004 -0.2503 -0.6707
12464TIP3    H158807   4.821   3.023  13.259 -0.2419  0.6209 -2.3224
12464TIP3    H258808   4.732   2.908  13.218  0.0676  0.0562 -1.4191
12465TIP3   OH258809   5.934   5.259  11.537  0.4313  0.5456  0.4389
12465TIP3    H158810   5.943   5.230  11.446 -1.0536  0.6234  0.2390
12465TIP3    H258811   5.913   5.180  11.586 -1.5640  0.8965  0.2284
12466TIP3   OH258812   3.496   6.528  15.619  0.5862 -0.4470 -0.2712
12466TIP3    H158813   3.587   6.508  15.638 -0.1633 -2.6486  1.4867
12466TIP3    H258814   3.455   6.540  15.705 -1.0292 -0.8577 -0.9328
12467TIP3   OH258815   5.092   5.980  15.107  0.3185 -0.0864  0.2310
12467TIP3    H158816   4.997   5.978  15.117  0.5799  0.0491  3.8658
12467TIP3    H258817   5.123   5.900  15.150  1.9189  1.0610  1.3427
12468TIP3   OH258818   5.591   0.497   3.929 -0.4435 -0.3510 -0.2962
12468TIP3    H158819   5.664   0.441   3.904 -0.5060  0.1320 -1.6170
12468TIP3    H258820   5.624   0.586   3.919 -0.8749 -0.1300  0.1755
12469TIP3   OH258821   3.291   3.806   5.012 -0.1823  0.4139 -0.2815
12469TIP3    H158822   3.308   3.767   5.097  1.2737 -0.6765 -1.0317
12469TIP3    H258823   3.337   3.890   5.013 -1.7503  1.3036  0.6542
12470TIP3   OH258824   6.084   5.019   2.904 -0.0650 -0.5364 -0.5177
12470TIP3    H158825   6.088   4.931   2.867  0.5416 -0.4853 -0.5934
12470TIP3    H258826   6.078   5.005   2.999 -2.8787 -0.6875 -0.6567
12471TIP3   OH258827   0.803   3.200  13.459  0.1235  0.5620  0.4065
12471TIP3    H158828   0.778   3.232  13.372  1.1767  1.5397  0.4454
12471TIP3    H258829   0.875   3.257  13.486  0.8058 -0.6713  1.2938
12472TIP3   OH258830   3.909   3.710   2.682 -0.3116  0.4948 -0.0860
12472TIP3    H158831   3.958   3.782   2.723  0.3919  0.0387 -0.1074
12472TIP3    H258832   3.817   3.736   2.690 -0.1493  0.7171  1.1834
12473TIP3   OH258833   2.038   6.053  16.031  0.8761  0.2142 -0.0684
12473TIP3    H158834   2.060   5.976  16.084  1.1693 -0.4386 -1.1136
12473TIP3    H258835   2.114   6.110  16.039  0.1563  0.9884  1.7163
12474TIP3   OH258836   0.619   4.184  15.214  0.2763  0.0758  0.1385
12474TIP3    H158837   0.627   4.128  15.137  1.5818 -0.3119  0.5238
12474TIP3    H258838   0.697   4.240  15.211 -0.7062  1.5191  0.0700
12475TIP3   OH258839   4.939   5.228   4.138 -0.2748  0.3239 -0.3948
12475TIP3    H158840   4.924   5.133   4.137 -1.3042  0.4747 -0.5797
12475TIP3    H258841   4.852   5.265   4.153  0.1272  1.2443 -0.2897
12476TIP3   OH258842   6.109   0.633  16.493 -0.5934 -0.5592 -0.2976
12476TIP3    H158843   6.046   0.639  16.565  0.4791  1.0359  0.5658
12476TIP3    H258844   6.179   0.578  16.527 -0.5043 -0.5398 -0.4486
12477TIP3   OH258845   4.875   6.304  14.991  0.0167 -0.4676  0.5335
12477TIP3    H158846   4.812   6.238  14.963 -1.0201  1.6114 -2.5998
12477TIP3    H258847   4.828   6.357  15.055 -0.1117 -1.1149  0.9757
12478TIP3   OH258848   5.188   6.439   2.722  0.9049 -0.0240  0.2159
12478TIP3    H158849   5.181   6.397   2.808  2.3467  1.5035  1.1320
12478TIP3    H258850   5.278   6.472   2.719  0.6693  0.5595 -1.6135
12479TIP3   OH258851   6.052   2.059   0.834 -0.0689  0.3605  0.1435
12479TIP3    H158852   6.010   2.091   0.755  0.2450  0.1548 -0.1102
12479TIP3    H258853   5.984   2.065   0.902 -1.0006 -1.4011 -0.5751
12480TIP3   OH258854   4.515   0.094  16.830  0.0869 -0.2644 -0.2596
12480TIP3    H158855   4.474   0.013  16.799  0.5427 -1.5249  2.2295
12480TIP3    H258856   4.449   0.135  16.886  0.3502  0.4243 -0.4362
12481TIP3   OH258857   6.459   3.415   1.008 -0.0397 -0.7066  0.2234
12481TIP3    H158858   6.410   3.412   1.090  0.2188 -0.7515  0.3792
12481TIP3    H258859   6.426   3.493   0.964 -0.9924 -1.3154 -0.1541
12482TIP3   OH258860   6.177   4.088   1.514  0.9405 -0.0836  0.3084
12482TIP3    H158861   6.102   4.108   1.569 -2.0511 -0.4278 -3.2111
12482TIP3    H258862   6.210   4.004   1.546 -1.2617 -0.7456  0.9695
12483TIP3   OH258863   1.659   0.002  12.222  0.3449  0.1347 -0.2389
12483TIP3    H158864   1.602  -0.066  12.259 -2.4606  1.1737 -2.3033
12483TIP3    H258865   1.657   0.072  12.287  0.7954 -0.5566  0.5391
12484TIP3   OH258866   5.620   1.196   2.745 -0.4600  0.9770  0.0368
12484TIP3    H158867   5.659   1.269   2.696 -0.8490  1.9116  1.0974
12484TIP3    H258868   5.690   1.131   2.749 -0.4957  0.7448 -1.9784
12485TIP3   OH258869   6.688   0.770   2.079  0.1472 -0.1516 -0.1833
12485TIP3    H158870   6.670   0.684   2.042  1.9691 -0.3265 -0.7383
12485TIP3    H258871   6.779   0.788   2.057  0.1470  1.4364  0.9018
12486TIP3   OH258872   2.909   5.361  14.282  0.3177  0.7789  0.6883
12486TIP3    H158873   2.885   5.446  14.319 -1.4412  0.3518  0.5952
12486TIP3    H258874   2.842   5.343  14.216  1.2358 -0.2378 -0.0128
12487TIP3   OH258875   6.211   2.631   6.195 -0.1863 -0.2154  0.3894
12487TIP3    H158876   6.210   2.683   6.276 -3.9661 -0.4263  0.6603
12487TIP3    H258877   6.178   2.691   6.128  2.9456 -0.0306 -1.1584
12488TIP3   OH258878   5.305   1.605  12.020 -0.2786 -0.0066 -0.5272
12488TIP3    H158879   5.400   1.614  12.024 -0.2969  0.7554 -1.5016
12488TIP3    H258880   5.276   1.610  12.112  0.5540  0.4344 -0.2813
12489TIP3   OH258881   6.137   1.239  11.492  0.1119 -0.6493  0.2779
12489TIP3    H158882   6.182   1.297  11.554  0.3610 -0.1621 -0.3390
12489TIP3    H258883   6.142   1.152  11.532  2.1125 -0.7270 -0.0110
12490TIP3   OH258884   2.794   6.485  14.956 -0.1615  0.1359 -0.3389
12490TIP3    H158885   2.721   6.544  14.968  0.4452  0.5013  1.9715
12490TIP3    H258886   2.757   6.397  14.967 -0.4880  0.2517 -0.5304
12491TIP3   OH258887   4.247   1.859   1.546 -0.2036 -0.5266 -0.1975
12491TIP3    H158888   4.194   1.831   1.471  1.1310  0.2007 -1.4521
12491TIP3    H258889   4.327   1.894   1.508  0.1262  0.7578  1.5271
12492TIP3   OH258890   3.298   1.624   2.465 -0.2377 -0.1824 -0.3922
12492TIP3    H158891   3.270   1.645   2.554  2.7353 -1.1080  0.8820
12492TIP3    H258892   3.217   1.605   2.418 -1.8361 -1.0135  2.4846
12493TIP3   OH258893   0.898   5.177   6.100 -0.3063 -0.2304  0.1248
12493TIP3    H158894   0.914   5.104   6.160 -0.9150 -0.7694 -0.3638
12493TIP3    H258895   0.909   5.255   6.154 -0.0823 -0.6903  0.7539
12494TIP3   OH258896   2.258   6.529   6.264 -0.3972  0.1541 -0.3022
12494TIP3    H158897   2.321   6.492   6.202  1.9364  2.1167  0.7029
12494TIP3    H258898   2.266   6.624   6.252  0.5700  0.6730  3.2127
12495TIP3   OH258899   4.569   4.056  14.868  0.2381  0.0887 -0.7486
12495TIP3    H158900   4.522   3.989  14.918 -0.9935 -0.2001 -2.1982
12495TIP3    H258901   4.660   4.027  14.868  0.0351 -0.6001  0.1846
12496TIP3   OH258902   4.953   2.167  11.275 -0.2041 -0.5994  0.3699
12496TIP3    H158903   5.031   2.116  11.253  0.3755  1.4064 -2.7871
12496TIP3    H258904   4.880   2.114  11.242  0.2841 -0.0757 -1.6307
12497TIP3   OH258905   5.041   4.330   5.191  0.4253 -0.2004 -0.1934
12497TIP3    H158906   5.089   4.413   5.182 -0.2500  0.1231 -1.0719
12497TIP3    H258907   4.949   4.355   5.179 -0.1084 -0.6527  2.3597
12498TIP3   OH258908   3.537   5.211  12.231  0.0870 -0.2709  0.5236
12498TIP3    H158909   3.580   5.233  12.149 -0.8794  1.7478  0.5063
12498TIP3    H258910   3.582   5.131  12.261  2.2417  0.4239 -0.6199
12499TIP3   OH258911   0.425   2.957  13.445 -0.0752  0.0059 -0.5505
12499TIP3    H158912   0.347   2.962  13.501  0.0025  0.7225 -0.4968
12499TIP3    H258913   0.392   2.928  13.360 -0.6659  1.8575 -1.0025
12500TIP3   OH258914   3.045   0.617   2.990 -0.5664  0.0852 -0.2762
12500TIP3    H158915   3.038   0.583   3.080  0.9596  0.2242 -0.0750
12500TIP3    H258916   2.956   0.643   2.968 -0.9331  0.3373  1.3215
12501TIP3   OH258917   3.619   5.919   5.302 -0.3077 -0.2931 -0.2777
12501TIP3    H158918   3.612   5.973   5.223 -2.7379  0.3887  0.3346
12501TIP3    H258919   3.702   5.946   5.341 -0.5769  1.6829 -0.9539
12502TIP3   OH258920   2.831   0.390   5.866 -0.1309  0.7579 -0.2740
12502TIP3    H158921   2.913   0.364   5.825 -0.1276 -0.6112  0.5289
12502TIP3    H258922   2.855   0.417   5.955 -0.3471  2.0414 -0.5866
12503TIP3   OH258923   1.390   4.625  14.510 -0.0942 -1.0654 -0.9922
12503TIP3    H158924   1.435   4.554  14.465 -0.7227 -2.3293  0.2845
12503TIP3    H258925   1.453   4.657  14.574 -0.6759 -2.2789  0.2296
12504TIP3   OH258926   3.811   6.664  17.353 -0.2298 -0.4827 -0.1807
12504TIP3    H158927   3.776   6.752  17.369 -0.5481 -0.6838  0.2362
12504TIP3    H258928   3.759   6.632  17.279  0.8530  0.2230 -1.2814
12505TIP3   OH258929   3.841   0.553   1.615  0.4248 -0.2987 -0.1880
12505TIP3    H158930   3.870   0.478   1.564  1.3039  0.2532 -0.5277
12505TIP3    H258931   3.746   0.558   1.601  0.5478 -0.5991 -1.1564
12506TIP3   OH258932   5.986   6.113  14.931 -0.0064 -0.2671 -0.1023
12506TIP3    H158933   5.939   6.191  14.900 -0.4020 -0.5162 -0.1395
12506TIP3    H258934   6.047   6.147  14.996 -0.7951 -0.0281  0.5436
12507TIP3   OH258935   0.935   0.117   2.045  0.1962 -0.6016  0.7612
12507TIP3    H158936   1.010   0.081   2.092 -0.3155  0.2375  2.2916
12507TIP3    H258937   0.957   0.106   1.952  3.8400  2.6804  0.9873
12508TIP3   OH258938   4.994   3.688  16.433 -0.4462  0.6574 -0.2602
12508TIP3    H158939   4.999   3.638  16.514 -1.1928  1.2079  0.1498
12508TIP3    H258940   4.915   3.655  16.389  0.1693  0.0932 -0.9574
12509TIP3   OH258941   5.436   1.533   6.434 -0.2115 -0.0905 -0.2235
12509TIP3    H158942   5.527   1.547   6.408  0.0946 -1.4165  0.0783
12509TIP3    H258943   5.428   1.438   6.445 -2.1423 -0.2588 -2.1884
12510TIP3   OH258944   5.928   1.211   2.969 -0.7652 -0.4696 -0.0180
12510TIP3    H158945   5.901   1.302   2.983 -3.4411 -1.5105  2.8692
12510TIP3    H258946   5.996   1.196   3.035 -0.4346 -0.6273 -0.3911
12511TIP3   OH258947   4.124   6.361  13.194 -0.8821 -0.3138  0.0704
12511TIP3    H158948   4.178   6.440  13.195  0.6938 -1.3355  0.3969
12511TIP3    H258949   4.109   6.341  13.287 -0.8952 -0.6227  0.0037
12512TIP3   OH258950   2.330   0.096   5.074  0.3125 -0.5914  0.3062
12512TIP3    H158951   2.238   0.080   5.057  0.3441 -1.1569  0.6291
12512TIP3    H258952   2.332   0.182   5.117  0.1662  0.4739 -1.7121
12513TIP3   OH258953   3.522   3.788   5.358  0.0608 -0.0595 -0.4551
12513TIP3    H158954   3.583   3.750   5.421 -0.8873  0.0366  0.5400
12513TIP3    H258955   3.577   3.812   5.283  0.9651 -1.6845 -0.3642
12514TIP3   OH258956   5.673   3.688   0.449  0.3160  0.2680 -0.0370
12514TIP3    H158957   5.661   3.620   0.383  1.4836  0.5064 -0.5158
12514TIP3    H258958   5.731   3.648   0.514  1.6628  1.0237 -0.7179
12515TIP3   OH258959   4.830   2.857  15.612  0.0323  0.1485 -0.5145
12515TIP3    H158960   4.815   2.952  15.611 -0.9865  0.0724  1.6130
12515TIP3    H258961   4.923   2.847  15.592  0.9827  1.8974  2.3673
12516TIP3   OH258962   0.418   6.579  15.670 -0.7445 -0.3408  0.8781
12516TIP3    H158963   0.426   6.506  15.731 -0.0767 -3.1030 -2.2199
12516TIP3    H258964   0.504   6.621  15.673  0.2364 -2.1459  0.0062
12517TIP3   OH258965   3.678   2.695  16.069 -0.5306  0.6208 -0.1702
12517TIP3    H158966   3.736   2.702  15.994 -0.8569 -0.5361 -0.5526
12517TIP3    H258967   3.709   2.761  16.130  0.0874  1.1981 -1.0916
12518TIP3   OH258968   2.435   5.302   1.182  0.6327 -0.2173 -0.8160
12518TIP3    H158969   2.515   5.250   1.176  1.0835 -0.4889  3.7610
12518TIP3    H258970   2.462   5.382   1.226 -1.5299 -0.2297  0.6742
12519TIP3   OH258971   3.616   6.651   1.654 -0.2930  0.1678  0.2187
12519TIP3    H158972   3.584   6.687   1.571 -0.6116  0.6460  0.5450
12519TIP3    H258973   3.695   6.701   1.673  0.1052 -0.3318 -0.0771
12520TIP3   OH258974   3.540   2.547   3.930  0.0119  0.3705  0.7307
12520TIP3    H158975   3.543   2.611   4.001 -0.7420  1.2749 -0.0330
12520TIP3    H258976   3.613   2.571   3.873 -0.0062  0.2785  0.6688
12521TIP3   OH258977   4.809   5.366  13.228 -0.0098 -0.4234 -0.2486
12521TIP3    H158978   4.891   5.324  13.200  0.5557  0.7355 -0.4081
12521TIP3    H258979   4.744   5.338  13.164  0.4384 -0.7507 -0.5634
12522TIP3   OH258980   3.656   0.359  11.443  0.4536  0.5206  0.3530
12522TIP3    H158981   3.575   0.313  11.421  1.2590 -0.5724 -0.4352
12522TIP3    H258982   3.666   0.347  11.538  0.6477 -0.9973  0.1706
12523TIP3   OH258983   1.463   4.336   3.841  0.4721  1.1391 -0.2086
12523TIP3    H158984   1.435   4.279   3.912  1.4761  2.0669  0.9723
12523TIP3    H258985   1.459   4.281   3.763  0.5054 -0.2605  0.7471
12524TIP3   OH258986   2.954   6.358   2.184 -0.1744 -0.0423  0.1133
12524TIP3    H158987   2.906   6.366   2.101 -1.3746  0.4116  0.8287
12524TIP3    H258988   2.990   6.446   2.198  3.5373 -1.0267 -1.9081
12525TIP3   OH258989   0.988   3.751   4.891  0.2722 -0.4936  0.2837
12525TIP3    H158990   0.894   3.750   4.875  0.1416 -0.8678  1.0421
12525TIP3    H258991   0.997   3.752   4.986  1.0203  1.7536  0.2429
12526TIP3   OH258992   6.636   3.903   4.039 -0.3205  0.2653 -0.4012
12526TIP3    H158993   6.728   3.927   4.050 -0.0587 -0.6374 -0.5732
12526TIP3    H258994   6.616   3.850   4.116 -1.0208  1.3834  0.2030
12527TIP3   OH258995   0.762   6.149  13.531  0.8699 -0.0257 -0.6150
12527TIP3    H158996   0.707   6.209  13.582  2.0467 -0.1209  0.8377
12527TIP3    H258997   0.701   6.082  13.500  0.2186 -0.4905  1.4966
12528TIP3   OH258998   1.742   2.853   0.570  0.0179 -0.1222  0.4169
12528TIP3    H158999   1.738   2.887   0.481 -0.4711  2.7621  1.4265
12528TIP3    H259000   1.733   2.930   0.625  2.1753 -1.5534  3.0068
12529TIP3   OH259001   5.167   2.148  15.078  0.2344 -0.1136 -0.2218
12529TIP3    H159002   5.175   2.162  14.984 -0.4937 -1.4912 -0.5064
12529TIP3    H259003   5.242   2.194  15.115 -0.3278  1.7890 -1.3142
12530TIP3   OH259004   3.866   5.350  14.750  0.4640 -0.5068 -0.3547
12530TIP3    H159005   3.859   5.416  14.681  1.3221  1.1222  1.0542
12530TIP3    H259006   3.959   5.332  14.758  0.5424  0.3955  1.2933
12531TIP3   OH259007   6.064   0.977   4.049  0.2260 -0.3223  0.5792
12531TIP3    H159008   5.998   1.020   4.104 -1.5790  0.4945 -1.9865
12531TIP3    H259009   6.147   0.999   4.090 -0.8763  2.0433  1.7929
12532TIP3   OH259010   3.212   5.304  16.144  0.1426  0.6674 -0.0678
12532TIP3    H159011   3.264   5.384  16.156  1.3409  0.0661 -1.0349
12532TIP3    H259012   3.275   5.233  16.151 -0.7643 -0.1599 -0.0832
12533TIP3   OH259013   3.082   4.121  12.547  0.1163  0.5814  0.3850
12533TIP3    H159014   3.097   4.057  12.477 -1.2296  0.5246  0.1185
12533TIP3    H259015   3.014   4.082  12.602 -1.5707  2.2158 -0.4155
12534TIP3   OH259016   5.925   0.121   5.152  0.0389  0.3125  0.0449
12534TIP3    H159017   5.965   0.164   5.227  2.7494 -0.6365 -0.7414
12534TIP3    H259018   5.932   0.185   5.081 -2.4799  1.1938  0.4686
12535TIP3   OH259019   4.325   0.452  13.822  0.1210  0.1960  0.1447
12535TIP3    H159020   4.286   0.364  13.823  0.8086 -0.1172  0.3428
12535TIP3    H259021   4.415   0.438  13.851  1.0482  0.5632 -2.3363
12536TIP3   OH259022   5.852   4.501   3.089  0.4250 -0.7010 -0.0276
12536TIP3    H159023   5.877   4.472   3.001  2.0003 -3.0435  1.1068
12536TIP3    H259024   5.935   4.513   3.136 -0.3079  2.0486  0.7835
12537TIP3   OH259025   2.756   0.033   3.535 -0.3139  0.9061 -0.0371
12537TIP3    H159026   2.680  -0.021   3.513 -0.0792  0.8204 -0.6561
12537TIP3    H259027   2.735   0.120   3.501 -0.8853  1.3393  1.3553
12538TIP3   OH259028   1.574   0.346  11.849 -0.4973 -0.3673  0.6611
12538TIP3    H159029   1.527   0.418  11.807 -0.5328  0.1150  1.4889
12538TIP3    H259030   1.655   0.337  11.798 -0.0253  0.9483  1.1163
12539TIP3   OH259031   6.117   4.666   5.017  0.0319 -0.0698  0.0586
12539TIP3    H159032   6.043   4.621   4.974 -0.0345 -0.2541  0.3613
12539TIP3    H259033   6.147   4.729   4.952 -0.2555 -0.1431 -0.1516
12540TIP3   OH259034   1.643   0.593   4.116 -0.0948  0.2457 -0.1000
12540TIP3    H159035   1.602   0.602   4.030 -1.8421 -0.3899  0.6095
12540TIP3    H259036   1.654   0.683   4.147 -0.3587  0.4481 -0.5862
12541TIP3   OH259037   6.012   6.272  13.102  0.0933 -0.2090 -0.5857
12541TIP3    H159038   6.092   6.222  13.084  0.7869  0.1514  1.2604
12541TIP3    H259039   6.043   6.351  13.146 -1.3428 -1.1378  2.3788
12542TIP3   OH259040   5.025   2.252  12.615 -0.5759  0.1444  0.0686
12542TIP3    H159041   4.949   2.300  12.581  0.8586  2.8492  0.4451
12542TIP3    H259042   5.007   2.161  12.593 -2.3292  1.0800 -2.9079
12543TIP3   OH259043   3.469   1.554   1.428  0.1352 -0.0317  0.3573
12543TIP3    H159044   3.498   1.469   1.393  0.4497  0.4253 -0.5104
12543TIP3    H259045   3.389   1.534   1.476  0.0389 -0.7794 -0.0965
12544TIP3   OH259046   5.208   2.210  10.875  0.5525 -0.0456  0.5016
12544TIP3    H159047   5.152   2.190  10.800  1.0057  1.4148 -0.2524
12544TIP3    H259048   5.205   2.130  10.928 -2.4229  0.0356  0.6324
12545TIP3   OH259049   3.552   5.814   2.566  0.3898  0.1677 -0.1867
12545TIP3    H159050   3.535   5.838   2.657  2.1380  0.5175  0.0854
12545TIP3    H259051   3.533   5.894   2.517 -0.3031  0.0578 -0.1083
12546TIP3   OH259052   4.679   0.929  13.993  0.1168  0.1622  0.2960
12546TIP3    H159053   4.691   1.024  13.995  1.2818  0.0800 -0.9266
12546TIP3    H259054   4.589   0.916  13.963 -0.3161  0.8744  1.2752
12547TIP3   OH259055   2.866   3.983   1.167  0.2326 -0.3059 -0.1578
12547TIP3    H159056   2.834   3.893   1.174  1.6485 -0.7021  2.3139
12547TIP3    H259057   2.933   3.990   1.234 -1.4795  3.3040  1.4657
12548TIP3   OH259058   1.312   1.241  16.755 -0.3987 -0.2016 -0.1651
12548TIP3    H159059   1.407   1.227  16.748 -0.4624 -1.1602  0.7331
12548TIP3    H259060   1.274   1.170  16.704 -0.6472 -0.2154  0.0424
12549TIP3   OH259061   5.072   1.559  13.968 -0.4109 -0.0085 -0.2855
12549TIP3    H159062   4.978   1.578  13.962 -0.4625 -0.2619 -0.3046
12549TIP3    H259063   5.086   1.486  13.908  0.0673  0.9396 -1.3662
12550TIP3   OH259064   5.933   4.745   1.124 -0.2472  0.1902  0.4637
12550TIP3    H159065   5.921   4.652   1.104 -0.0710  0.4141 -0.7532
12550TIP3    H259066   5.844   4.780   1.128 -0.2884  0.2128 -0.3694
12551TIP3   OH259067   1.483   2.705   3.791 -0.3183  0.4288 -0.0426
12551TIP3    H159068   1.411   2.656   3.831 -1.4073  1.0403 -1.1649
12551TIP3    H259069   1.505   2.656   3.712 -1.9122  2.0311 -1.5691
12552TIP3   OH259070   3.813   4.947   1.413  0.0283  0.0928 -0.0858
12552TIP3    H159071   3.765   5.023   1.446 -0.9074 -0.3295 -0.4457
12552TIP3    H259072   3.900   4.982   1.393 -0.7861  1.4342 -1.5898
12553TIP3   OH259073   6.591   2.507  17.050  0.0714 -0.2050  0.2792
12553TIP3    H159074   6.686   2.520  17.050  0.0804 -0.2112 -0.6433
12553TIP3    H259075   6.569   2.484  16.959 -0.8618  0.1994  0.3815
12554TIP3   OH259076   1.951   1.271   3.750  0.0114  0.0436 -0.0855
12554TIP3    H159077   1.885   1.249   3.816  0.6721 -0.4380  0.4311
12554TIP3    H259078   2.028   1.220   3.775 -0.2771 -1.6144 -2.2739
12555TIP3   OH259079   0.712   6.278  12.088 -0.4805 -0.5922  0.3139
12555TIP3    H159080   0.737   6.366  12.060 -2.1697 -0.9860 -3.0046
12555TIP3    H259081   0.783   6.221  12.058 -0.1932 -0.5607  0.9207
12556TIP3   OH259082   2.596   2.960   4.347  0.4397 -0.0416  0.4813
12556TIP3    H159083   2.601   2.925   4.258  1.3401  0.2569  0.3990
12556TIP3    H259084   2.567   2.886   4.400  0.8045 -0.4886  0.0743
12557TIP3   OH259085   4.517   6.033  11.443 -0.0642  0.4577  0.0868
12557TIP3    H159086   4.532   6.094  11.371  0.5172 -0.4401 -0.5544
12557TIP3    H259087   4.588   6.051  11.505 -0.3520  0.9685  0.2830
12558TIP3   OH259088   2.948   5.565  15.829  0.0947 -0.4015 -0.3562
12558TIP3    H159089   2.908   5.649  15.805 -0.7455 -0.1059  1.8683
12558TIP3    H259090   3.012   5.587  15.897 -0.5407 -1.5973  0.6700
12559TIP3   OH259091   0.519   3.972  14.496 -0.5219 -0.1905 -0.0491
12559TIP3    H159092   0.555   4.049  14.542 -0.6818 -0.2342  0.1496
12559TIP3    H259093   0.586   3.950  14.431 -0.7245  0.4623 -0.4868
12560TIP3   OH259094   6.137   5.539   2.716  0.2567  0.4993  0.1470
12560TIP3    H159095   6.211   5.545   2.775 -0.3554  3.5836  0.7624
12560TIP3    H259096   6.090   5.460   2.745  1.4206  0.4216  1.9931
12561TIP3   OH259097   4.093   4.660   0.305 -0.4589 -0.2112 -0.4018
12561TIP3    H159098   4.021   4.722   0.298 -0.4543  0.1115  1.6666
12561TIP3    H259099   4.150   4.679   0.231 -0.1913  2.6494  0.4244
12562TIP3   OH259100   0.588   4.599   5.218  0.5760  0.2682  0.0976
12562TIP3    H159101   0.651   4.661   5.180 -0.1401  0.7252 -0.3668
12562TIP3    H259102   0.632   4.565   5.296  1.6326  0.1428 -0.5246
12563TIP3   OH259103   6.437   2.166  11.812  0.5859 -0.2506  0.3734
12563TIP3    H159104   6.512   2.222  11.832  0.0463 -0.0128  1.8743
12563TIP3    H259105   6.474   2.094  11.760  1.2663  1.4868 -1.6937
12564TIP3   OH259106   6.418   0.712  16.739  0.3432 -0.0009 -0.0999
12564TIP3    H159107   6.384   0.636  16.690 -1.0489  0.4697  0.0912
12564TIP3    H259108   6.443   0.774  16.671 -1.0953  0.4398 -0.2646
12565TIP3   OH259109   0.444   1.596   0.593  0.7065 -0.0871  0.2674
12565TIP3    H159110   0.400   1.673   0.628  1.0819 -0.1121  0.7978
12565TIP3    H259111   0.373   1.539   0.564  0.4058  0.0460  0.7461
12566TIP3   OH259112   1.434   2.954  16.543  0.1330  0.3093  0.5773
12566TIP3    H159113   1.386   2.877  16.511 -0.4833  0.8044  0.2917
12566TIP3    H259114   1.413   2.958  16.637  0.1187  0.1687  0.5801
12567TIP3   OH259115   5.659   2.628   3.236 -0.1035  0.7035 -0.2718
12567TIP3    H159116   5.598   2.614   3.163  0.5671  0.6566 -0.8390
12567TIP3    H259117   5.624   2.575   3.307 -1.8731  2.2396  0.1121
12568TIP3   OH259118   4.751   0.841   4.497 -0.0895 -0.3451 -0.6662
12568TIP3    H159119   4.834   0.811   4.533 -0.7151  0.0598  1.2026
12568TIP3    H259120   4.756   0.936   4.502 -0.6185 -0.3178 -0.6357
12569TIP3   OH259121   3.186   2.726   3.983 -0.3760 -0.3901 -0.7390
12569TIP3    H159122   3.183   2.814   3.945 -0.5094 -0.4510 -0.8681
12569TIP3    H259123   3.111   2.681   3.945  0.0458 -0.7528 -1.1421
12570TIP3   OH259124   4.999   3.043  15.404 -0.5061  0.4657 -0.4369
12570TIP3    H159125   5.027   3.077  15.319 -0.5985  1.2426 -0.1627
12570TIP3    H259126   5.081   3.021  15.449 -0.3954  1.1896 -0.2710
12571TIP3   OH259127   4.894   5.931  13.064  0.4363  0.3976  0.1914
12571TIP3    H159128   4.932   5.848  13.038 -1.6224  0.2712 -2.9601
12571TIP3    H259129   4.890   5.927  13.160  0.4370 -3.0851  0.1666
12572TIP3   OH259130   1.995   5.351   5.836  0.3033  0.6690  0.0422
12572TIP3    H159131   2.065   5.375   5.775  1.2762 -0.2285  0.7695
12572TIP3    H259132   1.990   5.425   5.897 -0.0974  1.1912 -0.6115
12573TIP3   OH259133   4.437   2.339  11.368  0.4690 -0.1514  0.8226
12573TIP3    H159134   4.494   2.349  11.292 -1.3708 -1.7162 -0.8700
12573TIP3    H259135   4.414   2.246  11.369 -2.7531  0.5271  0.7926
12574TIP3   OH259136   6.055   5.532   3.132  0.1749  0.2128 -0.0585
12574TIP3    H159137   6.005   5.613   3.122 -0.1156 -0.1035 -1.4282
12574TIP3    H259138   5.991   5.462   3.118  0.5378 -0.2576  0.5512
12575TIP3   OH259139   3.049   4.473  14.647  0.1211 -0.6240  0.2142
12575TIP3    H159140   3.047   4.567  14.668 -0.7848 -0.0500 -2.1324
12575TIP3    H259141   2.957   4.447  14.647  0.2616 -1.1471 -0.5572
12576TIP3   OH259142   1.786   5.811  16.757  0.3709 -0.1045  0.6899
12576TIP3    H159143   1.868   5.850  16.787  0.0542  1.8953 -0.8154
12576TIP3    H259144   1.775   5.844  16.667 -2.0214 -0.3847  0.8163
12577TIP3   OH259145   4.131   1.842  14.818 -0.0098 -0.0354  0.9355
12577TIP3    H159146   4.072   1.909  14.783 -0.3779 -1.5774 -1.6263
12577TIP3    H259147   4.200   1.834  14.753  0.4285 -1.6193  1.5413
12578TIP3   OH259148   5.254   4.161  13.404 -0.1544  0.1561 -0.0837
12578TIP3    H159149   5.165   4.185  13.379 -0.7620  0.4218  2.1610
12578TIP3    H259150   5.274   4.217  13.479  1.7661 -0.1686 -0.3166
12579TIP3   OH259151   2.379   6.293   0.486  0.4605 -0.3037  0.3604
12579TIP3    H159152   2.284   6.289   0.499  0.6204 -0.6033  1.5395
12579TIP3    H259153   2.389   6.308   0.393 -0.7246 -1.8701 -0.0797
12580TIP3   OH259154   5.752   4.099  16.616 -0.0150  1.2059  0.4280
12580TIP3    H159155   5.668   4.067  16.646 -0.8567  3.2223  0.3701
12580TIP3    H259156   5.734   4.186  16.581  2.0077  1.4945 -0.0488
12581TIP3   OH259157   1.919   0.784   1.221  1.0955  0.7049 -0.6351
12581TIP3    H159158   1.826   0.780   1.202  1.3502  0.1919 -1.8509
12581TIP3    H259159   1.951   0.860   1.172  1.3595  0.7370 -0.4189
12582TIP3   OH259160   1.024   5.010   6.788 -0.2024  0.3039 -0.3622
12582TIP3    H159161   1.038   5.024   6.881 -1.9265 -0.5409  0.0607
12582TIP3    H259162   0.929   5.014   6.776 -0.1422 -1.1499 -1.7910
12583TIP3   OH259163   2.539   4.341  15.286 -1.0067  1.0537 -0.2285
12583TIP3    H159164   2.618   4.392  15.303 -0.9101  1.2136 -1.0759
12583TIP3    H259165   2.538   4.330  15.190 -1.3231 -0.0445 -0.1201
12584TIP3   OH259166   1.250   6.254  12.197 -0.7041 -0.0676  0.0773
12584TIP3    H159167   1.243   6.162  12.223  0.2964 -1.2338 -3.1944
12584TIP3    H259168   1.343   6.275  12.208 -0.3653 -0.4205 -1.7112
12585TIP3   OH259169   6.304   2.805   5.185  0.1549 -0.4855 -0.2448
12585TIP3    H159170   6.362   2.880   5.193  0.0414 -0.4411  0.1787
12585TIP3    H259171   6.241   2.831   5.117  0.0027 -0.1180  0.0281
12586TIP3   OH259172   4.160   0.482   3.607 -0.5529  0.9131 -0.3143
12586TIP3    H159173   4.106   0.553   3.574 -0.6853  0.2596 -1.5703
12586TIP3    H259174   4.243   0.491   3.560 -0.3875  0.5560 -0.0985
12587TIP3   OH259175   1.321   3.253   2.536  0.3090 -0.1115 -0.6027
12587TIP3    H159176   1.293   3.339   2.507 -0.6951 -0.0115  0.5712
12587TIP3    H259177   1.299   3.194   2.464 -2.2183  0.1006 -0.0939
12588TIP3   OH259178   1.185   4.331  12.124  0.4323 -0.2521  0.0588
12588TIP3    H159179   1.102   4.354  12.165  1.2929  1.7871  0.7920
12588TIP3    H259180   1.201   4.241  12.152 -1.4491 -0.6562 -0.0287
12589TIP3   OH259181   3.198   0.112  16.125  0.0562  0.3849  0.4102
12589TIP3    H159182   3.195   0.089  16.032  2.3412 -1.7730  0.7668
12589TIP3    H259183   3.140   0.048  16.167  0.0223  0.5418  0.6014
12590TIP3   OH259184   3.170   6.480  15.406 -0.5015  0.0101  0.1252
12590TIP3    H159185   3.228   6.403  15.410 -0.6086 -0.0493  0.5643
12590TIP3    H259186   3.155   6.494  15.312 -2.7780 -2.2343  0.0601
12591TIP3   OH259187   3.861   2.292  16.621 -0.2306 -0.0872 -0.3157
12591TIP3    H159188   3.857   2.378  16.580  0.9022 -0.5436 -1.4652
12591TIP3    H259189   3.931   2.246  16.574  0.5620 -0.9380  1.6118
12592TIP3   OH259190   4.597   6.696  11.656 -0.6048 -0.1303 -0.4179
12592TIP3    H159191   4.622   6.606  11.678  0.1870  0.2110  0.0872
12592TIP3    H259192   4.501   6.693  11.651 -0.6792 -0.6833  0.9954
12593TIP3   OH259193   4.474   3.156  16.197 -0.0534 -0.0491 -0.2744
12593TIP3    H159194   4.477   3.208  16.277  1.9754 -0.0933 -0.2882
12593TIP3    H259195   4.383   3.165  16.167 -0.7779  0.2484  1.8126
12594TIP3   OH259196   0.815   4.406  12.024  0.2594 -0.0520 -0.0910
12594TIP3    H159197   0.819   4.312  12.040  1.0837  0.0288  0.1815
12594TIP3    H259198   0.754   4.414  11.950 -2.0223 -0.5726  1.6218
12595TIP3   OH259199   5.615   2.599   4.053 -0.2452 -0.2218 -0.2717
12595TIP3    H159200   5.685   2.650   4.013 -1.3896  0.8284 -0.9984
12595TIP3    H259201   5.607   2.633   4.142 -0.9402  0.8480 -0.7243
12596TIP3   OH259202   2.623   3.613  11.535  0.3760 -0.2931 -0.0560
12596TIP3    H159203   2.567   3.549  11.492  0.6157 -0.2706 -0.4071
12596TIP3    H259204   2.624   3.588  11.627 -0.8451  0.1649  0.0928
12597TIP3   OH259205   4.536   3.181  14.742 -0.4785 -0.1626  0.2155
12597TIP3    H159206   4.576   3.139  14.665  0.0442  0.5073  0.1143
12597TIP3    H259207   4.494   3.260  14.707  0.4069  0.5466  0.7139
12598TIP3   OH259208   3.563   6.055   6.708 -0.5384  0.1254  0.4104
12598TIP3    H159209   3.501   6.113   6.753 -0.3328 -1.0279  2.2947
12598TIP3    H259210   3.533   5.967   6.730  2.1242 -0.4808  1.9788
12599TIP3   OH259211   4.312   0.817  10.759  0.0575  0.1296  0.1498
12599TIP3    H159212   4.375   0.745  10.757  0.2601  0.1331  2.9232
12599TIP3    H259213   4.227   0.773  10.763  0.1014  0.0484  0.2122
12600TIP3   OH259214   2.423   6.049   4.595  0.1477 -0.3403 -0.0904
12600TIP3    H159215   2.372   5.983   4.642 -1.7057 -0.1170 -1.6404
12600TIP3    H259216   2.481   6.087   4.661 -1.4023 -0.9233  1.6836
12601TIP3   OH259217   5.417   6.341  16.826 -0.6102 -0.0419  0.3655
12601TIP3    H159218   5.349   6.357  16.891 -1.3529  2.0854 -0.8559
12601TIP3    H259219   5.378   6.367  16.743  1.6640  1.2338 -0.3918
12602TIP3   OH259220   0.717   6.681   1.873 -0.0838  0.4406  0.4282
12602TIP3    H159221   0.797   6.675   1.820 -0.2493  1.9551 -0.0455
12602TIP3    H259222   0.742   6.644   1.958  0.2173 -1.9459 -0.6022
12603TIP3   OH259223   0.894   1.261   5.696  0.4675  0.6468  0.0450
12603TIP3    H159224   0.910   1.203   5.771  0.5372  0.8790  0.2089
12603TIP3    H259225   0.824   1.320   5.725  0.1783  0.4470 -0.2307
12604TIP3   OH259226   1.741   3.399   5.249  0.1834 -0.0560 -0.2841
12604TIP3    H159227   1.667   3.392   5.188 -1.8040  2.5563  1.5653
12604TIP3    H259228   1.818   3.381   5.195 -1.4204  1.7598 -3.5441
12605TIP3   OH259229   1.470   4.178   5.143  0.0412  0.2093  0.9191
12605TIP3    H159230   1.547   4.134   5.107  0.6301  3.5161 -2.5548
12605TIP3    H259231   1.506   4.255   5.187 -1.1973  1.0177  0.5544
12606TIP3   OH259232   3.737   3.192   3.764  0.2076  0.4637 -0.4236
12606TIP3    H159233   3.678   3.207   3.691 -1.4007  0.7438  0.8887
12606TIP3    H259234   3.781   3.276   3.777  1.7019  0.0041 -2.0049
12607TIP3   OH259235   3.219   6.308   6.639 -0.0501  0.6115 -0.1179
12607TIP3    H159236   3.253   6.384   6.592  1.2785 -0.6980 -1.3376
12607TIP3    H259237   3.136   6.338   6.676  0.3453  2.5833 -0.7350
12608TIP3   OH259238   3.977   2.052   1.342  0.3524 -0.3890  0.2807
12608TIP3    H159239   4.022   2.120   1.392  2.1677 -0.6096 -0.9731
12608TIP3    H259240   3.944   1.991   1.408 -1.2386  1.5973  1.4278
12609TIP3   OH259241   0.737   3.046  12.976 -0.1576  0.2862  0.1560
12609TIP3    H159242   0.770   3.018  12.891 -0.4967 -0.8222  0.3756
12609TIP3    H259243   0.816   3.063  13.028  0.0681 -0.4525  0.0692
12610TIP3   OH259244   0.696   5.310   1.208 -0.6545  0.4611 -0.4202
12610TIP3    H159245   0.782   5.287   1.174 -0.5936  0.0273  0.0150
12610TIP3    H259246   0.702   5.405   1.225 -1.0420  0.9125 -2.5905
12611TIP3   OH259247   1.666   4.716   1.221 -0.8010 -0.0037 -0.4490
12611TIP3    H159248   1.579   4.705   1.183 -1.2854  1.8020  0.0629
12611TIP3    H259249   1.663   4.664   1.302 -2.1580  1.6584  0.6433
12612TIP3   OH259250   6.233   3.095   3.507  0.2503  0.3873 -0.0289
12612TIP3    H159251   6.319   3.055   3.498 -0.7071 -1.3796 -2.6545
12612TIP3    H259252   6.236   3.173   3.452  0.6928  1.4441  1.4232
12613TIP3   OH259253   4.394   5.784   1.585 -0.0625 -0.0824  0.3822
12613TIP3    H159254   4.468   5.780   1.526 -0.5044 -1.1394 -0.1246
12613TIP3    H259255   4.323   5.738   1.539 -1.2279  1.4279  0.5887
12614TIP3   OH259256   4.077   4.287   0.678 -0.0419  0.3067  0.3454
12614TIP3    H159257   4.050   4.335   0.600 -1.2086 -1.4670 -0.4015
12614TIP3    H259258   4.072   4.195   0.653 -0.3203 -0.3212  2.4881
12615TIP3   OH259259   3.587   6.052   1.984  0.1082 -0.0739 -0.0775
12615TIP3    H159260   3.497   6.042   2.016  0.3347 -2.1861  0.0783
12615TIP3    H259261   3.581   6.037   1.890  0.3094 -0.5014 -0.0279
12616TIP3   OH259262   6.051   2.046  14.569 -0.2018 -0.4874 -0.0917
12616TIP3    H159263   6.117   2.115  14.559  0.2456 -0.6802  1.3404
12616TIP3    H259264   5.974   2.090  14.603 -0.2989 -0.5136 -0.2753
12617TIP3   OH259265   1.766   6.434  16.624 -0.7639 -0.6042 -0.1512
12617TIP3    H159266   1.747   6.463  16.535  0.0120  0.5459  0.0405
12617TIP3    H259267   1.760   6.513  16.677 -1.3927 -1.2979  0.8732
12618TIP3   OH259268   0.698   0.772  12.246 -0.2185 -0.2337 -0.1507
12618TIP3    H159269   0.690   0.681  12.275  0.6537 -0.1713  0.3302
12618TIP3    H259270   0.694   0.767  12.150  1.0475 -0.9350 -0.1899
12619TIP3   OH259271   4.134   2.008  16.011 -0.0730 -0.7374  0.0605
12619TIP3    H159272   4.169   2.020  16.099 -2.7713  0.2390  1.1068
12619TIP3    H259273   4.040   1.998  16.023 -0.3648 -2.3729 -2.6056
12620TIP3   OH259274   2.416   0.920  15.180  0.2559 -0.5548  0.2128
12620TIP3    H159275   2.420   0.825  15.180  0.5906 -0.7117  4.5058
12620TIP3    H259276   2.322   0.941  15.174  0.1533 -1.1386 -0.2618
12621TIP3   OH259277   3.905   5.287   4.505 -0.5867 -0.1856  0.3458
12621TIP3    H159278   3.977   5.328   4.553 -2.7991  2.4205  1.7411
12621TIP3    H259279   3.857   5.237   4.570 -1.5261  0.3030  0.0447
12622TIP3   OH259280   6.702   5.423  11.863  0.0425  0.1740 -0.0094
12622TIP3    H159281   6.697   5.413  11.958  1.6777  1.7425  0.3066
12622TIP3    H259282   6.618   5.461  11.838 -0.2830  0.0422  0.8632
12623TIP3   OH259283   3.834   3.557  13.285  0.5610 -0.0298 -0.5541
12623TIP3    H159284   3.860   3.475  13.326 -0.9073  0.8592  2.4382
12623TIP3    H259285   3.916   3.605  13.273  1.3671 -1.5974 -1.7990
12624TIP3   OH259286   0.128   5.686   3.043  0.4419  0.1703  0.4646
12624TIP3    H159287   0.187   5.652   3.111 -0.2599 -0.2787  0.8800
12624TIP3    H259288   0.040   5.673   3.081  0.0104 -0.5700 -0.7416
12625TIP3   OH259289   1.720   2.033   4.581 -0.2093  0.6130 -0.2133
12625TIP3    H159290   1.720   2.016   4.675  1.6413 -0.4314 -0.3546
12625TIP3    H259291   1.679   1.955   4.543  1.5014 -0.2394 -0.4009
12626TIP3   OH259292   1.637   3.774   4.216 -0.1419  0.5406 -0.1008
12626TIP3    H159293   1.725   3.740   4.235  0.0716  1.0108 -0.2120
12626TIP3    H259294   1.586   3.697   4.191  0.3251  0.3012 -0.3457
12627TIP3   OH259295   0.850   0.697  14.856 -0.2037 -0.1138  0.2794
12627TIP3    H159296   0.771   0.654  14.888 -0.5793  0.8374  0.6615
12627TIP3    H259297   0.922   0.640  14.885 -0.5418  0.5109  2.5666
12628TIP3   OH259298   2.623   4.888   2.842 -0.3773  0.0088 -0.5151
12628TIP3    H159299   2.591   4.873   2.753  1.2527 -0.9645 -0.9735
12628TIP3    H259300   2.548   4.924   2.888 -0.7398  2.5057 -2.7805
12629TIP3   OH259301   1.751   6.168  16.681  0.3714  0.5234 -0.0428
12629TIP3    H159302   1.778   6.258  16.666  0.7810  0.1420 -1.8575
12629TIP3    H259303   1.686   6.150  16.613  0.8947 -0.7907 -0.2338
12630TIP3   OH259304   4.780   5.495  16.821 -0.5464  0.7580  0.0574
12630TIP3    H159305   4.785   5.469  16.913  0.0112 -0.7128 -0.3661
12630TIP3    H259306   4.693   5.465  16.794  0.3391 -1.4207 -0.6042
12631TIP3   OH259307   0.874   6.103   2.604  0.2453  0.2926 -0.2719
12631TIP3    H159308   0.841   6.133   2.689 -2.0243  0.9291 -1.2901
12631TIP3    H259309   0.895   6.183   2.557 -0.6333  0.0728 -1.0688
12632TIP3   OH259310   1.353   4.342   1.649  0.1010  0.4399  0.1207
12632TIP3    H159311   1.380   4.333   1.558  0.7088  1.0874  0.2310
12632TIP3    H259312   1.262   4.372   1.644  0.6662  2.2227 -0.3244
12633TIP3   OH259313   3.097   1.309  13.671  0.8114  0.2908 -0.1900
12633TIP3    H159314   3.080   1.262  13.589  0.6068  0.6895 -0.3797
12633TIP3    H259315   3.192   1.319  13.674  0.8279  0.1839 -0.3269
12634TIP3   OH259316   2.705   2.345   5.387 -1.0422  0.6668 -0.0432
12634TIP3    H159317   2.684   2.402   5.313  0.5663  0.4173 -0.7308
12634TIP3    H259318   2.770   2.285   5.353 -1.7532 -0.7751  1.0424
12635TIP3   OH259319   1.359   2.174  15.662  0.3524  0.8519  0.4766
12635TIP3    H159320   1.389   2.236  15.595  1.7363  0.7743  1.0057
12635TIP3    H259321   1.300   2.115  15.614  0.4176  1.4947 -0.4258
12636TIP3   OH259322   2.214   0.514   0.593  0.3103  0.5462 -0.6338
12636TIP3    H159323   2.268   0.505   0.515 -1.4476  0.9870 -1.9585
12636TIP3    H259324   2.187   0.425   0.615  1.2672  0.3618 -0.1623
12637TIP3   OH259325   3.867   1.868   3.501  0.1704  0.7893 -0.0137
12637TIP3    H159326   3.922   1.907   3.432  1.8285 -1.1291  0.1488
12637TIP3    H259327   3.886   1.921   3.579  0.0732  1.5127 -0.4681
12638TIP3   OH259328   4.548   0.638   3.097 -0.0251  0.1247 -0.1615
12638TIP3    H159329   4.475   0.619   3.157 -0.5314 -1.1306 -1.1307
12638TIP3    H259330   4.509   0.690   3.027 -0.1875 -1.1279 -1.0394
12639TIP3   OH259331   2.213   5.117  15.496  0.3485 -0.0009 -0.4363
12639TIP3    H159332   2.243   5.199  15.536  1.2368 -0.9615  0.9787
12639TIP3    H259333   2.120   5.131  15.479  0.2894  1.0037  0.5851
12640TIP3   OH259334   2.463   3.804  14.646 -0.0488 -0.1982  0.3228
12640TIP3    H159335   2.467   3.897  14.624 -0.5680  0.2286  1.8729
12640TIP3    H259336   2.409   3.765  14.577 -0.0839  0.7075 -0.1727
12641TIP3   OH259337   1.717   6.581   1.417 -0.0417  0.6255 -0.1002
12641TIP3    H159338   1.776   6.622   1.355  0.7647 -1.5645 -0.8633
12641TIP3    H259339   1.652   6.536   1.363  0.1982 -0.6398  0.6418
12642TIP3   OH259340   1.604   5.190  16.509  0.2176  0.1123 -0.1155
12642TIP3    H159341   1.537   5.163  16.445  2.0379 -0.9177 -1.7055
12642TIP3    H259342   1.631   5.277  16.480 -0.7023  0.7322  0.8066
12643TIP3   OH259343   5.495   3.863   2.396 -0.3665  0.0686  0.1202
12643TIP3    H159344   5.586   3.866   2.424 -0.6844 -2.1985  1.6411
12643TIP3    H259345   5.460   3.949   2.420  1.1657  0.6894  0.2192
12644TIP3   OH259346   6.438   1.488  15.774 -0.3345  0.2235 -0.0381
12644TIP3    H159347   6.369   1.555  15.777 -1.4862 -0.8895 -0.5261
12644TIP3    H259348   6.514   1.531  15.813 -0.6270  2.2472 -1.4697
12645TIP3   OH259349   3.747   3.437  12.478 -0.3438  0.2047  0.0852
12645TIP3    H159350   3.720   3.484  12.400  1.4668  1.1377 -0.0391
12645TIP3    H259351   3.793   3.360  12.444 -0.6871 -0.0803  0.2581
12646TIP3   OH259352   3.703   0.546  15.095  0.3095 -0.1900 -0.1111
12646TIP3    H159353   3.631   0.492  15.062  0.1788 -0.9700  1.3716
12646TIP3    H259354   3.763   0.554  15.020 -0.6438 -0.6736 -0.9587
12647TIP3   OH259355   6.694   6.610  14.044  0.0106  0.0128 -0.6376
12647TIP3    H159356   6.661   6.524  14.071  2.1869 -0.6996 -0.0281
12647TIP3    H259357   6.732   6.595  13.958  2.0112 -0.1084  0.2281
12648TIP3   OH259358   2.052   2.414   5.140  0.2158 -0.2768 -0.0473
12648TIP3    H159359   2.080   2.427   5.050  0.4815  0.4338  0.1252
12648TIP3    H259360   2.114   2.465   5.192  0.5519 -1.3302  0.6118
12649TIP3   OH259361   6.599   1.281   6.560 -0.3627 -0.1275 -0.0279
12649TIP3    H159362   6.676   1.337   6.545 -0.9696  0.2007 -2.3038
12649TIP3    H259363   6.604   1.216   6.491 -0.9731 -1.4651  1.1447
12650TIP3   OH259364   6.416   1.935   4.284 -0.1805 -0.4224 -0.2786
12650TIP3    H159365   6.397   1.993   4.210  0.7433  0.3369  0.0581
12650TIP3    H259366   6.501   1.897   4.263 -1.6524 -3.3964 -1.5339
12651TIP3   OH259367   0.809   0.955  13.565 -0.1434 -0.2006  0.2699
12651TIP3    H159368   0.745   0.885  13.579  0.9220 -1.0651  0.9896
12651TIP3    H259369   0.790   1.020  13.633 -0.9408  0.0848 -0.2103
12652TIP3   OH259370   6.559   2.487   4.081 -0.3172 -0.8918 -0.5754
12652TIP3    H159371   6.490   2.452   4.025  0.5263 -1.2518 -1.4207
12652TIP3    H259372   6.577   2.574   4.046 -1.7342  0.0616  0.9206
12653TIP3   OH259373   5.687   6.537   4.632  0.7537  0.1991  0.1952
12653TIP3    H159374   5.595   6.519   4.613  1.3999 -1.6191 -1.6177
12653TIP3    H259375   5.698   6.512   4.723 -0.3126 -0.6405  0.1123
12654TIP3   OH259376   0.733   1.761   4.460  0.0849  0.2760 -0.2763
12654TIP3    H159377   0.666   1.761   4.529 -0.1922 -0.0475 -0.5431
12654TIP3    H259378   0.683   1.761   4.379  0.3870  1.7322 -0.4994
12655TIP3   OH259379   5.971   5.245  10.357  0.2973  0.3453  0.0171
12655TIP3    H159380   5.981   5.163  10.309 -1.4375  0.4124 -0.5096
12655TIP3    H259381   5.877   5.253  10.372  0.1091  3.2605 -1.8226
12656TIP3   OH259382   0.825   1.364  10.884 -0.2548 -0.0380 -0.4224
12656TIP3    H159383   0.761   1.293  10.880 -0.7510  0.4441 -1.6432
12656TIP3    H259384   0.902   1.329  10.840 -0.2167 -0.1062 -0.2999
12657TIP3   OH259385   5.475   6.658  15.889  0.0761 -0.2630  0.5603
12657TIP3    H159386   5.489   6.707  15.971 -0.1306 -1.7966  1.5605
12657TIP3    H259387   5.506   6.569  15.909 -1.4912 -1.0880 -0.4988
12658TIP3   OH259388   1.470   0.114   3.596 -0.1520  0.2542  0.2741
12658TIP3    H159389   1.425   0.198   3.589  0.0205  0.2502 -1.3254
12658TIP3    H259390   1.543   0.130   3.655 -2.7339  0.0085  3.8485
12659TIP3   OH259391   6.317   1.910  11.718 -0.1279 -0.0839 -0.2914
12659TIP3    H159392   6.236   1.957  11.698 -0.1726  0.0475  0.1820
12659TIP3    H259393   6.298   1.819  11.696 -0.5913 -0.1462  0.3140
12660TIP3   OH259394   0.993   2.439   3.084 -0.2490  0.1913 -0.0665
12660TIP3    H159395   0.934   2.496   3.035 -0.9075 -1.5735 -1.4600
12660TIP3    H259396   1.081   2.471   3.064 -0.5410 -0.1255 -1.9785
12661TIP3   OH259397   2.413   6.350  13.808 -0.3714  0.4410  0.8531
12661TIP3    H159398   2.447   6.420  13.863  3.2381 -2.2314  2.4583
12661TIP3    H259399   2.354   6.301  13.866  0.7535 -0.4134  1.3154
12662TIP3   OH259400   6.634   0.801   4.096 -0.1561  0.0685  0.3312
12662TIP3    H159401   6.662   0.729   4.039 -1.0619 -1.1407  1.3488
12662TIP3    H259402   6.541   0.786   4.110 -0.2463  1.1457  1.0029
12663TIP3   OH259403   3.892   4.666   3.785  0.6081  0.2304 -0.1035
12663TIP3    H159404   3.983   4.655   3.814  1.2714  1.6953 -1.5173
12663TIP3    H259405   3.894   4.648   3.691 -0.6095  0.1520 -0.1350
12664TIP3   OH259406   1.234   6.250  11.340  0.0284  0.2724 -0.0606
12664TIP3    H159407   1.202   6.204  11.418 -3.0225 -1.8156 -2.3087
12664TIP3    H259408   1.160   6.302  11.310  1.7512  2.5684 -0.5957
12665TIP3   OH259409   6.289   1.942   0.765 -0.3002 -0.2487  0.5197
12665TIP3    H159410   6.314   1.990   0.686  3.2254 -0.4412  1.3566
12665TIP3    H259411   6.218   1.993   0.803  0.3136  1.8131 -0.9436
12666TIP3   OH259412   5.810   4.682   4.584  0.0868 -0.2134 -0.2732
12666TIP3    H159413   5.733   4.630   4.563  0.0667 -1.0393  1.5754
12666TIP3    H259414   5.874   4.618   4.615  0.8724  0.6355 -0.1017
12667TIP3   OH259415   1.407   2.950  14.389 -0.1335 -0.6973 -0.2230
12667TIP3    H159416   1.396   3.023  14.449 -0.1373 -0.8242 -0.0682
12667TIP3    H259417   1.407   2.990  14.302 -0.9093 -0.5918 -0.1835
12668TIP3   OH259418   5.033   4.602  12.222 -0.2747 -0.5663  0.2040
12668TIP3    H159419   5.082   4.625  12.143  0.5401  1.3751  1.2077
12668TIP3    H259420   4.984   4.681  12.243 -0.1921 -0.9279  1.8446
12669TIP3   OH259421   3.502   5.983   4.227 -0.0030 -0.8462  0.1645
12669TIP3    H159422   3.581   6.034   4.210  0.9434 -1.6984  1.8418
12669TIP3    H259423   3.533   5.904   4.270 -1.7582 -1.2620  0.7360
12670TIP3   OH259424   0.108   4.392   5.714  0.5755 -0.0818 -0.1377
12670TIP3    H159425   0.026   4.440   5.706 -0.1374 -0.9091  1.8050
12670TIP3    H259426   0.128   4.392   5.807  3.3305  0.9355 -0.6253
12671TIP3   OH259427   6.118   0.854   4.672  0.0044  0.2218 -0.1086
12671TIP3    H159428   6.202   0.810   4.689  1.2636  2.1497 -0.9861
12671TIP3    H259429   6.136   0.946   4.687 -1.4564  0.9053 -2.1661
12672TIP3   OH259430   4.309   4.816  14.785 -0.3029  0.0324 -0.7299
12672TIP3    H159431   4.219   4.829  14.757 -0.8361 -0.3653  0.7513
12672TIP3    H259432   4.321   4.722  14.788 -0.2426  0.0653  0.3009
12673TIP3   OH259433   1.692   6.406  17.050 -0.2751 -0.2603  0.0538
12673TIP3    H159434   1.748   6.395  17.127  0.7283 -0.7768 -0.7148
12673TIP3    H259435   1.705   6.326  16.999  2.2215  1.5506 -2.5692
12674TIP3   OH259436   1.160   0.843   4.357 -0.0051 -0.0557 -0.0143
12674TIP3    H159437   1.239   0.884   4.393 -0.5394  0.5517  0.5056
12674TIP3    H259438   1.091   0.909   4.369 -0.5111 -0.4150 -0.8311
12675TIP3   OH259439   0.929   6.386  14.396 -0.2882 -0.0308 -0.2750
12675TIP3    H159440   0.848   6.358  14.437  0.2372  0.6035  1.2729
12675TIP3    H259441   0.964   6.307  14.355 -0.9738 -0.6351  0.2803
12676TIP3   OH259442   4.222   1.624   3.377 -0.0421 -0.2802  0.1073
12676TIP3    H159443   4.135   1.644   3.342 -0.1382  0.2498  0.6387
12676TIP3    H259444   4.278   1.695   3.346 -0.3060  0.6453  1.6953
12677TIP3   OH259445   3.134   4.507   1.212 -0.5446 -0.2005 -0.3986
12677TIP3    H159446   3.224   4.515   1.182  0.2713  1.1910  2.0882
12677TIP3    H259447   3.105   4.422   1.180  0.7002  0.3895 -3.4506
12678TIP3   OH259448   6.750   0.884   3.577 -0.0020 -0.1699 -0.5292
12678TIP3    H159449   6.753   0.832   3.496  0.0819 -0.2183 -0.4947
12678TIP3    H259450   6.805   0.960   3.558  1.1894 -0.8861 -0.0189
12679TIP3   OH259451   3.310   1.940   3.428 -0.2117  0.0246  0.6933
12679TIP3    H159452   3.248   1.978   3.367  0.1871  1.5920  1.2351
12679TIP3    H259453   3.298   1.988   3.510  0.7628 -0.5666  1.2177
12680TIP3   OH259454   2.238   2.572  12.730 -0.7421 -0.6471  0.1224
12680TIP3    H159455   2.165   2.580  12.792  0.8076  1.7508  1.8001
12680TIP3    H259456   2.303   2.521  12.776  0.9181  2.1708  1.1258
12681TIP3   OH259457   0.362   0.893   1.657  0.8194 -0.2400  0.1777
12681TIP3    H159458   0.280   0.867   1.613  0.0692  0.6838  0.9722
12681TIP3    H259459   0.418   0.816   1.652 -1.8636 -2.7812  3.9332
12682TIP3   OH259460   3.683   5.861  15.987  0.4859 -0.3421  0.6017
12682TIP3    H159461   3.591   5.856  15.962  0.5937  0.9123 -0.1656
12682TIP3    H259462   3.712   5.770  15.995 -0.1240 -0.8349 -1.8588
12683TIP3   OH259463   2.469   1.878   2.201 -0.3956 -0.0038  0.0795
12683TIP3    H159464   2.554   1.886   2.158  0.5159 -0.5132  1.7154
12683TIP3    H259465   2.412   1.938   2.152  0.7924  0.0670 -1.2753
12684TIP3   OH259466   5.852   4.236   5.153 -0.4935 -0.4658 -0.5159
12684TIP3    H159467   5.940   4.266   5.129  0.2228 -2.0496  0.0263
12684TIP3    H259468   5.824   4.296   5.222  0.7536 -0.7973  0.3023
12685TIP3   OH259469   0.419   2.215   2.375 -0.0067  0.1721  0.0420
12685TIP3    H159470   0.336   2.226   2.329  0.2165 -0.7757 -0.6099
12685TIP3    H259471   0.433   2.120   2.378  2.1238  0.3395 -1.8478
12686TIP3   OH259472   1.874   0.782  13.793  0.0059  0.3446 -0.1177
12686TIP3    H159473   1.891   0.762  13.886 -1.2713 -1.2534 -0.1816
12686TIP3    H259474   1.829   0.866  13.795  1.8727  1.3863  0.5154
12687TIP3   OH259475   4.596   5.002   3.105  0.4974 -0.3434  0.5476
12687TIP3    H159476   4.593   5.078   3.046 -2.2587  0.2156  1.2744
12687TIP3    H259477   4.687   4.973   3.101  0.7367  0.3149 -3.1233
12688TIP3   OH259478   0.158   2.644  12.717 -0.1616  0.4470 -0.2053
12688TIP3    H159479   0.135   2.737  12.719 -0.3315  0.3992  0.1192
12688TIP3    H259480   0.243   2.641  12.673 -1.0938  0.5574 -2.0701
12689TIP3   OH259481   3.418   2.225   1.271  0.0669 -0.3929  0.4304
12689TIP3    H159482   3.374   2.201   1.190 -0.3019 -1.0426  0.8205
12689TIP3    H259483   3.436   2.319   1.261  0.5510 -0.5843 -0.6401
12690TIP3   OH259484   1.341   0.322   0.364 -0.5879  0.6405  0.5792
12690TIP3    H159485   1.434   0.325   0.343 -0.8625  0.0473 -0.8043
12690TIP3    H259486   1.324   0.402   0.414  0.3615  1.4602 -0.3910
12691TIP3   OH259487   4.245   4.657  13.509  0.0135 -0.5022 -0.2107
12691TIP3    H159488   4.302   4.723  13.549  2.2217 -0.6912 -2.7671
12691TIP3    H259489   4.253   4.580  13.566 -0.0692  0.3956  1.0525
12692TIP3   OH259490   1.234   1.947  15.172 -0.1197 -0.5370 -0.3934
12692TIP3    H159491   1.167   1.884  15.147 -0.4831 -0.4683  0.3740
12692TIP3    H259492   1.212   2.026  15.124 -0.8904 -0.3602  0.2304
12693TIP3   OH259493   2.855   1.991  14.705 -0.5772  0.9913  0.2489
12693TIP3    H159494   2.839   1.930  14.777  1.8469  1.4292  1.2603
12693TIP3    H259495   2.858   2.077  14.746  0.9890  1.2347 -0.2777
12694TIP3   OH259496   3.549   5.718   5.136  0.4337  0.6280  0.4772
12694TIP3    H159497   3.471   5.669   5.161  1.1158  0.2857  2.0183
12694TIP3    H259498   3.561   5.781   5.207  0.6548  1.7820 -0.5457
12695TIP3   OH259499   0.410   2.120   3.589  0.0756  0.5526 -0.1353
12695TIP3    H159500   0.448   2.202   3.558 -0.6202  1.1133  0.4409
12695TIP3    H259501   0.331   2.147   3.636  0.2225 -0.3913  0.6843
12696TIP3   OH259502   3.090   4.471  15.308  0.1602  0.3771 -0.1806
12696TIP3    H159503   3.166   4.509  15.352  0.7861  0.1716 -1.0785
12696TIP3    H259504   3.099   4.497  15.217 -0.5670 -0.0950 -0.3972
12697TIP3   OH259505   3.297   3.146   6.196 -0.5451 -0.0888  0.0341
12697TIP3    H159506   3.297   3.066   6.144 -1.5610  0.8060 -1.3994
12697TIP3    H259507   3.348   3.124   6.274  1.5589 -1.2906 -1.5997
12698TIP3   OH259508   1.722   4.824  14.765 -0.2761 -0.1208  0.2743
12698TIP3    H159509   1.677   4.740  14.770  0.1350 -0.4909 -1.5218
12698TIP3    H259510   1.729   4.842  14.672  1.6522  0.8031  0.5417
12699TIP3   OH259511   1.871   2.475  16.569  0.3756  0.3366  0.2095
12699TIP3    H159512   1.910   2.526  16.640 -1.9500 -0.1237  1.9658
12699TIP3    H259513   1.840   2.540  16.506  1.9094  0.7783 -0.1367
12700TIP3   OH259514   0.439   6.418  15.909 -0.2467  0.3060 -0.4151
12700TIP3    H159515   0.516   6.368  15.882  1.1132  2.3348 -0.4512
12700TIP3    H259516   0.443   6.417  16.005 -0.0164  0.6187 -0.4193
12701TIP3   OH259517   0.248   4.510   6.542 -0.5922  0.1940  0.2459
12701TIP3    H159518   0.247   4.442   6.475  0.3299  2.0870 -1.7985
12701TIP3    H259519   0.319   4.484   6.601 -0.0964 -0.4958 -0.6293
12702TIP3   OH259520   3.991   4.312   4.842  0.6111  0.1615 -0.2300
12702TIP3    H159521   3.959   4.388   4.794 -0.5522 -0.7401 -0.9458
12702TIP3    H259522   4.048   4.348   4.909 -3.1499  2.1286  2.2937
12703TIP3   OH259523   6.646   5.505  11.170 -0.0645 -0.5568 -0.4454
12703TIP3    H159524   6.550   5.503  11.160  0.0652 -0.9417 -1.7081
12703TIP3    H259525   6.664   5.592  11.206 -0.7313  0.2902 -2.0938
12704TIP3   OH259526   2.490   4.499   5.472  0.1334  0.0699 -0.0953
12704TIP3    H159527   2.411   4.446   5.462 -0.8294  1.2269  1.1296
12704TIP3    H259528   2.491   4.524   5.564  2.7212 -1.1016  0.2773
12705TIP3   OH259529   6.357   3.919  11.756  0.9981  0.1161  0.1863
12705TIP3    H159530   6.327   3.891  11.842 -0.9721  1.4792 -0.0007
12705TIP3    H259531   6.285   3.895  11.697  1.3608  1.2026 -0.7245
12706TIP3   OH259532   2.370   5.019   4.877  0.3612 -0.0483 -0.8638
12706TIP3    H159533   2.406   4.932   4.896  1.6037  0.6234  0.0279
12706TIP3    H259534   2.396   5.072   4.952 -0.8396  0.9826 -1.1450
12707TIP3   OH259535   6.231   2.471   0.248  0.5169  0.0170 -0.1918
12707TIP3    H159536   6.193   2.426   0.173 -1.6274 -2.2299  2.0417
12707TIP3    H259537   6.312   2.424   0.267 -0.1946 -1.0464  0.3177
12708TIP3   OH259538   4.521   5.718  15.492 -0.0167  1.0427 -0.0924
12708TIP3    H159539   4.612   5.741  15.472 -0.4815  0.4031 -3.7639
12708TIP3    H259540   4.508   5.634  15.447 -1.5077 -0.8149  3.4012
12709TIP3   OH259541   1.432   4.520   3.274 -0.6815 -0.1898 -0.2190
12709TIP3    H159542   1.411   4.596   3.328  0.3024  0.4574 -0.6980
12709TIP3    H259543   1.526   4.530   3.255  0.1691 -2.9671  1.9277
12710TIP3   OH259544   2.062   0.671  11.109  0.4416 -0.5647 -0.3045
12710TIP3    H159545   2.097   0.607  11.047 -0.9362  0.0469 -1.7599
12710TIP3    H259546   2.139   0.716  11.144  1.3085 -1.7857 -0.5912
12711TIP3   OH259547   6.334   3.952  16.999  0.4328 -0.0443  0.2217
12711TIP3    H159548   6.288   3.924  16.920 -1.0796  1.3524  0.5739
12711TIP3    H259549   6.399   3.882  17.014  0.5589 -0.4954 -2.0456
12712TIP3   OH259550   1.812   0.020   5.228  0.2112 -0.1204  0.1265
12712TIP3    H159551   1.766   0.091   5.183 -2.1032 -1.4737  0.2022
12712TIP3    H259552   1.762  -0.059   5.207  1.2394 -1.3740  2.0247
12713TIP3   OH259553   4.910   0.813  14.981 -0.1329  0.9269 -0.1294
12713TIP3    H159554   4.923   0.791  14.889  0.9521  1.7412 -0.1876
12713TIP3    H259555   4.994   0.793  15.023 -0.2663  1.5882  0.4753
12714TIP3   OH259556   3.852   0.276  15.978 -0.3019  0.2388 -0.9492
12714TIP3    H159557   3.907   0.277  16.056  0.2741 -1.1396 -1.3119
12714TIP3    H259558   3.904   0.320  15.910  0.4426 -1.1751 -1.3260
12715TIP3   OH259559   2.531   5.052   1.868 -0.1839  0.4910  0.2451
12715TIP3    H159560   2.601   5.038   1.805  1.0433  2.9084  0.9544
12715TIP3    H259561   2.457   5.083   1.815 -0.2314 -0.5610 -0.3253
12716TIP3   OH259562   0.119   2.175  10.787 -0.2195 -0.3418 -0.5989
12716TIP3    H159563   0.064   2.120  10.732 -1.5789  0.7127 -0.3405
12716TIP3    H259564   0.117   2.261  10.744 -0.0384  0.1006  0.2664
12717TIP3   OH259565   1.256   6.664  15.680 -0.0811  0.0373  0.0390
12717TIP3    H159566   1.305   6.729  15.630  0.1886 -1.1453 -1.2895
12717TIP3    H259567   1.207   6.614  15.615 -0.2099 -1.1647  1.0010
12718TIP3   OH259568   2.788   2.647   0.819  0.4343 -0.0116 -0.0894
12718TIP3    H159569   2.818   2.558   0.837 -1.9255 -0.5280  1.8474
12718TIP3    H259570   2.802   2.695   0.900 -0.9008  0.5862 -0.1810
12719TIP3   OH259571   2.941   6.380  12.326  0.0575  0.2217  0.1234
12719TIP3    H159572   2.966   6.344  12.411 -0.4861  0.2909  0.3140
12719TIP3    H259573   2.979   6.319  12.263 -0.9196 -0.7437  0.4484
12720TIP3   OH259574   0.511   2.638  13.819  0.3800 -0.2260  0.0046
12720TIP3    H159575   0.432   2.593  13.848  0.1031 -0.7892 -1.5031
12720TIP3    H259576   0.486   2.730  13.810  0.4301 -0.0711  1.3027
12721TIP3   OH259577   4.920   1.330   0.309  0.1695 -0.2964  0.7520
12721TIP3    H159578   4.960   1.251   0.273  0.4966 -0.1748  0.8424
12721TIP3    H259579   4.952   1.334   0.400  0.5800  0.2184  0.5902
12722TIP3   OH259580   4.243   2.523  11.425 -0.0729  0.4246 -0.2931
12722TIP3    H159581   4.297   2.447  11.404  0.8387  0.8621  0.4511
12722TIP3    H259582   4.208   2.551  11.340  0.0900 -0.4322 -0.6522
12723TIP3   OH259583   2.907   0.979  11.097  0.4191 -0.2227  0.6970
12723TIP3    H159584   2.907   0.911  11.164 -1.7236 -2.3929 -1.3140
12723TIP3    H259585   2.981   0.957  11.041 -0.3219 -0.9842  0.0013
12724TIP3   OH259586   4.014   2.494   1.574 -0.2597  0.1083 -0.0398
12724TIP3    H159587   4.024   2.548   1.653  0.7713 -0.6687  0.3800
12724TIP3    H259588   3.930   2.521   1.537 -1.7388 -0.8735  2.3870
12725TIP3   OH259589   4.361   1.708   4.645 -0.7894  0.0254 -0.0695
12725TIP3    H159590   4.284   1.757   4.615  0.6819  1.7855 -1.1829
12725TIP3    H259591   4.397   1.760   4.717 -0.2071 -0.3492 -0.0807
12726TIP3   OH259592   1.418   3.642   1.297  0.2550  0.1220  0.8351
12726TIP3    H159593   1.332   3.666   1.332  0.3828 -0.4353  1.5504
12726TIP3    H259594   1.401   3.619   1.206 -0.2402  0.6614  0.7859
12727TIP3   OH259595   5.187   1.516   1.355  0.0790 -0.1765 -0.0929
12727TIP3    H159596   5.151   1.511   1.443  1.4364 -0.0565  0.4889
12727TIP3    H259597   5.161   1.433   1.314 -0.1227 -0.4596  0.5952
12728TIP3   OH259598   5.987   1.529   0.144 -0.1753  0.1358  0.0632
12728TIP3    H159599   5.992   1.497   0.234  1.2312 -0.6668 -0.2679
12728TIP3    H259600   6.027   1.617   0.147 -1.3116  0.6524  0.4372
12729TIP3   OH259601   6.396   5.224   5.711  0.4151 -0.2660  0.2142
12729TIP3    H159602   6.318   5.271   5.682  0.6319 -0.0029  0.0435
12729TIP3    H259603   6.426   5.272   5.788  1.4300  0.7405 -0.7702
12730TIP3   OH259604   4.461   1.581  12.706  0.6215 -0.6288  0.4284
12730TIP3    H159605   4.403   1.528  12.652  0.3524 -0.8177  0.8989
12730TIP3    H259606   4.413   1.663  12.720 -0.5172 -1.5862  2.6216
12731TIP3   OH259607   1.311   6.632   1.608  0.7388  0.5861  0.8704
12731TIP3    H159608   1.295   6.635   1.513  2.7752 -0.0370  0.4581
12731TIP3    H259609   1.228   6.604   1.645 -0.0438  0.6079 -0.7432
12732TIP3   OH259610   5.925   6.107  15.980 -0.0280 -0.2101 -0.3247
12732TIP3    H159611   5.945   6.140  15.892 -0.4945  0.2220 -0.2719
12732TIP3    H259612   5.880   6.024  15.965 -0.5043  0.0798 -0.5054
12733TIP3   OH259613   5.602   3.931  14.004  0.2664  0.3547  0.2308
12733TIP3    H159614   5.548   3.853  14.000  0.1136  0.4777 -0.2071
12733TIP3    H259615   5.539   4.004  14.005  0.4086  0.4761  0.4678
12734TIP3   OH259616   2.478   4.162   0.271  0.1308  0.2582 -0.1060
12734TIP3    H159617   2.557   4.126   0.229  0.3788  0.7844 -0.1054
12734TIP3    H259618   2.495   4.256   0.274 -0.0698  0.2648  0.8111
12735TIP3   OH259619   2.660   1.708   5.472 -1.0858 -0.3162 -0.1038
12735TIP3    H159620   2.565   1.705   5.479 -0.9992 -1.7676  1.0536
12735TIP3    H259621   2.687   1.771   5.539 -1.2242 -0.1669 -0.1896
12736TIP3   OH259622   1.357   1.639  11.363  0.0509  0.1938  0.7768
12736TIP3    H159623   1.437   1.591  11.342 -0.5415 -0.3824 -0.2723
12736TIP3    H259624   1.294   1.571  11.388 -0.3200  0.5760  0.9041
12737TIP3   OH259625   5.443   4.252  13.043  0.1142  0.3580  0.8528
12737TIP3    H159626   5.472   4.172  12.999  0.1804 -0.1929  1.8646
12737TIP3    H259627   5.348   4.248  13.040  0.0965  1.2835 -0.9021
12738TIP3   OH259628   3.435   5.027  12.509 -0.0495 -0.9340  0.0139
12738TIP3    H159629   3.384   4.946  12.514  0.8278 -1.4375  1.4559
12738TIP3    H259630   3.403   5.070  12.430 -2.7215 -1.1930  0.8558
12739TIP3   OH259631   0.917   1.659  16.559 -0.2177  0.2279 -0.3541
12739TIP3    H159632   0.841   1.695  16.605 -0.2174 -1.1833  0.8241
12739TIP3    H259633   0.882   1.589  16.505  0.1379  0.1342 -0.4662
12740TIP3   OH259634   5.640   4.914  13.646 -0.1500 -0.4785  0.7511
12740TIP3    H159635   5.672   4.895  13.734  1.0313 -2.3783 -0.0328
12740TIP3    H259636   5.707   4.969  13.607 -1.0302  0.9989  1.2415
12741TIP3   OH259637   0.715   3.666  12.380  0.1828  0.2121  0.4303
12741TIP3    H159638   0.703   3.613  12.459  1.1165  0.7288  0.9328
12741TIP3    H259639   0.626   3.695  12.358 -0.1671 -0.4227  0.9313
12742TIP3   OH259640   5.406   4.963   1.225 -0.2435 -0.6463 -0.3034
12742TIP3    H159641   5.331   4.918   1.186 -0.4741 -0.2666 -0.2998
12742TIP3    H259642   5.467   4.974   1.152 -0.1181 -1.1065 -0.2698
12743TIP3   OH259643   1.429   4.334  13.753  0.1167  0.1423  0.0356
12743TIP3    H159644   1.457   4.317  13.843 -0.2726  0.1302  0.1547
12743TIP3    H259645   1.500   4.300  13.699  0.8280  1.0421  0.3636
12744TIP3   OH259646   6.585   1.960   4.950  0.3336 -0.1979 -0.2415
12744TIP3    H159647   6.513   2.023   4.952 -0.7205 -1.3675  0.0942
12744TIP3    H259648   6.576   1.910   5.031  0.6960 -1.2512 -0.8259
12745TIP3   OH259649   2.095   5.104  15.816 -0.4334  0.9721  0.5401
12745TIP3    H159650   2.146   5.046  15.758 -0.2517  0.5683  1.0926
12745TIP3    H259651   2.109   5.191  15.781 -1.0386  0.6444 -0.5580
12746TIP3   OH259652   1.001   4.261   4.802  0.6853 -0.4529  0.4663
12746TIP3    H159653   0.980   4.176   4.763  0.4580 -0.6049  0.9206
12746TIP3    H259654   1.026   4.241   4.892  0.1262  0.0180  0.7270
12747TIP3   OH259655   4.457   1.046  11.443 -0.0236 -0.2430 -0.5513
12747TIP3    H159656   4.447   1.125  11.496 -0.3876 -1.2813  0.9919
12747TIP3    H259657   4.371   1.030  11.406  0.2906  0.6232 -1.6862
12748TIP3   OH259658   4.243   1.125   4.234 -0.5339  0.4704  0.1059
12748TIP3    H159659   4.269   1.213   4.261 -0.7093  0.3255  0.7564
12748TIP3    H259660   4.325   1.083   4.208 -0.4263  0.7650 -0.0359
12749TIP3   OH259661   6.073   6.550   5.882  0.9599 -0.0215  0.0864
12749TIP3    H159662   6.140   6.602   5.926  0.7571  1.2566 -1.0151
12749TIP3    H259663   6.083   6.573   5.789  0.8823 -2.0212 -0.4517
12750TIP3   OH259664   1.361   2.695  16.458  0.0909  0.5790 -0.0228
12750TIP3    H159665   1.389   2.689  16.366 -1.2648 -0.0963 -0.4213
12750TIP3    H259666   1.292   2.628  16.466 -0.4701  1.2795  1.2380
12751TIP3   OH259667   1.908   1.536  13.153 -0.2545  0.6934  0.3576
12751TIP3    H159668   1.833   1.592  13.176 -0.6702  0.7089 -0.9253
12751TIP3    H259669   1.869   1.464  13.103  0.5590  0.5853 -0.1411
12752TIP3   OH259670   2.768   6.358   0.847 -0.0783 -0.2292 -0.3481
12752TIP3    H159671   2.711   6.309   0.788 -1.0758 -0.1562  0.5289
12752TIP3    H259672   2.842   6.300   0.864 -0.7696 -1.0431 -0.0927
12753TIP3   OH259673   1.248   2.859   3.711 -0.3019 -0.0970  0.1187
12753TIP3    H159674   1.324   2.825   3.758  0.4682  0.4578 -0.6947
12753TIP3    H259675   1.207   2.920   3.773  0.4880  0.3491  0.2121
12754TIP3   OH259676   1.909   5.198   3.616 -0.6121 -0.8050 -0.1834
12754TIP3    H159677   1.918   5.262   3.546 -1.3880 -1.1692 -0.6326
12754TIP3    H259678   1.913   5.250   3.697  0.4435 -0.4060 -0.4862
12755TIP3   OH259679   2.396   3.877  13.728 -0.4618  0.0335 -0.4834
12755TIP3    H159680   2.460   3.914  13.789 -1.1984  2.8961 -1.2624
12755TIP3    H259681   2.436   3.888  13.642 -1.0418 -0.3008 -0.8040
12756TIP3   OH259682   5.421   4.314   4.692  0.2398  0.4534  0.7131
12756TIP3    H159683   5.465   4.259   4.627 -0.4073  1.5304 -0.6979
12756TIP3    H259684   5.472   4.394   4.694 -0.0386  0.6235  1.1603
12757TIP3   OH259685   3.422   5.510  12.075  0.7121 -0.8086  0.1393
12757TIP3    H159686   3.405   5.567  12.000  1.1941  0.0113  0.6345
12757TIP3    H259687   3.509   5.473  12.058  0.9726 -0.3502  0.4508
12758TIP3   OH259688   6.309   5.159   0.329 -0.6195  0.0555  0.0503
12758TIP3    H159689   6.259   5.150   0.248  0.6473 -1.1686 -0.6221
12758TIP3    H259690   6.253   5.120   0.396 -0.3362 -1.9484 -0.8112
12759TIP3   OH259691   2.668   4.410   4.003  0.1324 -0.0973  0.0531
12759TIP3    H159692   2.763   4.417   3.996  0.0521 -0.6943 -2.1108
12759TIP3    H259693   2.636   4.498   3.983  0.1453 -0.6419 -2.7823
12760TIP3   OH259694   5.133   5.426  13.490 -0.0997 -0.1366  0.1252
12760TIP3    H159695   5.154   5.337  13.460 -0.1082  0.7804 -2.9589
12760TIP3    H259696   5.215   5.460  13.524  0.4100 -0.6473 -0.5660
12761TIP3   OH259697   3.440   3.481   0.485 -0.0922 -0.1092  0.1639
12761TIP3    H159698   3.441   3.459   0.392 -3.2819  1.3115 -0.3581
12761TIP3    H259699   3.388   3.412   0.526  0.3431 -0.1234  0.7070
12762TIP3   OH259700   3.701   5.132   3.388 -0.2425  0.2421 -0.2016
12762TIP3    H159701   3.732   5.075   3.459 -0.1189 -0.4263 -0.7734
12762TIP3    H259702   3.714   5.080   3.309 -0.0219  1.1211 -0.7574
12763TIP3   OH259703   3.862   3.028   4.099 -0.0630 -0.0561  0.1800
12763TIP3    H159704   3.932   3.000   4.158  1.6351  1.4255 -0.9829
12763TIP3    H259705   3.847   2.952   4.042  0.9194 -0.2808  0.1971
12764TIP3   OH259706   6.295   4.321  11.021 -0.1349  0.0091 -0.3538
12764TIP3    H159707   6.248   4.241  10.994 -1.5725  0.5475  0.4436
12764TIP3    H259708   6.255   4.391  10.969 -0.6171  0.5576  0.7290
12765TIP3   OH259709   5.442   0.231   4.834 -0.9832 -0.4384 -0.3234
12765TIP3    H159710   5.386   0.154   4.837  0.3083 -1.4043  0.2840
12765TIP3    H259711   5.466   0.247   4.925 -2.3847  1.6105 -0.2530
12766TIP3   OH259712   1.154   4.434   4.656 -0.4791  0.5205 -0.0255
12766TIP3    H159713   1.082   4.393   4.704  0.0166 -0.6222 -0.2267
12766TIP3    H259714   1.165   4.380   4.578 -0.0113  1.2360 -0.4634
12767TIP3   OH259715   1.188   0.032  14.402  0.3404  0.1104  0.4924
12767TIP3    H159716   1.191  -0.017  14.319  2.2220  1.0155 -0.0089
12767TIP3    H259717   1.101   0.011  14.438  0.4399 -2.3060 -0.4631
12768TIP3   OH259718   3.365   4.342  16.962  0.3971 -0.4802  0.2341
12768TIP3    H159719   3.329   4.298  17.039 -2.7366 -0.0453 -0.8244
12768TIP3    H259720   3.288   4.376  16.916  2.3582  2.3052 -1.2911
12769TIP3   OH259721   2.492   0.619  12.781  0.6173 -0.3315  0.8511
12769TIP3    H159722   2.403   0.653  12.787  0.7445  0.0706  0.4953
12769TIP3    H259723   2.495   0.576  12.695  0.4804 -1.1808  1.2612
12770TIP3   OH259724   0.651   1.700   4.205 -0.3535 -0.1093 -0.2273
12770TIP3    H159725   0.563   1.663   4.198 -0.7895  0.7752  0.3908
12770TIP3    H259726   0.645   1.785   4.161 -0.1870  0.5790  1.0458
12771TIP3   OH259727   5.806   1.766   0.907 -0.1685 -0.1795 -0.5004
12771TIP3    H159728   5.773   1.696   0.963  0.5913  0.9469  1.4260
12771TIP3    H259729   5.845   1.829   0.967  0.6965  1.0922 -2.3087
12772TIP3   OH259730   0.388   2.582  12.053 -0.0121  0.1620  0.2994
12772TIP3    H159731   0.341   2.611  12.131  0.2647  0.6763  0.2814
12772TIP3    H259732   0.345   2.630  11.981 -1.1848 -1.3447 -0.0578
12773TIP3   OH259733   0.218   1.247   5.676  0.2213  0.2072  0.2995
12773TIP3    H159734   0.258   1.308   5.738  1.8116 -0.6461  0.1388
12773TIP3    H259735   0.263   1.263   5.593  0.1684 -0.7126  0.0882
12774TIP3   OH259736   3.126   5.483   3.380 -0.7977 -0.2694  0.2171
12774TIP3    H159737   3.031   5.470   3.386 -0.6065 -1.9781  0.2109
12774TIP3    H259738   3.136   5.574   3.352 -2.3762  0.4332  1.7162
12775TIP3   OH259739   2.087   0.975   0.561  0.0274  0.1302 -0.2616
12775TIP3    H159740   2.102   1.045   0.497 -1.4254 -1.3619 -2.3457
12775TIP3    H259741   2.174   0.938   0.577  0.5156  1.0046 -0.7948
12776TIP3   OH259742   1.943   3.638   2.633 -0.1530 -0.1168  0.7743
12776TIP3    H159743   1.935   3.543   2.633 -0.6952 -0.1037 -1.1436
12776TIP3    H259744   1.853   3.670   2.634 -0.1494  0.2666 -2.0306
12777TIP3   OH259745   4.588   5.228   0.601  0.5728  0.3259 -0.7075
12777TIP3    H159746   4.541   5.165   0.546  0.2966  2.1644 -2.7095
12777TIP3    H259747   4.673   5.239   0.558  0.8213  0.9000 -0.0818
12778TIP3   OH259748   0.844   4.096  12.057  0.3188  0.1490 -0.6708
12778TIP3    H159749   0.900   4.073  11.983  0.7768 -1.2728  0.0725
12778TIP3    H259750   0.903   4.101  12.131 -0.3128  0.3116 -0.1656
12779TIP3   OH259751   6.602   4.469   5.665 -0.5805  0.1897  0.0094
12779TIP3    H159752   6.625   4.486   5.574  0.9888 -1.7233 -0.0093
12779TIP3    H259753   6.522   4.416   5.660 -0.9801  0.8106 -0.2127
12780TIP3   OH259754   0.603   0.091   5.616  0.0813  0.0241  0.0626
12780TIP3    H159755   0.675   0.069   5.674  0.0216 -1.5919 -0.4197
12780TIP3    H259756   0.604   0.186   5.610  1.1085  0.1156  1.3882
12781TIP3   OH259757   3.351   5.793   2.255  0.3442 -0.3097  0.1355
12781TIP3    H159758   3.413   5.764   2.189  0.1560 -1.8547  0.6069
12781TIP3    H259759   3.326   5.714   2.303 -3.5182 -0.2132 -1.3071
12782TIP3   OH259760   1.398   6.577  16.622  0.1196 -0.3518  0.0055
12782TIP3    H159761   1.384   6.504  16.683 -2.6236 -1.3658 -1.6454
12782TIP3    H259762   1.379   6.655  16.673 -2.5283 -1.1948  0.4850
12783TIP3   OH259763   2.528   0.386  16.499 -0.2826  0.1400 -0.0971
12783TIP3    H159764   2.562   0.396  16.410 -0.6669  0.4891 -0.2083
12783TIP3    H259765   2.457   0.321  16.490 -1.3266  1.2817 -0.3202
12784TIP3   OH259766   1.130   3.891   0.065 -0.4392  0.2120 -0.5362
12784TIP3    H159767   1.110   3.899  -0.028 -3.3772 -0.8800 -0.0815
12784TIP3    H259768   1.225   3.876   0.067 -0.6576 -2.7371 -3.5699
12785TIP3   OH259769   5.675   1.716  12.331 -0.0239  0.4952  0.3165
12785TIP3    H159770   5.740   1.717  12.262  0.9494 -1.2104  1.1513
12785TIP3    H259771   5.721   1.751  12.408 -0.0965 -0.6380  0.8900
12786TIP3   OH259772   3.897   5.034   4.398 -0.1548  0.4125  0.0210
12786TIP3    H159773   3.916   5.124   4.423 -1.0414  0.4655  0.5237
12786TIP3    H259774   3.963   5.014   4.331  1.7590  0.5262  1.7509
12787TIP3   OH259775   4.206   4.747   2.128  0.1952  0.1814 -0.3079
12787TIP3    H159776   4.121   4.757   2.085  0.1021  1.0623  0.0486
12787TIP3    H259777   4.223   4.833   2.165  1.2152 -0.0148 -0.3130
12788TIP3   OH259778   4.599   1.123   6.867 -0.1090  0.0260  0.3840
12788TIP3    H159779   4.625   1.032   6.856  0.3878  0.1497  0.5275
12788TIP3    H259780   4.680   1.173   6.857 -0.4293  0.4753 -0.0075
12789TIP3   OH259781   5.051   3.276  17.267 -0.4610  0.1967  0.0790
12789TIP3    H159782   5.095   3.349  17.312 -1.7509  1.0575  0.0185
12789TIP3    H259783   5.059   3.297  17.174  0.3214 -0.4545 -0.0096
12790TIP3   OH259784   5.540   4.487  12.637 -0.0402 -0.2926 -0.5512
12790TIP3    H159785   5.561   4.481  12.730 -3.1277 -3.3701  0.1363
12790TIP3    H259786   5.590   4.416  12.597  1.5492  1.2306 -1.4406
12791TIP3   OH259787   5.591   2.278  12.557  0.0775 -0.3272 -0.2701
12791TIP3    H159788   5.658   2.224  12.515 -0.5460 -0.6502 -0.8662
12791TIP3    H259789   5.602   2.365  12.519  0.7963 -0.1253  0.3669
12792TIP3   OH259790   6.269   2.615   1.165 -0.2818 -0.6578  0.2458
12792TIP3    H159791   6.298   2.701   1.194 -1.2939  0.3789 -1.6195
12792TIP3    H259792   6.349   2.566   1.149  0.3468  0.4482 -0.0771
12793TIP3   OH259793   5.528   4.767   1.515  0.5730 -0.2083  0.1621
12793TIP3    H159794   5.543   4.676   1.487 -0.1987 -0.6493  1.1046
12793TIP3    H259795   5.438   4.767   1.547  0.5844  0.8911  0.2181
12794TIP3   OH259796   0.441   4.037  15.823  0.3440 -0.4696 -0.5887
12794TIP3    H159797   0.356   4.022  15.781  1.0758 -0.3895 -2.1594
12794TIP3    H259798   0.483   3.951  15.822  0.5820 -0.3531 -0.5275
12795TIP3   OH259799   3.340   4.584   4.029  0.3926  0.1845  0.0688
12795TIP3    H159800   3.281   4.558   3.959  2.2396  0.1077 -1.5336
12795TIP3    H259801   3.381   4.503   4.058  0.7982  0.4140  0.1408
12796TIP3   OH259802   5.355   3.893   1.529 -0.2290 -0.3824  0.1263
12796TIP3    H159803   5.385   3.981   1.552 -1.0654 -0.0950  0.1825
12796TIP3    H259804   5.259   3.901   1.529 -0.2942 -1.0061 -1.0079
12797TIP3   OH259805   5.258   0.140   3.356 -0.1329 -0.4627  0.2923
12797TIP3    H159806   5.287   0.051   3.334 -1.5493 -0.9730  0.3879
12797TIP3    H259807   5.296   0.157   3.442  0.7597 -0.6735 -0.0465
12798TIP3   OH259808   2.609   3.252   2.369 -0.1253 -0.4198  0.5413
12798TIP3    H159809   2.687   3.268   2.317 -0.1602 -0.1097  0.5820
12798TIP3    H259810   2.626   3.169   2.413 -0.1028 -0.7014  0.0210
12799TIP3   OH259811   1.902   4.929  15.934  0.3850  0.5996 -0.5975
12799TIP3    H159812   1.943   5.004  15.891  1.3558  0.3191 -0.1848
12799TIP3    H259813   1.808   4.941  15.918  0.3804  2.5812  0.4931
12800TIP3   OH259814   6.754   5.798   5.803 -0.6542 -0.2183  0.4511
12800TIP3    H159815   6.784   5.754   5.883 -1.3713 -0.2407  0.7158
12800TIP3    H259816   6.662   5.818   5.820 -1.0498 -0.9622 -0.6780
12801TIP3   OH259817   6.140   5.900   3.843 -0.6081  0.4997 -1.1618
12801TIP3    H159818   6.089   5.859   3.913 -2.4372  2.7471 -1.0660
12801TIP3    H259819   6.186   5.973   3.886 -0.1042  0.6527 -1.9357
12802TIP3   OH259820   1.413   5.085  17.046  0.2441 -0.4347 -0.0094
12802TIP3    H159821   1.450   5.075  17.134 -4.0351  0.4295  2.1759
12802TIP3    H259822   1.439   5.174  17.020 -1.3472  0.8043  2.1757
12803TIP3   OH259823   3.468   2.347  11.416  0.7389 -0.3763  0.1760
12803TIP3    H159824   3.511   2.407  11.477  0.0328  1.1467 -0.7537
12803TIP3    H259825   3.513   2.361  11.332 -1.5302  1.3734 -0.8575
12804TIP3   OH259826   3.601   6.562  13.284 -0.1326  0.5993  0.2543
12804TIP3    H159827   3.633   6.614  13.358 -0.0806  0.9965 -0.0445
12804TIP3    H259828   3.625   6.472  13.306 -0.7679  0.6167  1.0677
12805TIP3   OH259829   1.082   0.514   2.690  0.7088 -0.4112 -0.2838
12805TIP3    H159830   1.115   0.436   2.645  1.8630 -0.6504  0.8994
12805TIP3    H259831   1.116   0.587   2.639  0.4463 -0.6794 -0.8497
12806TIP3   OH259832   0.537   4.287  17.099  0.1469  0.1627  0.3743
12806TIP3    H159833   0.584   4.342  17.036  0.5499  0.2663  0.7600
12806TIP3    H259834   0.530   4.202  17.055  1.3928 -0.0858  0.6044
12807TIP3   OH259835   4.828   0.454  16.171  0.4237  0.7787  0.4398
12807TIP3    H159836   4.847   0.399  16.247 -0.3626 -1.0383 -0.5939
12807TIP3    H259837   4.907   0.507  16.160  1.4253 -0.4489  1.2636
12808TIP3   OH259838   3.027   1.047   2.177 -0.0678  0.0859  0.5629
12808TIP3    H159839   3.112   1.091   2.178 -0.5349  1.0331  0.0105
12808TIP3    H259840   3.043   0.964   2.223  1.0524  0.4172  0.8212
12809TIP3   OH259841   0.613   6.486   0.621  0.2843  0.0197  0.2228
12809TIP3    H159842   0.590   6.488   0.528 -0.0665  2.8964  0.2901
12809TIP3    H259843   0.696   6.534   0.626  0.8041 -0.9347  1.3137
12810TIP3   OH259844   2.984   6.604   0.056  0.3002 -0.1319 -0.0726
12810TIP3    H159845   3.059   6.605  -0.005  0.0183  0.6315 -0.4271
12810TIP3    H259846   2.992   6.521   0.102  1.5615  0.0692  0.1269
12811TIP3   OH259847   5.011   2.602  14.990 -0.2376  0.2350  0.8349
12811TIP3    H159848   5.075   2.535  15.012 -0.0249  1.1554  3.2637
12811TIP3    H259849   5.053   2.654  14.921 -1.4466 -3.5347 -3.1753
12812TIP3   OH259850   2.430   5.237  14.362 -0.5802 -0.9203  0.3427
12812TIP3    H159851   2.443   5.210  14.271 -0.5013 -1.2953  0.4622
12812TIP3    H259852   2.500   5.193  14.411 -0.7772 -0.9327  0.6208
12813TIP3   OH259853   2.430   0.721  14.677 -0.2910 -0.2192  0.1428
12813TIP3    H159854   2.470   0.670  14.747 -0.6049 -1.9163 -0.8418
12813TIP3    H259855   2.440   0.666  14.599  0.5786  1.8419 -1.3089
12814TIP3   OH259856   0.938   5.331  15.348 -0.1001 -0.3670  0.4820
12814TIP3    H159857   1.029   5.361  15.358  0.5318 -1.6208 -1.0436
12814TIP3    H259858   0.896   5.399  15.295  1.0288 -1.4754 -2.0256
12815TIP3   OH259859   3.782   2.926  14.464  0.1363 -0.0717 -0.1060
12815TIP3    H159860   3.689   2.905  14.454 -0.4313  2.2503 -0.4925
12815TIP3    H259861   3.818   2.919  14.376  0.5759 -1.7975  0.1755
12816TIP3   OH259862   2.066   1.041   6.541 -1.3317 -0.0708 -0.0177
12816TIP3    H159863   1.983   1.038   6.494 -2.0556 -2.8590  1.2151
12816TIP3    H259864   2.043   1.074   6.628 -2.0234 -4.2028  1.5681
12817TIP3   OH259865   0.511   1.346   3.955 -0.1134 -0.2842 -0.6963
12817TIP3    H159866   0.446   1.329   4.024  0.3217  0.4404 -0.1020
12817TIP3    H259867   0.494   1.436   3.928  0.8492  0.0311 -0.2953
12818TIP3   OH259868   1.053   2.711  15.443 -0.2695  0.0211  0.8994
12818TIP3    H159869   1.009   2.655  15.506 -0.9882 -0.5045 -0.0516
12818TIP3    H259870   1.129   2.745  15.490 -0.3670 -0.9693  1.7965
12819TIP3   OH259871   2.793   4.448  15.339 -0.4068  0.3534 -0.4773
12819TIP3    H159872   2.831   4.393  15.408 -0.0771  0.5028 -0.5401
12819TIP3    H259873   2.813   4.538  15.366 -1.0883  0.4537 -0.2930
12820TIP3   OH259874   5.936   5.849  14.972 -0.2819 -0.4111  0.5223
12820TIP3    H159875   5.894   5.846  15.057 -1.9892 -0.3685 -0.2720
12820TIP3    H259876   5.964   5.939  14.961 -0.4626 -0.3166  0.8559
12821TIP3   OH259877   1.506   6.665  13.277  0.2869  0.5500  0.1158
12821TIP3    H159878   1.531   6.751  13.310 -1.4623  0.6258  1.3783
12821TIP3    H259879   1.509   6.674  13.182  1.2952  1.6299  0.2289
12822TIP3   OH259880   2.127   4.957  12.117 -0.6349  0.1836 -0.6306
12822TIP3    H159881   2.050   4.904  12.096  1.2134 -2.8433 -0.3544
12822TIP3    H259882   2.201   4.900  12.098  1.4626  1.5372  2.6409
12823TIP3   OH259883   4.796   2.350  10.947 -0.0266 -0.1187 -0.4610
12823TIP3    H159884   4.805   2.256  10.931  0.7570 -0.7094  2.6848
12823TIP3    H259885   4.707   2.371  10.920 -0.9757 -2.3069  0.6833
12824TIP3   OH259886   6.358   3.081  16.397  0.1596  0.1466  0.5902
12824TIP3    H159887   6.306   3.123  16.465  0.6091  0.0833  0.9812
12824TIP3    H259888   6.438   3.133  16.391 -0.4882  1.0250 -0.9344
12825TIP3   OH259889   2.250   4.474   4.973  0.5331 -0.1073  0.1272
12825TIP3    H159890   2.196   4.497   4.897  1.9929  0.1037 -0.8921
12825TIP3    H259891   2.234   4.544   5.036 -2.0112 -1.1475  0.7962
12826TIP3   OH259892   5.102   3.963   0.275 -0.2961  0.3456  0.6120
12826TIP3    H159893   5.126   4.000   0.190 -3.7137 -2.4829 -1.8936
12826TIP3    H259894   5.148   3.879   0.278 -3.2161 -1.4793 -0.6109
12827TIP3   OH259895   0.030   3.216   0.245  0.1303  0.3119 -0.0509
12827TIP3    H159896   0.089   3.259   0.308 -1.8703  2.6405  0.3903
12827TIP3    H259897   0.067   3.240   0.160  1.0736 -0.1847  0.1971
12828TIP3   OH259898   1.636   1.810   2.772 -0.2481 -0.3087 -0.3862
12828TIP3    H159899   1.706   1.745   2.769 -0.6953 -0.8095 -0.1261
12828TIP3    H259900   1.558   1.763   2.743 -0.7569 -0.1287  0.6474
12829TIP3   OH259901   0.235   4.031  16.540  0.5545  0.3762 -0.7790
12829TIP3    H159902   0.189   3.954  16.573 -1.2588  0.8355 -2.0953
12829TIP3    H259903   0.204   4.103  16.594  0.5892  0.5217 -0.9505
12830TIP3   OH259904   0.094   3.788   2.746 -0.2144  0.0387 -0.7300
12830TIP3    H159905   0.167   3.847   2.725  0.3042 -1.3364 -3.2250
12830TIP3    H259906   0.041   3.836   2.809  1.5764  2.0628 -0.6603
12831TIP3   OH259907   4.864   1.787   3.201  0.3350  0.2995  0.2441
12831TIP3    H159908   4.822   1.779   3.115  1.0794  0.4231 -0.1397
12831TIP3    H259909   4.801   1.836   3.254 -0.6064 -0.7103  0.1047
12832TIP3   OH259910   3.925   3.450   3.708 -0.1109 -0.1789  0.1779
12832TIP3    H159911   3.865   3.515   3.671 -0.0556 -0.0228  0.3582
12832TIP3    H259912   4.003   3.500   3.731 -0.2007 -0.2432  0.6374
12833TIP3   OH259913   4.411   0.408   0.479  0.0196  0.0657  0.2517
12833TIP3    H159914   4.413   0.313   0.492  0.4471  0.0907  0.3680
12833TIP3    H259915   4.469   0.442   0.547  1.3877  0.2897 -1.0063
12834TIP3   OH259916   5.673   6.392   1.921  0.3377  0.1999  0.8857
12834TIP3    H159917   5.598   6.364   1.868 -0.3087  1.2564  1.2034
12834TIP3    H259918   5.723   6.449   1.863  2.3452 -2.4823 -0.1844
12835TIP3   OH259919   0.268   4.779   6.325 -0.1471  0.0386  0.0718
12835TIP3    H159920   0.193   4.722   6.340 -1.4072  1.2768 -1.1769
12835TIP3    H259921   0.344   4.721   6.326 -1.3866 -1.6980 -1.3755
12836TIP3   OH259922   4.639   2.887  12.627  0.5738 -0.0077  0.4094
12836TIP3    H159923   4.549   2.876  12.657  0.6834 -1.4416  0.2652
12836TIP3    H259924   4.682   2.805  12.648  1.0231 -0.5751 -2.2924
12837TIP3   OH259925   0.247   1.141  15.239 -0.6217 -0.1664 -0.3465
12837TIP3    H159926   0.207   1.208  15.184 -3.9868 -0.6234  1.3059
12837TIP3    H259927   0.269   1.186  15.320 -1.4412 -0.6929  0.1839
12838TIP3   OH259928   1.761   2.223  12.639  0.1095  0.1075  0.2523
12838TIP3    H159929   1.828   2.227  12.571  1.5756  0.0812  1.6255
12838TIP3    H259930   1.678   2.230  12.592  1.1086  1.7393 -1.3766
12839TIP3   OH259931   5.900   2.801   5.007  0.3458  0.5911 -0.3825
12839TIP3    H159932   5.820   2.754   4.981  0.0255  0.8884  0.0543
12839TIP3    H259933   5.874   2.852   5.083  1.4123 -0.7203  0.9164
12840TIP3   OH259934   3.008   4.654   5.429  0.0058  0.1111  0.0689
12840TIP3    H159935   3.006   4.749   5.436 -1.3959  0.1592 -0.5847
12840TIP3    H259936   2.947   4.624   5.498 -1.3231 -0.1695 -1.1711
12841TIP3   OH259937   2.232   4.056   1.671  0.3601  0.0651 -0.4091
12841TIP3    H159938   2.222   4.042   1.765 -0.0895  0.5890 -0.3777
12841TIP3    H259939   2.322   4.029   1.653  0.5469  0.2508  0.2244
12842TIP3   OH259940   3.643   4.234  11.931  0.5863 -0.4691  0.7593
12842TIP3    H159941   3.594   4.281  11.998  1.1961  1.2676  0.0677
12842TIP3    H259942   3.716   4.193  11.978  0.8774  0.5420  1.2115
12843TIP3   OH259943   1.594   3.963  17.221 -0.1431  0.5428 -0.2214
12843TIP3    H159944   1.549   4.042  17.191  0.0014  0.0538 -1.7882
12843TIP3    H259945   1.686   3.988  17.225  0.0862  0.1108 -2.0380
12844TIP3   OH259946   4.118   2.288   1.437 -0.2929 -0.3037  0.1657
12844TIP3    H159947   4.210   2.289   1.410  0.3944 -2.1129  2.1100
12844TIP3    H259948   4.104   2.372   1.480  0.0140  0.5439 -1.3302
12845TIP3   OH259949   1.493   0.871   5.420 -0.0787 -0.1062  0.2256
12845TIP3    H159950   1.429   0.925   5.373  0.8091 -0.3272 -1.3283
12845TIP3    H259951   1.537   0.931   5.479 -1.9174 -0.0191  1.6181
12846TIP3   OH259952   3.909   6.499  12.010 -0.2221 -0.5171 -0.1866
12846TIP3    H159953   3.997   6.465  12.021 -0.5066 -1.1028  0.3241
12846TIP3    H259954   3.855   6.423  11.989 -0.3763  0.0279 -1.9576
12847TIP3   OH259955   3.907   1.127   4.899 -0.5136  0.4387  0.1093
12847TIP3    H159956   3.954   1.150   4.980  0.6350  0.5217 -0.5504
12847TIP3    H259957   3.882   1.036   4.911  1.1597 -0.0820 -0.1073
12848TIP3   OH259958   2.664   5.564  16.968 -0.3794  0.3273  0.5706
12848TIP3    H159959   2.572   5.587  16.978 -0.0119  1.4772  1.5685
12848TIP3    H259960   2.711   5.632  17.016  0.9619 -0.6073  0.6400
12849TIP3   OH259961   0.577   4.380  14.786  0.5149 -0.0455 -0.5054
12849TIP3    H159962   0.612   4.313  14.726  0.3610  0.3895 -1.0874
12849TIP3    H259963   0.605   4.463  14.747 -2.0292  0.3882 -1.5844
12850TIP3   OH259964   5.290   5.847   3.591  0.0851  0.4012  0.2346
12850TIP3    H159965   5.345   5.815   3.662 -0.4030 -0.6758  0.1492
12850TIP3    H259966   5.201   5.831   3.621 -0.1429 -2.5604 -1.6290
12851TIP3   OH259967   1.562   1.627   3.326 -0.2656 -0.0089 -0.6381
12851TIP3    H159968   1.580   1.634   3.420  1.0675  0.9807 -0.9348
12851TIP3    H259969   1.467   1.620   3.320 -0.4944  1.4072  0.7232
12852TIP3   OH259970   4.040   3.462  16.260  0.0596  0.1592 -0.0688
12852TIP3    H159971   4.006   3.376  16.286 -1.1955  0.9897  1.1705
12852TIP3    H259972   4.039   3.460  16.164 -2.8318 -0.1431 -0.1176
12853TIP3   OH259973   5.813   6.173  13.284  0.3730  0.0640  0.0509
12853TIP3    H159974   5.866   6.227  13.226 -2.3484  4.0197  0.7519
12853TIP3    H259975   5.744   6.137  13.228 -0.2711  1.0360  0.1755
12854TIP3   OH259976   3.432   5.887  17.236 -0.0503  0.2090 -1.0219
12854TIP3    H159977   3.382   5.944  17.295 -2.1121 -0.1499 -2.3015
12854TIP3    H259978   3.481   5.829  17.294 -1.4116  0.3658  0.3466
12855TIP3   OH259979   4.666   6.626   4.657 -0.0838 -0.4361  0.1569
12855TIP3    H159980   4.685   6.689   4.727  0.8186  0.2054 -0.6334
12855TIP3    H259981   4.574   6.642   4.636  0.7604  2.7291 -1.9460
12856TIP3   OH259982   0.531   2.221   5.088 -0.0833 -0.4357 -0.3915
12856TIP3    H159983   0.622   2.231   5.058  0.2982 -0.3284  0.7535
12856TIP3    H259984   0.483   2.195   5.009  1.0769 -1.2206 -0.8698
12857TIP3   OH259985   5.784   6.075   0.363  0.2923  0.4106 -0.0391
12857TIP3    H159986   5.831   6.158   0.375 -0.1154  0.5100  0.9540
12857TIP3    H259987   5.760   6.048   0.452  0.9623 -1.0907 -0.2845
12858TIP3   OH259988   0.981   3.255  16.315  0.8296  0.0089  0.1927
12858TIP3    H159989   0.921   3.262  16.240  0.4273 -2.5373  0.1889
12858TIP3    H259990   0.928   3.284  16.390 -0.4106 -1.9728  0.1525
12859TIP3   OH259991   1.311   3.407  17.374 -0.5693 -0.0256 -0.0724
12859TIP3    H159992   1.238   3.466  17.397  0.9779  0.9702  2.7470
12859TIP3    H259993   1.370   3.462  17.322 -0.7863 -0.1918 -0.5020
12860TIP3   OH259994   6.115   4.483  15.865  0.6142  0.2400  0.4632
12860TIP3    H159995   6.161   4.415  15.913  1.1832  1.7729  2.1632
12860TIP3    H259996   6.077   4.539  15.932  2.5612  3.2352 -0.7722
12861TIP3   OH259997   3.830   6.155   1.998 -0.4839 -0.2123  0.3793
12861TIP3    H159998   3.871   6.128   1.916  0.8943 -0.6371  1.1840
12861TIP3    H259999   3.745   6.112   1.998 -0.2337 -0.7304 -0.5283
12862TIP3   OH260000   1.484   6.527  16.923  0.6560  0.2527 -0.1121
12862TIP3    H160001   1.407   6.471  16.906  1.6225 -0.9408 -0.7134
12862TIP3    H260002   1.542   6.473  16.976  1.8457  0.4776 -1.1356
12863TIP3   OH260003   4.932   2.459   5.903 -0.3680 -0.1616  0.0250
12863TIP3    H160004   4.943   2.526   5.970 -0.9534 -2.3988  2.5524
12863TIP3    H260005   4.839   2.437   5.906 -0.7262  0.6927 -2.6609
12864TIP3   OH260006   2.299   5.549  14.418  0.1678  0.3873  0.1334
12864TIP3    H160007   2.347   5.530  14.337  0.1112  0.6751  0.0310
12864TIP3    H260008   2.249   5.628  14.398 -1.4441 -0.6749 -0.2228
12865TIP3   OH260009   5.746   1.029   1.644 -0.6539 -0.6809 -0.6894
12865TIP3    H160010   5.736   1.096   1.711 -2.7719 -0.5954 -1.0287
12865TIP3    H260011   5.838   1.002   1.650 -0.3405  0.6258  0.9702
12866TIP3   OH260012   3.354   5.364  15.643  0.3390 -0.2208 -0.3200
12866TIP3    H160013   3.372   5.367  15.737 -1.3309 -1.7909  0.0884
12866TIP3    H260014   3.287   5.430  15.629  1.3595  0.7891 -0.6475
12867TIP3   OH260015   1.291   4.224  15.186 -0.3427  0.1379  0.1298
12867TIP3    H160016   1.226   4.263  15.245 -1.8706  1.4504 -2.2480
12867TIP3    H260017   1.358   4.291  15.176  0.8755 -0.7765  1.6793
12868TIP3   OH260018   1.412   1.443   6.019  0.1098  0.5110  0.8991
12868TIP3    H160019   1.369   1.451   5.933 -0.3897 -0.2495  1.0641
12868TIP3    H260020   1.443   1.531   6.039 -1.8927  1.2407  1.0282
12869TIP3   OH260021   5.633   4.159   4.118  0.7674  0.1993  0.2319
12869TIP3    H160022   5.668   4.234   4.070 -0.1257 -0.1534 -1.0315
12869TIP3    H260023   5.547   4.187   4.148 -0.1060 -0.6752 -1.3145
12870TIP3   OH260024   1.475   3.283  16.676  0.0270  0.1175  0.6352
12870TIP3    H160025   1.536   3.223  16.719 -1.4353 -0.4518  2.0298
12870TIP3    H260026   1.501   3.370  16.706  0.2879 -0.0956  1.0313
12871TIP3   OH260027   5.392   2.605   2.289  0.5061  0.3902  0.3333
12871TIP3    H160028   5.486   2.594   2.299  0.5039  0.9386  1.0546
12871TIP3    H260029   5.356   2.596   2.378 -0.1882 -0.3761 -0.0098
12872TIP3   OH260030   2.771   2.433  12.323  0.2433  0.5515 -0.4033
12872TIP3    H160031   2.762   2.408  12.415 -0.2900 -0.1639 -0.6409
12872TIP3    H260032   2.688   2.406  12.283  1.5804 -1.9638 -1.7272
12873TIP3   OH260033   0.563   4.451  15.953 -0.0262  0.8589  0.4582
12873TIP3    H160034   0.591   4.528  15.902 -1.3456  1.0818  0.0283
12873TIP3    H260035   0.472   4.471  15.978 -0.0216 -0.0956  1.2765
12874TIP3   OH260036   4.300   3.535  15.971  0.3540 -0.0301 -0.0321
12874TIP3    H160037   4.234   3.596  15.939  0.0296  0.1565  0.9520
12874TIP3    H260038   4.326   3.485  15.894  0.6410  1.3544 -0.8735
12875TIP3   OH260039   0.350   6.670  13.803 -0.5235  0.1499 -0.0695
12875TIP3    H160040   0.363   6.594  13.859  0.4954  0.8577  0.6854
12875TIP3    H260041   0.439   6.699  13.782 -0.8673  1.9789  0.8302
12876TIP3   OH260042   0.476   6.122  14.648 -0.8236 -0.0328 -0.1365
12876TIP3    H160043   0.460   6.059  14.578  1.0691  0.6481 -1.2425
12876TIP3    H260044   0.556   6.091  14.690 -0.1145  1.3644 -0.4099
12877TIP3   OH260045   1.671   0.730  14.692 -0.3638 -0.2272  0.3923
12877TIP3    H160046   1.592   0.783  14.679 -0.4720  0.2132  2.5184
12877TIP3    H260047   1.679   0.679  14.611 -1.9829  0.7931 -0.4647
12878TIP3   OH260048   3.160   4.211   3.254 -0.0764  0.0588 -0.5043
12878TIP3    H160049   3.121   4.293   3.285 -0.8053  0.0839 -1.4381
12878TIP3    H260050   3.134   4.206   3.162  0.2255 -1.0746 -0.5363
12879TIP3   OH260051   5.247   6.588  13.540  0.0174 -0.5285 -0.2679
12879TIP3    H160052   5.261   6.510  13.593  4.7008  1.9461  2.8913
12879TIP3    H260053   5.295   6.571  13.459  2.4237 -0.5487  1.0667
12880TIP3   OH260054   3.780   6.188   2.760 -0.1008 -0.5859  0.0546
12880TIP3    H160055   3.815   6.195   2.671 -2.9426  1.7251 -1.0421
12880TIP3    H260056   3.791   6.096   2.783  0.8655 -1.2278 -2.6109
12881TIP3   OH260057   2.149   5.550   2.209 -0.0190 -0.1882  0.5433
12881TIP3    H160058   2.124   5.510   2.125 -0.8763  0.2088  0.5902
12881TIP3    H260059   2.087   5.623   2.219 -0.4897 -0.7401  1.9249
12882TIP3   OH260060   4.136   1.819   0.326 -0.7864  0.1723 -0.5711
12882TIP3    H160061   4.097   1.892   0.279 -0.4595 -0.0134 -1.1483
12882TIP3    H260062   4.067   1.754   0.332 -1.0671  0.5103 -0.0893
12883TIP3   OH260063   0.665   0.548   3.551  0.1417  0.6027 -0.2518
12883TIP3    H160064   0.574   0.529   3.529  0.2947 -0.6570  0.1220
12883TIP3    H260065   0.716   0.490   3.495  0.7880  2.1769 -1.3608
12884TIP3   OH260066   1.614   2.552   0.853  0.0779 -0.7866  0.1448
12884TIP3    H160067   1.598   2.544   0.759  0.1774  0.3015  0.0271
12884TIP3    H260068   1.575   2.473   0.890 -1.3599 -0.4935 -0.6540
12885TIP3   OH260069   2.169   3.427  12.003  0.0889  0.1761  0.4335
12885TIP3    H160070   2.109   3.366  12.044 -0.1607  1.5296  2.2007
12885TIP3    H260071   2.117   3.505  11.986  0.6167  0.2681 -0.9415
12886TIP3   OH260072   6.168   0.527   2.658  0.2810  0.4565  0.0515
12886TIP3    H160073   6.199   0.602   2.608 -0.1089 -0.0035 -0.9116
12886TIP3    H260074   6.219   0.529   2.739 -0.2683  2.2004  0.4047
12887TIP3   OH260075   1.759   1.237   1.452  0.6143 -0.1819 -0.3930
12887TIP3    H160076   1.804   1.319   1.474 -0.1703  0.2751 -0.4759
12887TIP3    H260077   1.830   1.177   1.426  1.1481  0.6318 -0.8570
12888TIP3   OH260078   3.523   3.815   2.934  0.3324 -0.0920 -0.3663
12888TIP3    H160079   3.563   3.885   2.885  1.0742  0.2664  0.7200
12888TIP3    H260080   3.447   3.855   2.976  0.4392 -0.0719 -0.1903
12889TIP3   OH260081   4.821   0.830   5.129 -0.0631  0.1154  0.4309
12889TIP3    H160082   4.751   0.890   5.153 -0.5063 -0.0516 -0.4096
12889TIP3    H260083   4.892   0.849   5.191 -0.9553  0.0591  1.4964
12890TIP3   OH260084   6.591   4.617  12.848 -0.1613 -0.0453  0.6340
12890TIP3    H160085   6.662   4.612  12.912  0.3558 -0.7856  0.0173
12890TIP3    H260086   6.607   4.543  12.789 -0.9975  0.2509  0.0260
12891TIP3   OH260087   0.527   6.556  13.175  0.0689 -0.1430 -0.2283
12891TIP3    H160088   0.510   6.646  13.147 -1.9530 -0.4187 -0.0714
12891TIP3    H260089   0.569   6.515  13.100  0.5747  0.7926 -0.4755
12892TIP3   OH260090   3.639   6.289   0.741 -0.8844 -0.8400 -0.0441
12892TIP3    H160091   3.630   6.235   0.819  1.3445  0.5270  1.2687
12892TIP3    H260092   3.610   6.376   0.768  2.4811  0.3358  0.2592
12893TIP3   OH260093   2.317   1.728  17.224  0.8340 -0.2462 -0.6852
12893TIP3    H160094   2.249   1.710  17.159 -0.2255 -0.7721  0.5362
12893TIP3    H260095   2.278   1.703  17.308  1.7459  1.4730  0.3120
12894TIP3   OH260096   4.676   5.084   1.351  0.5974  0.1528 -0.2378
12894TIP3    H160097   4.631   5.061   1.270  0.3896 -0.2937 -0.0005
12894TIP3    H260098   4.727   5.006   1.374  1.1741  0.5033 -0.2811
12895TIP3   OH260099   1.029   3.263   3.684  0.7893 -0.0632 -0.3746
12895TIP3    H160100   0.995   3.352   3.691  2.0090  0.5463 -1.6240
12895TIP3    H260101   0.983   3.227   3.608 -0.9231 -1.1350  1.0805
12896TIP3   OH260102   3.731   5.211   4.055  0.3740 -0.3452  0.5258
12896TIP3    H160103   3.793   5.141   4.077  0.9950 -1.0524 -2.9450
12896TIP3    H260104   3.787   5.282   4.023 -0.3762 -1.5355 -4.1170
12897TIP3   OH260105   3.244   1.847  13.065  0.0922 -0.7630 -0.0959
12897TIP3    H160106   3.187   1.862  12.990  1.3501  0.1078 -0.9242
12897TIP3    H260107   3.213   1.907  13.132  1.2457  1.2413 -1.2541
12898TIP3   OH260108   1.598   5.603  12.796  0.4494  0.1105 -0.6093
12898TIP3    H160109   1.597   5.686  12.749 -1.9248 -0.1074 -1.1037
12898TIP3    H260110   1.555   5.541  12.737  0.5946 -1.0389  0.4399
12899TIP3   OH260111   5.571   0.152   1.737 -0.3401  0.2722  0.1568
12899TIP3    H160112   5.493   0.172   1.686 -0.3138 -1.6747 -0.7561
12899TIP3    H260113   5.540   0.141   1.827 -1.0698 -0.1593 -0.1453
12900TIP3   OH260114   5.401   1.027  11.315 -0.2515 -0.0787 -0.8914
12900TIP3    H160115   5.349   1.021  11.395  0.0024 -0.5607 -0.7587
12900TIP3    H260116   5.367   0.958  11.258  1.8773 -2.1750  0.1735
12901TIP3   OH260117   3.334   0.692  11.325  0.3710  0.2375 -0.1838
12901TIP3    H160118   3.389   0.770  11.330  0.6074  0.0276  0.6902
12901TIP3    H260119   3.347   0.648  11.410 -2.5149  1.0888  0.7832
12902TIP3   OH260120   0.091   5.654   1.976  0.0765  0.6920 -0.4710
12902TIP3    H160121   0.043   5.596   2.034  0.6707  0.0882 -0.5756
12902TIP3    H260122   0.172   5.607   1.956  0.4475  1.4370 -0.7680
12903TIP3   OH260123   0.731   3.007   1.825  0.6966  0.5400 -0.0927
12903TIP3    H160124   0.704   2.924   1.865  0.1934  0.8345  0.1841
12903TIP3    H260125   0.822   3.019   1.854  0.5157  0.4750  0.5068
12904TIP3   OH260126   3.876   0.405   0.513  0.0049 -0.1505 -0.6071
12904TIP3    H160127   3.800   0.366   0.557 -0.8155  0.1665 -1.6951
12904TIP3    H260128   3.945   0.406   0.580 -1.7680  2.1807  1.3508
12905TIP3   OH260129   3.092   0.333   1.620 -0.6173 -0.2450  0.1056
12905TIP3    H160130   3.112   0.415   1.575 -1.7653  0.9837  1.7117
12905TIP3    H260131   3.127   0.344   1.708 -1.4991 -1.1391  0.6035
12906TIP3   OH260132   3.343   6.353  16.803 -0.1832 -0.1521 -0.1286
12906TIP3    H160133   3.341   6.257  16.801  0.3756 -0.1671 -0.1720
12906TIP3    H260134   3.429   6.374  16.839 -0.7448  0.3239  1.0113
12907TIP3   OH260135   6.633   5.982  11.722 -0.0232 -0.4798  0.4567
12907TIP3    H160136   6.577   5.933  11.663  0.9741 -1.0433 -0.0543
12907TIP3    H260137   6.598   6.070  11.721  0.8949 -0.0348 -2.2880
12908TIP3   OH260138   3.269   3.118  17.091  0.4951 -0.4072  0.4449
12908TIP3    H160139   3.272   3.144  17.183 -0.5301 -0.7673  0.5907
12908TIP3    H260140   3.178   3.131  17.065  0.7900 -0.2509 -0.5444
12909TIP3   OH260141   6.522   1.327  12.015 -0.1310 -0.2479 -0.1294
12909TIP3    H160142   6.471   1.265  11.962 -0.5938 -0.8186  0.9668
12909TIP3    H260143   6.598   1.276  12.043 -0.4890 -0.3209  0.7345
12910TIP3   OH260144   5.770   5.626  12.793 -0.3735  0.4265  0.4824
12910TIP3    H160145   5.757   5.573  12.873 -2.8536 -2.3871 -1.5512
12910TIP3    H260146   5.686   5.669  12.779  0.0074  0.8426 -0.6340
12911TIP3   OH260147   5.965   4.953   6.697 -0.4286  0.1412  0.8814
12911TIP3    H160148   5.912   4.878   6.670 -0.1190 -0.7757  2.6446
12911TIP3    H260149   6.039   4.914   6.744  3.3705  1.1291 -3.5524
12912TIP3   OH260150   6.659   4.440   3.868 -0.1000 -0.4705  0.0108
12912TIP3    H160151   6.701   4.524   3.848 -1.0515  0.2294  0.8698
12912TIP3    H260152   6.596   4.428   3.797 -1.4980  0.6376  1.0147
12913TIP3   OH260153   0.768   5.216   4.988 -0.9257  0.2849  0.2356
12913TIP3    H160154   0.827   5.238   5.061  0.9828 -1.0666 -0.7853
12913TIP3    H260155   0.768   5.293   4.932 -2.4079  1.3356  1.6315
12914TIP3   OH260156   3.490   0.144  16.155  0.0330 -0.1157 -0.2037
12914TIP3    H160157   3.521   0.140  16.064 -0.8702  0.5106 -0.5584
12914TIP3    H260158   3.395   0.144  16.148 -0.0664  1.5344  0.6392
12915TIP3   OH260159   1.192   4.689  16.171 -0.3052  0.2170  0.0536
12915TIP3    H160160   1.097   4.681  16.158 -0.3403  0.0943  0.3871
12915TIP3    H260161   1.224   4.720  16.086 -0.4926 -0.9860 -0.4850
12916TIP3   OH260162   3.910   1.857   2.772  0.5841  0.0683  0.1663
12916TIP3    H160163   3.920   1.933   2.714  3.0704  0.0817  0.5151
12916TIP3    H260164   3.892   1.896   2.858  0.3318  0.1968  0.0559
12917TIP3   OH260165   6.293   4.597   1.415  0.1684 -0.2368 -0.1728
12917TIP3    H160166   6.296   4.510   1.455 -1.5520  0.0055  0.5557
12917TIP3    H260167   6.380   4.608   1.376  0.9647 -1.6161  1.1070
12918TIP3   OH260168   4.823   3.059  11.546  0.1533 -0.7989  0.1124
12918TIP3    H160169   4.780   3.026  11.624 -1.3314  0.1783 -0.2558
12918TIP3    H260170   4.752   3.095  11.492  1.4077  0.8115 -0.5573
12919TIP3   OH260171   1.938   4.416  15.657 -0.5500  0.1376  0.2971
12919TIP3    H160172   1.900   4.444  15.741 -3.0570 -0.4040 -0.5534
12919TIP3    H260173   1.953   4.322  15.668  0.2496  0.2792  0.4984
12920TIP3   OH260174   2.288   0.809   1.320 -0.3657 -0.3389 -0.2569
12920TIP3    H160175   2.273   0.860   1.241  0.8391  0.0764 -0.2345
12920TIP3    H260176   2.210   0.823   1.373 -0.1094  1.4251 -0.2841
12921TIP3   OH260177   0.546   1.862  13.318  0.2104 -0.0816 -0.8824
12921TIP3    H160178   0.598   1.942  13.323  2.3295 -1.3643 -1.3181
12921TIP3    H260179   0.537   1.845  13.224 -0.4397 -0.2424 -0.7977
12922TIP3   OH260180   4.703   4.653   2.936 -0.2657  0.5324 -0.7126
12922TIP3    H160181   4.610   4.673   2.948 -0.3176  0.2277 -0.5978
12922TIP3    H260182   4.748   4.733   2.961 -0.4576  0.4217  0.0093
12923TIP3   OH260183   0.297   3.307  15.316  0.0807  0.5708  1.0300
12923TIP3    H160184   0.275   3.214  15.305  1.7996  0.1629  0.7671
12923TIP3    H260185   0.224   3.343  15.366 -0.3340 -1.0729  1.6903
12924TIP3   OH260186   6.551   1.143  11.716  0.1604  0.5655 -0.6287
12924TIP3    H160187   6.456   1.135  11.717  0.0486  0.8799  2.7677
12924TIP3    H260188   6.575   1.128  11.624 -3.0369 -0.4728 -1.4468
12925TIP3   OH260189   0.189   5.011   3.409 -0.1522  0.1839 -0.5552
12925TIP3    H160190   0.278   4.976   3.410 -0.3793 -0.5062  1.3117
12925TIP3    H260191   0.166   5.019   3.502 -2.4703 -0.8691 -0.9597
12926TIP3   OH260192   6.734   4.159   4.442  0.1552  0.4558 -0.5383
12926TIP3    H160193   6.692   4.087   4.395  2.8126 -0.8808 -1.0617
12926TIP3    H260194   6.698   4.153   4.531  1.8949 -3.1082  0.1135
12927TIP3   OH260195   0.540   2.469   2.389 -0.0362 -0.0331 -0.8930
12927TIP3    H160196   0.502   2.382   2.400 -0.4040  0.2158 -0.1248
12927TIP3    H260197   0.476   2.517   2.337  0.3674 -0.3424 -1.6938
12928TIP3   OH260198   6.347   4.641   4.509 -0.1783  0.7444 -0.8679
12928TIP3    H160199   6.328   4.549   4.490  1.0084 -0.0470  1.3661
12928TIP3    H260200   6.421   4.663   4.453 -0.8923  0.5761 -1.9036
12929TIP3   OH260201   6.388   0.830   1.089  0.6785 -0.7279  0.3509
12929TIP3    H160202   6.396   0.748   1.138 -0.7540 -0.8451  0.4403
12929TIP3    H260203   6.298   0.859   1.105 -0.2381 -1.2959 -2.9509
12930TIP3   OH260204   3.278   0.510   0.216 -0.1470 -0.0667  0.0550
12930TIP3    H160205   3.361   0.469   0.191 -0.5843 -1.1469  0.3079
12930TIP3    H260206   3.214   0.469   0.159 -0.2516  2.4111 -1.7649
12931TIP3   OH260207   3.373   6.064  16.162  0.0646  0.0669 -0.0254
12931TIP3    H160208   3.371   6.091  16.254  2.1256  0.7889 -0.1246
12931TIP3    H260209   3.292   6.016  16.149 -0.1392 -0.3212  2.2614
12932TIP3   OH260210   0.378   5.635   5.821  0.5060 -0.2159 -0.0342
12932TIP3    H160211   0.295   5.595   5.795 -0.8938  0.3984  3.0126
12932TIP3    H260212   0.363   5.729   5.813  1.4053 -0.1178 -0.7081
12933TIP3   OH260213   0.572   5.311   0.708 -0.0944  0.5458 -0.0967
12933TIP3    H160214   0.652   5.268   0.678  0.4223  0.5641  1.1574
12933TIP3    H260215   0.551   5.373   0.638  1.2240  0.8220 -0.2903
12934TIP3   OH260216   2.570   6.742   5.125 -0.5080  0.6357  0.1404
12934TIP3    H160217   2.574   6.646   5.128 -0.1059  0.6218 -0.6186
12934TIP3    H260218   2.477   6.762   5.121 -0.5598  0.2150 -1.1033
12935TIP3   OH260219   4.386   5.703   3.509 -0.3633 -0.5735 -0.7693
12935TIP3    H160220   4.467   5.657   3.530 -1.1588 -1.7324 -0.1588
12935TIP3    H260221   4.322   5.634   3.495 -1.2710  0.3298 -1.1554
12936TIP3   OH260222   0.901   6.655  16.438  1.1879 -0.5966  0.0325
12936TIP3    H160223   0.996   6.669  16.441  1.1486 -0.3375  0.1049
12936TIP3    H260224   0.866   6.737  16.404  0.7950  0.2231  2.2072
12937TIP3   OH260225   4.026   2.561  13.481 -0.2289  0.5450 -0.6444
12937TIP3    H160226   3.991   2.524  13.562  0.0628  1.7151  0.0433
12937TIP3    H260227   4.092   2.498  13.452 -0.2788  0.1537  0.0657
12938TIP3   OH260228   5.551   0.309   5.816 -0.2195  0.0263 -0.5075
12938TIP3    H160229   5.587   0.359   5.889 -1.9143  1.3917 -0.5419
12938TIP3    H260230   5.628   0.284   5.764  0.8518  0.6771  0.6991
12939TIP3   OH260231   6.696   3.634  11.423  0.0491 -0.2170 -0.2978
12939TIP3    H160232   6.687   3.726  11.448  3.3285  0.4622 -1.1212
12939TIP3    H260233   6.723   3.638  11.331 -0.8599 -2.0997 -0.6831
12940TIP3   OH260234   5.282   5.301   4.970 -0.3033  0.2911  0.5740
12940TIP3    H160235   5.292   5.396   4.967 -1.0466  0.3712 -2.9360
12940TIP3    H260236   5.191   5.285   4.946 -0.2268 -1.3474  1.2037
12941TIP3   OH260237   0.915   5.832   0.342 -0.5604  0.6501 -0.2824
12941TIP3    H160238   0.874   5.912   0.310 -0.9929  0.1476 -1.0214
12941TIP3    H260239   0.876   5.762   0.289  1.4428  0.1682 -1.2514
12942TIP3   OH260240   5.950   5.176   4.506 -0.2403  0.4298 -0.0570
12942TIP3    H160241   6.033   5.223   4.493  0.2257 -0.4775 -0.4727
12942TIP3    H260242   5.976   5.084   4.512 -1.2829  0.0677 -0.8185
12943TIP3   OH260243   0.286   5.892   3.706  0.3520 -0.1223 -0.1042
12943TIP3    H160244   0.287   5.836   3.629 -1.5386 -0.4733  0.0808
12943TIP3    H260245   0.264   5.979   3.673  1.1701  0.0834 -0.1334
12944TIP3   OH260246   2.895   2.157  16.497 -0.1771 -0.2287  0.5262
12944TIP3    H160247   2.963   2.123  16.439 -1.5187  0.3118 -1.4714
12944TIP3    H260248   2.849   2.079  16.528 -0.5299 -0.4850 -0.5739
12945TIP3   OH260249   0.490   2.995   2.100  0.4296 -0.8250 -0.7386
12945TIP3    H160250   0.410   2.952   2.069  0.7992 -1.7827 -0.3960
12945TIP3    H260251   0.495   2.972   2.193 -0.0842  1.1048 -0.1833
12946TIP3   OH260252   5.914   4.535  12.496 -0.0436 -0.0614 -0.3845
12946TIP3    H160253   5.935   4.628  12.487  0.2684 -0.0657  0.2819
12946TIP3    H260254   5.871   4.513  12.413 -1.6625  1.0859  0.0831
12947TIP3   OH260255   0.135   0.405  15.031 -0.2337 -0.1036  0.0881
12947TIP3    H160256   0.157   0.484  14.982  2.5039 -0.8007  0.0654
12947TIP3    H260257   0.090   0.438  15.109  2.8446  1.7722  1.2382
12948TIP3   OH260258   3.384   2.628  13.294  0.1072  0.2266 -0.0880
12948TIP3    H160259   3.462   2.663  13.337 -0.0927  0.9873 -0.3325
12948TIP3    H260260   3.348   2.702  13.245 -0.7436 -0.1321 -0.0194
12949TIP3   OH260261   3.789   4.234   2.603 -0.6405 -0.1403 -0.4713
12949TIP3    H160262   3.814   4.266   2.517 -1.3164  0.6498 -0.3892
12949TIP3    H260263   3.854   4.166   2.624  1.2514  1.6211 -0.3728
12950TIP3   OH260264   4.092   5.918   5.891 -0.6373  0.3063 -0.4986
12950TIP3    H160265   4.173   5.913   5.839 -1.8557 -0.7531 -2.4490
12950TIP3    H260266   4.113   5.870   5.971  0.2641 -1.3062 -1.6231
12951TIP3   OH260267   2.103   0.309   5.096  0.3316 -0.2838  0.6719
12951TIP3    H160268   2.099   0.387   5.150  2.0173  0.2887  0.0280
12951TIP3    H260269   2.069   0.239   5.152  1.6940  0.3535  2.3533
12952TIP3   OH260270   0.945   2.864   2.495 -0.2546  0.5377 -0.1662
12952TIP3    H160271   0.907   2.787   2.454  0.7200  0.6239 -1.2871
12952TIP3    H260272   1.034   2.868   2.461  0.3496  1.0811  1.3582
12953TIP3   OH260273   6.526   1.890  12.952 -0.6161 -0.3514 -0.2842
12953TIP3    H160274   6.578   1.903  12.872  0.9464 -2.3754  0.3114
12953TIP3    H260275   6.576   1.826  13.003 -2.1222  0.0574  1.8428
12954TIP3   OH260276   2.471   6.594  12.816 -0.0168  0.3731 -0.1578
12954TIP3    H160277   2.479   6.671  12.760 -1.7848  1.1485  0.5624
12954TIP3    H260278   2.526   6.528  12.774  0.6313  1.6595 -1.4384
12955TIP3   OH260279   4.932   3.387  14.781  0.0237 -0.1142 -0.1510
12955TIP3    H160280   5.003   3.413  14.839 -0.9797  1.8825  0.2872
12955TIP3    H260281   4.880   3.326  14.833 -1.7626  2.8402  1.8470
12956TIP3   OH260282   5.013   2.804  13.070  0.6444  0.1399  0.2683
12956TIP3    H160283   5.083   2.826  13.132 -1.1494 -0.6526  2.6899
12956TIP3    H260284   4.947   2.872  13.083 -0.0504 -0.4042 -0.3304
12957TIP3   OH260285   4.259   5.469   3.392 -0.2740  0.4781  0.0749
12957TIP3    H160286   4.307   5.511   3.321  0.0617 -0.9513 -0.5672
12957TIP3    H260287   4.177   5.439   3.353 -0.6483  0.7840  0.6014
12958TIP3   OH260288   3.000   2.376   0.053  0.4487 -0.0480 -0.5213
12958TIP3    H160289   3.084   2.341   0.082  0.1656  0.0907  0.4820
12958TIP3    H260290   2.935   2.326   0.102 -0.1588 -1.4131 -2.5892
12959TIP3   OH260291   2.157   4.386   0.376 -0.0672 -0.6297  0.2019
12959TIP3    H160292   2.075   4.398   0.328  0.9124 -1.7952 -1.8498
12959TIP3    H260293   2.219   4.446   0.334  0.2891 -0.1292  1.4000
12960TIP3   OH260294   6.651   2.082  13.737  0.2457  0.6351  0.6668
12960TIP3    H160295   6.594   2.072  13.661  0.9740 -1.6091  0.3471
12960TIP3    H260296   6.655   2.177  13.752 -0.1129  1.1261 -1.9202
12961TIP3   OH260297   1.788   5.189  12.362 -1.0093  0.2071  0.4318
12961TIP3    H160298   1.837   5.134  12.424  0.0623  0.4205 -0.1926
12961TIP3    H260299   1.825   5.277  12.374 -1.5989  0.4783  0.2952
12962TIP3   OH260300   6.517   0.614   5.597 -0.0509  0.4929 -0.4571
12962TIP3    H160301   6.426   0.595   5.574  0.2672  0.3852 -1.6849
12962TIP3    H260302   6.511   0.685   5.662 -0.9693  1.6316 -1.7288
12963TIP3   OH260303   2.713   0.514   2.225  0.1107  0.1007 -0.2145
12963TIP3    H160304   2.738   0.422   2.215  1.9506  0.6122 -0.6719
12963TIP3    H260305   2.676   0.519   2.313 -1.3562 -1.3284 -0.6862
12964TIP3   OH260306   0.950   4.572   0.365 -0.6243 -0.4151  0.5157
12964TIP3    H160307   0.881   4.624   0.324 -0.6533 -0.5067  0.4471
12964TIP3    H260308   1.000   4.635   0.417  0.8420  0.1769 -1.4578
12965TIP3   OH260309   1.202   1.836  14.726 -0.0851  0.2166  0.2675
12965TIP3    H160310   1.181   1.815  14.635  1.7851  0.6059 -0.3116
12965TIP3    H260311   1.240   1.756  14.762  1.3539  0.7007 -0.0667
12966TIP3   OH260312   3.798   2.333  14.176  0.0253 -0.2631 -0.0993
12966TIP3    H160313   3.819   2.257  14.121 -0.1204 -1.0353  0.8875
12966TIP3    H260314   3.791   2.406  14.114  1.8497 -0.7080 -0.8844
12967TIP3   OH260315   0.197   4.953  13.914 -0.0173  0.1061 -0.1194
12967TIP3    H160316   0.253   4.981  13.987 -0.2048 -0.1624  0.1282
12967TIP3    H260317   0.229   4.866  13.891  1.0478  0.7866 -1.3742
12968TIP3   OH260318   6.369   2.709   1.541 -0.2161 -0.0915 -0.0606
12968TIP3    H160319   6.281   2.673   1.537 -0.5959  0.6074  1.4131
12968TIP3    H260320   6.380   2.754   1.456 -2.1800  1.7785  0.5690
12969TIP3   OH260321   5.794   1.005  16.505  0.4660  0.1236 -0.0986
12969TIP3    H160322   5.841   1.078  16.466 -0.9271  1.4531  0.6004
12969TIP3    H260323   5.731   0.979  16.437  0.2499  0.2930  0.0320
12970TIP3   OH260324   0.717   4.368  16.636  0.3325 -1.0192 -0.0607
12970TIP3    H160325   0.746   4.289  16.683  0.8356 -0.7587  0.0678
12970TIP3    H260326   0.694   4.337  16.549 -0.1806 -1.4354  0.2158
12971TIP3   OH260327   2.154   2.649  13.745 -0.0974 -0.0269 -0.9529
12971TIP3    H160328   2.204   2.623  13.667  0.1471 -0.6059 -0.6122
12971TIP3    H260329   2.166   2.743  13.751 -0.5388  0.1051 -1.9103
12972TIP3   OH260330   3.008   1.879   6.218 -0.0076  0.1058 -0.6252
12972TIP3    H160331   2.958   1.880   6.135 -0.9616  2.6466 -0.1207
12972TIP3    H260332   2.984   1.796   6.259 -0.6144 -0.5750 -2.2498
12973TIP3   OH260333   5.173   6.636   6.617 -0.0588 -0.8324 -0.2647
12973TIP3    H160334   5.217   6.561   6.577 -0.9978 -2.1832  1.1357
12973TIP3    H260335   5.094   6.599   6.657 -0.3563  0.8386  0.7809
12974TIP3   OH260336   5.376   1.609   6.121 -0.3406  0.5318  0.0704
12974TIP3    H160337   5.446   1.653   6.170  1.5998 -0.5385 -1.5855
12974TIP3    H260338   5.386   1.641   6.031  0.0978 -1.9507 -0.8496
12975TIP3   OH260339   1.239   2.730   4.382  0.6427  0.4281 -0.2194
12975TIP3    H160340   1.324   2.686   4.377  0.3122 -0.8905  3.4378
12975TIP3    H260341   1.182   2.669   4.429 -2.8322  0.7519 -3.4279
12976TIP3   OH260342   0.157   3.581   3.445  0.1537 -0.3348 -0.2086
12976TIP3    H160343   0.085   3.540   3.397  1.7703 -3.0161 -0.5292
12976TIP3    H260344   0.232   3.577   3.385  1.0499  0.6779  0.7912
12977TIP3   OH260345   1.381   6.356   5.312  0.2401  0.3410 -0.5977
12977TIP3    H160346   1.437   6.416   5.362  0.2581 -0.3686  0.2726
12977TIP3    H260347   1.442   6.310   5.254  1.3347 -2.9377  2.7217
12978TIP3   OH260348   1.207   0.277   4.710  0.6310  0.0965  0.0926
12978TIP3    H160349   1.246   0.338   4.648 -0.0314  0.1803 -0.2455
12978TIP3    H260350   1.178   0.332   4.783 -0.3924  0.2574 -0.4224
12979TIP3   OH260351   4.169   0.305  17.354  0.7027 -0.0969  0.1632
12979TIP3    H160352   4.131   0.393  17.349  0.2752 -0.1468  1.8359
12979TIP3    H260353   4.262   0.318  17.333  0.6606  0.7777  0.4481
12980TIP3   OH260354   2.281   2.110   3.397 -0.2933  0.5082 -0.2704
12980TIP3    H160355   2.201   2.150   3.363 -1.8122 -1.0004  1.2795
12980TIP3    H260356   2.267   2.016   3.386  0.6859  0.1497  1.2476
12981TIP3   OH260357   5.270   5.591  12.644 -0.3263  0.4040 -0.5861
12981TIP3    H160358   5.364   5.583  12.629 -0.3183 -0.8294 -0.0017
12981TIP3    H260359   5.257   5.683  12.667  0.8288  0.4611 -0.0877
12982TIP3   OH260360   4.491   1.777  13.586 -0.4006 -0.3697  0.8063
12982TIP3    H160361   4.548   1.798  13.660 -0.6392 -1.5000  1.3423
12982TIP3    H260362   4.544   1.792  13.508 -0.1448  0.8462  1.1960
12983TIP3   OH260363   6.519   2.747   2.672 -0.0194  0.0714  0.0410
12983TIP3    H160364   6.501   2.702   2.755  0.5630  0.0721  0.1707
12983TIP3    H260365   6.595   2.802   2.691  2.1636 -2.2768 -1.3061
12984TIP3   OH260366   0.851   4.406   2.538  0.0731 -0.2374  0.3082
12984TIP3    H160367   0.830   4.352   2.462 -2.0790 -0.7226  1.1633
12984TIP3    H260368   0.873   4.343   2.607 -3.3207 -0.2719  1.5715
12985TIP3   OH260369   6.569   5.170   5.040 -0.3519 -0.0796 -0.2944
12985TIP3    H160370   6.619   5.143   4.963  0.2286  1.6545 -0.5747
12985TIP3    H260371   6.508   5.098   5.056  2.6096 -2.6667  0.4717
12986TIP3   OH260372   3.491   0.632   5.467 -0.2799  0.0681 -0.1478
12986TIP3    H160373   3.578   0.593   5.456  0.2765  1.1831  0.1603
12986TIP3    H260374   3.489   0.706   5.406 -1.3241 -0.4099 -0.7346
12987TIP3   OH260375   3.772   5.866  12.764  0.1966 -0.0491  0.1019
12987TIP3    H160376   3.829   5.937  12.795 -2.4391  2.3341 -0.1806
12987TIP3    H260377   3.727   5.836  12.843 -1.0464  0.8755 -0.2259
12988TIP3   OH260378   1.877   6.119   2.744  0.3796  0.0968 -0.1689
12988TIP3    H160379   1.861   6.032   2.708 -0.5258  0.2224 -0.0937
12988TIP3    H260380   1.890   6.105   2.837 -1.7372  0.2185  0.1945
12989TIP3   OH260381   6.039   6.554  12.530  0.3243 -0.8467 -0.4228
12989TIP3    H160382   5.964   6.540  12.472  0.3300  1.0654 -0.9481
12989TIP3    H260383   6.092   6.620  12.486 -0.1202  1.3844  2.0823
12990TIP3   OH260384   1.700   1.300  12.491 -0.6860 -0.3362 -0.2211
12990TIP3    H160385   1.747   1.360  12.548 -2.8862  0.8991  0.4300
12990TIP3    H260386   1.741   1.215  12.506  2.7698  0.9297 -1.4210
12991TIP3   OH260387   4.522   3.240  17.160  0.4278  0.0895  0.4722
12991TIP3    H160388   4.522   3.336  17.156  1.7857  0.1090  0.4288
12991TIP3    H260389   4.614   3.217  17.175  0.3468 -1.2579 -0.9159
12992TIP3   OH260390   5.744   3.095  13.680  0.2173 -0.1283  0.3352
12992TIP3    H160391   5.726   3.003  13.699 -0.1420 -0.1275  0.0116
12992TIP3    H260392   5.664   3.127  13.639  0.5435  0.1894 -0.0545
12993TIP3   OH260393   3.153   0.511  12.961 -0.0753  0.5439 -0.6415
12993TIP3    H160394   3.173   0.488  13.051 -0.2503  1.3261 -0.3945
12993TIP3    H260395   3.166   0.605  12.956  1.8572  0.2797 -1.9478
12994TIP3   OH260396   5.591   6.222  12.910  0.5602  0.2085  0.0608
12994TIP3    H160397   5.542   6.257  12.837  0.0518  0.1492  0.3683
12994TIP3    H260398   5.602   6.296  12.970  0.2715  0.0690  0.2928
12995TIP3   OH260399   4.124   4.119   1.327 -0.5078 -0.4700  0.0580
12995TIP3    H160400   4.158   4.193   1.276  0.1527 -0.2992  0.7438
12995TIP3    H260401   4.151   4.137   1.417 -3.1565  0.1351  0.8216
12996TIP3   OH260402   0.304   3.001   0.042 -0.0227 -0.3852 -0.6597
12996TIP3    H160403   0.376   3.061   0.020 -2.2266  2.3626 -0.9529
12996TIP3    H260404   0.318   2.926  -0.016  1.3857  1.0474 -2.3214
12997TIP3   OH260405   1.428   2.659   5.709  0.0906  0.8648 -0.0014
12997TIP3    H160406   1.474   2.621   5.783 -1.3803  2.4346  1.8330
12997TIP3    H260407   1.347   2.608   5.703  0.2883  0.6153 -0.6998
12998TIP3   OH260408   1.525   2.939  17.230  0.5759 -0.1218  1.0725
12998TIP3    H160409   1.473   2.861  17.248  0.4686  0.1140  1.8148
12998TIP3    H260410   1.470   2.992  17.172  0.4106 -0.3322  1.0354
12999TIP3   OH260411   2.776   4.262  12.303  0.1852  0.2103 -0.3045
12999TIP3    H160412   2.771   4.174  12.266  3.2206 -0.3687  0.3762
12999TIP3    H260413   2.696   4.271  12.355 -0.7582 -1.6521 -1.3513
13000TIP3   OH260414   4.976   6.520  14.232  0.0275  0.5834 -0.4955
13000TIP3    H160415   4.931   6.461  14.292  0.4628 -1.3505 -1.9703
13000TIP3    H260416   5.067   6.522  14.264  0.5476 -1.4062 -1.6835
13001TIP3   OH260417   5.531   5.665  11.660 -0.3261  0.5502  0.0700
13001TIP3    H160418   5.517   5.700  11.572 -0.2063 -0.8687 -0.5251
13001TIP3    H260419   5.490   5.730  11.717  0.9703  2.2980 -0.8888
13002TIP3   OH260420   3.565   1.538   4.834 -0.1726  0.5806 -0.0589
13002TIP3    H160421   3.625   1.485   4.782  0.3701 -0.9371  1.9817
13002TIP3    H260422   3.594   1.628   4.818  0.9282  0.0701 -1.1669
13003TIP3   OH260423   2.000   6.538  15.623 -0.0193  0.2386 -0.5207
13003TIP3    H160424   1.941   6.487  15.567  0.1627  0.5168 -0.9699
13003TIP3    H260425   2.030   6.476  15.689  0.2819 -0.2617 -1.1285
13004TIP3   OH260426   6.700   2.325  12.300 -0.0945 -0.2684 -0.2579
13004TIP3    H160427   6.647   2.351  12.376  0.2536  3.7214 -1.1412
13004TIP3    H260428   6.767   2.267  12.336 -1.4685 -0.5916  1.9670
13005TIP3   OH260429   1.301   2.610  14.803 -0.4668  0.6491 -0.0044
13005TIP3    H160430   1.299   2.520  14.836  0.0026 -0.5210 -2.8370
13005TIP3    H260431   1.392   2.638  14.816 -0.3661  0.3290 -0.0042
13006TIP3   OH260432   4.470   0.471  12.451 -0.1788 -0.0896 -0.6926
13006TIP3    H160433   4.456   0.454  12.358  0.2105 -1.3867 -0.5344
13006TIP3    H260434   4.565   0.478  12.460 -0.0508 -1.9767 -0.1079
13007TIP3   OH260435   3.596   0.276  13.747 -0.0546  0.3240 -0.0828
13007TIP3    H160436   3.562   0.275  13.658  0.7513 -0.3850 -0.4029
13007TIP3    H260437   3.605   0.369  13.768 -2.2001  0.5471  0.0599
13008TIP3   OH260438   2.603   1.451  13.687  0.5263  0.0401 -0.4935
13008TIP3    H160439   2.509   1.440  13.677  0.4208  0.4234  0.0369
13008TIP3    H260440   2.628   1.509  13.615  0.1709  0.8242 -0.0003
13009TIP3   OH260441   1.006   2.169  13.663  0.3002  0.4530  0.0069
13009TIP3    H160442   1.045   2.082  13.672  0.4042  0.4496 -0.4534
13009TIP3    H260443   0.928   2.166  13.718 -0.0796 -0.1683 -0.5477
13010TIP3   OH260444   1.760   0.213  15.523  0.1669 -0.1217 -0.2001
13010TIP3    H160445   1.853   0.190  15.525 -0.1885 -1.5637  0.8255
13010TIP3    H260446   1.726   0.185  15.608 -1.2922  0.0169 -0.7137
13011TIP3   OH260447   2.905   1.854  12.659 -0.0383  0.7479  0.3198
13011TIP3    H160448   2.898   1.947  12.637 -1.1222  0.9592  1.4419
13011TIP3    H260449   2.980   1.822  12.607 -0.9671  1.7307 -1.7378
13012TIP3   OH260450   4.723   4.871  15.365 -0.2236  0.0537 -0.2584
13012TIP3    H160451   4.661   4.810  15.324  1.3081 -0.7020 -1.5483
13012TIP3    H260452   4.770   4.818  15.428 -2.4545  1.1753  2.5781
13013TIP3   OH260453   5.486   2.411  11.789 -0.6043 -0.2055 -0.0000
13013TIP3    H160454   5.396   2.445  11.793 -0.2629  0.6528  0.6084
13013TIP3    H260455   5.529   2.465  11.723 -0.1052  0.4739  0.8538
13014TIP3   OH260456   0.733   3.488   3.230 -0.4032  0.0582 -0.7617
13014TIP3    H160457   0.690   3.544   3.165  0.9163  1.5375 -0.4279
13014TIP3    H260458   0.785   3.549   3.283  1.6726 -1.5689 -0.8186
13015TIP3   OH260459   1.631   4.967  14.990  0.3321 -0.2635  0.1762
13015TIP3    H160460   1.698   5.027  15.023  1.1436 -0.8619 -0.3514
13015TIP3    H260461   1.673   4.921  14.918 -1.8576  2.0945 -2.8511
13016TIP3   OH260462   6.553   5.773  12.143  0.3054 -0.2632 -0.0464
13016TIP3    H160463   6.559   5.742  12.234  2.1950 -0.1352 -0.0797
13016TIP3    H260464   6.597   5.858  12.144  0.2016 -0.1854 -1.0516
13017TIP3   OH260465   3.575   3.610   2.554 -0.7578  0.1684 -0.0578
13017TIP3    H160466   3.653   3.557   2.566 -0.4604  0.1639 -1.7853
13017TIP3    H260467   3.505   3.559   2.594 -0.1504 -0.5806  0.0766
13018TIP3   OH260468   1.453   4.573  11.798  0.0919 -0.1685 -0.4587
13018TIP3    H160469   1.459   4.666  11.773 -0.8360 -0.0499 -0.2513
13018TIP3    H260470   1.397   4.534  11.732 -0.5743 -0.3139  0.1867
13019TIP3   OH260471   2.196   6.619  11.603  0.5000 -0.0294 -0.2574
13019TIP3    H160472   2.101   6.606  11.600  0.1221  2.5090 -1.4552
13019TIP3    H260473   2.221   6.590  11.692 -1.6509  0.7705  0.6622
13020TIP3   OH260474   3.987   1.363  14.541  0.2074  0.0202 -0.1696
13020TIP3    H160475   3.956   1.321  14.620 -0.6714  2.6108  0.9832
13020TIP3    H260476   3.917   1.350  14.477 -0.9392  1.2646  0.7714
13021TIP3   OH260477   6.252   2.281   6.574  0.2242  0.2114  0.3627
13021TIP3    H160478   6.253   2.185   6.570  0.5143  0.2166  0.3308
13021TIP3    H260479   6.331   2.304   6.622  0.5703  0.4662 -0.3110
13022TIP3   OH260480   2.556   3.579  12.547  0.2468  0.4673  0.3140
13022TIP3    H160481   2.500   3.504  12.566 -0.0246  0.8655  1.1872
13022TIP3    H260482   2.520   3.618  12.468  0.2329 -0.1751  0.0066
13023TIP3   OH260483   5.028   4.706   0.911 -0.0547  0.0942 -0.0286
13023TIP3    H160484   5.087   4.684   0.839 -0.8582  2.1083 -1.3932
13023TIP3    H260485   4.974   4.628   0.923  0.9603 -0.7352 -0.7120
13024TIP3   OH260486   2.472   4.092  14.585 -0.3777  0.4637 -0.3825
13024TIP3    H160487   2.408   4.081  14.515 -0.6354  1.0807 -0.2474
13024TIP3    H260488   2.483   4.187  14.594 -0.3940  0.4002  0.4509
13025TIP3   OH260489   0.123   1.986  12.126  0.1209  0.0705 -0.0846
13025TIP3    H160490   0.124   2.031  12.210 -2.7858 -0.5737  0.4035
13025TIP3    H260491   0.119   2.055  12.061  0.4132  0.5610  0.4151
13026TIP3   OH260492   5.770   5.974  13.612  0.8460 -0.4047  0.4783
13026TIP3    H160493   5.829   5.912  13.569  1.2389  0.3047 -0.0187
13026TIP3    H260494   5.822   6.052  13.625 -0.3463  0.7586 -1.2572
13027TIP3   OH260495   4.244   0.409  13.056 -0.3099  0.1696 -0.1201
13027TIP3    H160496   4.216   0.422  12.966 -0.3146  0.1392 -0.1232
13027TIP3    H260497   4.318   0.469  13.067  1.2299 -1.5031 -0.8537
13028TIP3   OH260498   0.786   0.322   2.751 -0.4419  0.0922 -0.3322
13028TIP3    H160499   0.867   0.303   2.705  0.0137  1.5913 -0.1902
13028TIP3    H260500   0.729   0.362   2.685 -0.9571 -0.6594 -0.3528
13029TIP3   OH260501   3.940   4.935  12.173  0.2260 -0.2934 -0.3734
13029TIP3    H160502   4.015   4.877  12.164 -1.3175 -2.7503  1.2836
13029TIP3    H260503   3.871   4.894  12.121 -1.8665 -1.9520  3.3373
13030TIP3   OH260504   0.459   4.828  10.387 -0.1250  0.0562 -0.0748
13030TIP3    H160505   0.444   4.756  10.327  0.1286  0.1651 -0.2753
13030TIP3    H260506   0.373   4.849  10.424 -0.5783  1.0503 -1.6175
13031TIP3   OH260507   1.518   5.075  16.026 -0.2327 -0.0171 -0.2600
13031TIP3    H160508   1.445   5.128  15.994  0.6863  0.5665 -1.4601
13031TIP3    H260509   1.574   5.138  16.072 -1.8910 -0.9261  3.4245
13032TIP3   OH260510   2.333   4.905   1.100  0.6431 -0.1784 -0.1143
13032TIP3    H160511   2.278   4.830   1.122 -1.4370  0.9770 -1.0656
13032TIP3    H260512   2.417   4.866   1.075  0.2339 -2.0295  1.1915
13033TIP3   OH260513   2.529   5.596   4.050 -0.0145  0.0389 -0.3668
13033TIP3    H160514   2.438   5.574   4.070  0.0600 -0.8134 -0.9332
13033TIP3    H260515   2.569   5.513   4.026  0.8739  0.4382 -0.2933
13034TIP3   OH260516   6.113   6.046  11.980 -0.4829 -0.2762  0.4902
13034TIP3    H160517   6.105   6.059  11.886  0.2529 -0.2288  0.4319
13034TIP3    H260518   6.076   6.126  12.018 -2.5467 -1.0898  0.3043
13035TIP3   OH260519   0.994   0.281   0.392  0.3451 -0.3839  0.1059
13035TIP3    H160520   0.945   0.203   0.367  1.4216 -1.2017  0.4591
13035TIP3    H260521   1.037   0.309   0.311  0.0044 -0.1917 -0.0085
13036TIP3   OH260522   2.130   2.735   1.479  0.2864 -0.0961  0.1542
13036TIP3    H160523   2.129   2.714   1.572 -0.8725  0.1314  0.2050
13036TIP3    H260524   2.198   2.678   1.442 -0.0985 -1.0785  0.9260
13037TIP3   OH260525   5.099   1.625  16.672 -0.3676  0.7820 -0.0005
13037TIP3    H160526   5.079   1.632  16.765  1.7656  1.1325  0.4837
13037TIP3    H260527   5.131   1.535  16.662 -3.5827 -0.3484 -1.0884
13038TIP3   OH260528   5.625   3.934   3.709  0.0567  0.2273 -0.3212
13038TIP3    H160529   5.701   3.967   3.662 -0.2221  1.3978  0.0147
13038TIP3    H260530   5.661   3.897   3.789  0.4945 -1.4184 -1.2388
13039TIP3   OH260531   2.787   5.005   4.039  0.1472 -0.1276 -0.3780
13039TIP3    H160532   2.716   4.967   4.090  0.2414  0.7009  0.3997
13039TIP3    H260533   2.765   5.098   4.033 -0.9977 -0.4932 -3.7194
13040TIP3   OH260534   3.167   3.858   2.826  0.6474 -0.0637 -0.0785
13040TIP3    H160535   3.209   3.827   2.907  0.3183 -4.1284 -1.2426
13040TIP3    H260536   3.237   3.855   2.761 -0.0036 -0.8419 -0.7527
13041TIP3   OH260537   3.060   5.986  16.888 -0.4386  0.2787 -0.3648
13041TIP3    H160538   2.993   5.969  16.821  0.1049 -0.1686 -0.8048
13041TIP3    H260539   3.017   6.044  16.951 -1.2190  0.0472 -0.6777
13042TIP3   OH260540   2.419   2.023   3.128 -0.0896 -0.1206 -0.2908
13042TIP3    H160541   2.503   2.061   3.154  0.1254 -0.1203 -0.9673
13042TIP3    H260542   2.432   1.997   3.037 -0.2982 -1.6077  0.0733
13043TIP3   OH260543   4.612   6.642  12.686  0.0238  0.7542  0.2999
13043TIP3    H160544   4.688   6.631  12.629  1.2730  1.1073  1.8455
13043TIP3    H260545   4.591   6.736  12.679 -0.0618  0.7227  0.1314
13044TIP3   OH260546   3.428   4.942  13.766 -0.3286 -0.0189  0.5021
13044TIP3    H160547   3.485   4.912  13.837  0.7571  0.9791  0.0902
13044TIP3    H260548   3.375   5.011  13.806  0.6533  0.9147  0.2544
13045TIP3   OH260549   3.532   1.716  16.528  0.1211  0.1241 -0.2264
13045TIP3    H160550   3.504   1.682  16.443  1.1085 -3.3853  0.6784
13045TIP3    H260551   3.452   1.717  16.581 -0.1627  0.5900 -0.6467
13046TIP3   OH260552   0.963   1.292  14.687 -0.1094  0.5906  0.6644
13046TIP3    H160553   0.993   1.357  14.623 -0.4697  0.5102  0.4123
13046TIP3    H260554   1.040   1.276  14.742  0.3861  0.2152 -0.1180
13047TIP3   OH260555   6.122   1.672   4.102  0.1308 -0.4450 -0.2238
13047TIP3    H160556   6.205   1.625   4.094  0.3066 -0.8701  2.9705
13047TIP3    H260557   6.056   1.606   4.079  0.5391 -1.3269  1.0037
13048TIP3   OH260558   2.380   0.450   4.218 -0.6010 -0.0796  0.6044
13048TIP3    H160559   2.359   0.538   4.188  0.4662  0.0741  0.2826
13048TIP3    H260560   2.405   0.461   4.310 -1.2654 -0.1784  0.8077
13049TIP3   OH260561   1.069   0.788   2.176 -1.2917 -0.3699  0.3032
13049TIP3    H160562   1.012   0.841   2.233  1.6896  3.6947 -0.0939
13049TIP3    H260563   1.026   0.790   2.091 -3.3123 -2.3577  1.1668
13050TIP3   OH260564   2.450   4.598  12.444 -0.0218 -0.1516 -0.8526
13050TIP3    H160565   2.355   4.607  12.440  0.0123 -0.1290 -1.7907
13050TIP3    H260566   2.466   4.509  12.411  0.1748 -0.8160  0.9356
13051TIP3   OH260567   2.116   5.209  12.680  0.6217  0.1565 -0.1841
13051TIP3    H160568   2.023   5.228  12.664  0.5419 -1.4978 -2.0792
13051TIP3    H260569   2.115   5.136  12.741  0.6959  0.5046  0.2350
13052TIP3   OH260570   5.096   1.781  13.094  0.4373 -0.1049 -0.3797
13052TIP3    H160571   5.077   1.751  13.005  1.0214  1.7445 -1.1876
13052TIP3    H260572   5.188   1.758  13.107  0.0050 -1.5347  0.2716
13053TIP3   OH260573   1.794   5.245  12.765  0.0572 -0.4903 -0.4327
13053TIP3    H160574   1.808   5.153  12.741  0.5485 -1.1314  2.0187
13053TIP3    H260575   1.700   5.251  12.782 -0.1412 -0.2632 -1.5586
13054TIP3   OH260576   5.988   4.696   4.364 -1.2539 -0.5571 -0.0691
13054TIP3    H160577   5.942   4.749   4.429  0.4511 -0.1668  0.9097
13054TIP3    H260578   5.969   4.606   4.388  0.5521 -0.4854  2.0476
13055TIP3   OH260579   4.625   2.935   0.124 -0.5737  0.3499 -0.1147
13055TIP3    H160580   4.691   2.872   0.096 -1.7784 -0.2566 -1.7415
13055TIP3    H260581   4.616   2.996   0.051 -1.5355  0.6476  0.2254
13056TIP3   OH260582   3.369   6.649  14.261  0.1684  0.1077 -0.4281
13056TIP3    H160583   3.462   6.633  14.243  0.1518 -0.8777  0.2422
13056TIP3    H260584   3.324   6.614  14.184  0.2544 -1.4052  0.1740
13057TIP3   OH260585   3.431   3.324   3.122 -0.0458  0.6956  0.2234
13057TIP3    H160586   3.454   3.398   3.066  0.2835  0.1946 -0.3086
13057TIP3    H260587   3.515   3.285   3.146 -0.2211  0.4455  0.4388
13058TIP3   OH260588   3.021   1.226  14.116 -0.2663 -0.1315 -0.1939
13058TIP3    H160589   3.112   1.205  14.093  0.3423  0.7999  1.1829
13058TIP3    H260590   2.974   1.222  14.033  0.6517 -2.3970 -0.7012
13059TIP3   OH260591   6.557   6.010  15.087 -0.0354 -0.3442  0.4768
13059TIP3    H160592   6.617   5.945  15.123 -2.3937 -2.5242  0.8488
13059TIP3    H260593   6.597   6.094  15.106  2.6153 -1.6329  1.0674
13060TIP3   OH260594   1.256   4.419  12.464 -0.1416 -0.0655 -0.0095
13060TIP3    H160595   1.336   4.456  12.427 -0.3899  0.5511  0.0597
13060TIP3    H260596   1.187   4.479  12.436 -0.7518 -1.2102 -1.0342
13061TIP3   OH260597   0.435   3.436   3.534  0.0697 -0.4012 -0.4043
13061TIP3    H160598   0.359   3.403   3.486  0.8692 -2.2384 -0.4987
13061TIP3    H260599   0.476   3.499   3.475 -0.3668 -0.7638 -1.0977
13062TIP3   OH260600   3.560   3.910  14.702  0.8305  0.5486  0.2380
13062TIP3    H160601   3.582   4.000  14.727 -0.0104  0.3469  1.8392
13062TIP3    H260602   3.472   3.915  14.664  1.6382  0.6754 -1.7598
13063TIP3   OH260603   0.138   3.859  17.111 -0.1050 -0.0866  0.2061
13063TIP3    H160604   0.089   3.786  17.149 -1.1259  0.3564 -0.2137
13063TIP3    H260605   0.164   3.912  17.186 -0.5060 -0.1912  0.4227
13064TIP3   OH260606   2.017   1.923  12.364 -0.2034  0.3118  0.0788
13064TIP3    H160607   2.025   1.829  12.379  0.7252  0.1353 -1.3337
13064TIP3    H260608   2.061   1.938  12.280 -3.7363  1.3924 -1.7664
13065TIP3   OH260609   0.345   3.600  12.813 -0.0802 -0.0859  0.3666
13065TIP3    H160610   0.395   3.679  12.836  0.6481 -0.9722  1.9472
13065TIP3    H260611   0.258   3.616  12.848 -0.2039  0.3842 -0.1315
13066TIP3   OH260612   2.416   2.778  15.015 -0.3724 -0.4256 -0.7913
13066TIP3    H160613   2.409   2.825  15.098 -1.8446 -2.1125  0.1110
13066TIP3    H260614   2.510   2.764  15.003 -0.1933 -1.4250  1.3808
13067TIP3   OH260615   4.319   4.216  11.799 -0.2745  0.2848 -0.6780
13067TIP3    H160616   4.289   4.185  11.714 -0.4377 -1.4515 -0.0214
13067TIP3    H260617   4.273   4.161  11.862  0.7081  0.7714  0.5032
13068TIP3   OH260618   4.514   0.316   3.046  0.0327  0.4118  0.3900
13068TIP3    H160619   4.591   0.305   3.102  0.7693  1.2418 -0.4102
13068TIP3    H260620   4.489   0.227   3.021  0.6909  0.1285  0.7182
13069TIP3   OH260621   2.554   2.449   0.911  0.4741  0.0014 -0.0301
13069TIP3    H160622   2.506   2.412   0.986 -0.1478  0.5524 -0.1535
13069TIP3    H260623   2.595   2.528   0.946 -1.7789  1.5949 -0.8405
13070TIP3   OH260624   1.757   0.335  11.627 -0.2192  0.0725 -0.1394
13070TIP3    H160625   1.850   0.315  11.617 -0.2899 -0.7144  0.6205
13070TIP3    H260626   1.746   0.420  11.585  0.4995 -0.5931 -1.7792
13071TIP3   OH260627   3.123   2.480   2.989  0.4341  0.2373  0.0286
13071TIP3    H160628   3.179   2.549   2.952 -0.4385  0.4906 -0.8724
13071TIP3    H260629   3.034   2.507   2.965  0.0306 -0.8346  0.2953
13072TIP3   OH260630   2.368   4.378  13.165 -0.5055  0.5051 -0.5358
13072TIP3    H160631   2.355   4.285  13.181  2.6227 -0.2413 -1.6924
13072TIP3    H260632   2.279   4.412  13.151 -1.9484 -1.8192  1.8662
13073TIP3   OH260633   5.757   5.914   5.278 -0.2615  0.4317  0.9073
13073TIP3    H160634   5.667   5.922   5.310 -0.2413  0.2284  1.0157
13073TIP3    H260635   5.783   6.004   5.256 -0.7393  0.4033  0.1866
13074TIP3   OH260636   1.205   2.422   6.150 -0.1399 -0.3326  0.4014
13074TIP3    H160637   1.144   2.358   6.113 -1.9021  2.2291 -1.4761
13074TIP3    H260638   1.185   2.422   6.244 -1.0811 -1.4752  0.2304
13075TIP3   OH260639   4.815   0.968  13.482 -0.9301 -0.5193 -0.0669
13075TIP3    H160640   4.804   0.924  13.398 -0.2036 -2.6162  0.8547
13075TIP3    H260641   4.901   0.940  13.513  0.8472  3.7050 -0.5257
13076TIP3   OH260642   4.398   3.235  12.998  0.1452 -0.4052 -0.0598
13076TIP3    H160643   4.310   3.202  12.985  0.6025 -1.8873  0.4106
13076TIP3    H260644   4.440   3.228  12.912 -0.2000  0.3532 -0.2959
13077TIP3   OH260645   2.543   3.083   0.685  0.0155 -0.0581  0.6627
13077TIP3    H160646   2.552   3.134   0.766  2.2878  0.1728  0.3389
13077TIP3    H260647   2.524   2.994   0.715 -0.1971  0.2301  1.4025
13078TIP3   OH260648   2.664   6.413   6.331 -0.0840 -0.1390 -0.3188
13078TIP3    H160649   2.752   6.440   6.305  0.6227 -0.3766  1.6246
13078TIP3    H260650   2.676   6.329   6.374 -1.5500 -1.0754 -1.6280
13079TIP3   OH260651   5.900   3.044  16.624 -0.7157  0.5124  0.3825
13079TIP3    H160652   5.899   2.967  16.567 -0.4373  1.3620 -0.7937
13079TIP3    H260653   5.820   3.092  16.601  0.2700  1.7521 -0.5688
13080TIP3   OH260654   5.999   6.178  16.634  0.0319 -0.3252  0.3837
13080TIP3    H160655   5.955   6.158  16.717 -0.3232 -0.5608  0.1426
13080TIP3    H260656   5.958   6.120  16.571 -0.7639  0.8908 -0.2630
13081TIP3   OH260657   2.621   5.364   0.915  0.1821 -0.5259  0.9314
13081TIP3    H160658   2.574   5.328   0.839  1.6074  0.4157 -0.4735
13081TIP3    H260659   2.575   5.445   0.935 -1.2801 -1.6159  2.2750
13082TIP3   OH260660   3.551   2.704   2.418 -0.1504 -0.2527  0.0241
13082TIP3    H160661   3.643   2.730   2.425 -0.1593 -0.4401  1.0829
13082TIP3    H260662   3.528   2.721   2.327  0.2421  2.1651  0.3044
13083TIP3   OH260663   0.353   1.506  14.434  0.3386  0.0887 -0.9763
13083TIP3    H160664   0.373   1.469  14.520 -0.8818 -1.7297 -1.4273
13083TIP3    H260665   0.413   1.461  14.374 -1.1350 -1.2062 -1.5262
13084TIP3   OH260666   1.850   4.297   2.272  0.5983  0.3087 -0.1331
13084TIP3    H160667   1.904   4.308   2.194 -0.1188 -1.3501 -0.9082
13084TIP3    H260668   1.835   4.203   2.278  0.7078  0.3641  2.0764
13085TIP3   OH260669   6.034   3.370  14.164  0.6440  0.1057 -0.1798
13085TIP3    H160670   6.061   3.309  14.095  1.4891  0.4231 -0.1391
13085TIP3    H260671   6.106   3.433  14.170 -0.6468  1.7306 -0.9360
13086TIP3   OH260672   0.931   1.217  17.338 -0.4043 -0.5640  0.0652
13086TIP3    H160673   0.910   1.181  17.424  1.4687 -0.1139  0.7710
13086TIP3    H260674   1.020   1.187  17.320 -0.3713  0.2045 -1.2522
13087TIP3   OH260675   5.099   1.513  12.602 -0.2857  0.3625 -0.0633
13087TIP3    H160676   5.018   1.492  12.554 -1.1882  0.9932  1.1246
13087TIP3    H260677   5.141   1.428  12.616 -0.3854  0.0897 -1.2739
13088TIP3   OH260678   1.942   2.531   1.906 -0.3530  0.0477 -0.2233
13088TIP3    H160679   1.871   2.471   1.883 -0.6182 -0.0498  0.8150
13088TIP3    H260680   1.945   2.593   1.833 -2.0414  0.5200  0.0579
13089TIP3   OH260681   2.385   1.152   5.570 -0.6191 -0.2540 -0.0299
13089TIP3    H160682   2.354   1.143   5.660 -2.0745 -0.4289 -0.5261
13089TIP3    H260683   2.438   1.233   5.571  1.2218 -1.3955  1.4266
13090TIP3   OH260684   5.653   1.410  14.314  0.4013 -0.1201 -0.4344
13090TIP3    H160685   5.706   1.333  14.296 -0.4063 -0.5500 -1.0436
13090TIP3    H260686   5.649   1.416  14.409  2.5309  0.6239 -0.3533
13091TIP3   OH260687   3.953   5.786  14.796  0.1734 -0.7560 -0.0301
13091TIP3    H160688   3.953   5.842  14.873 -1.0803 -0.6596 -0.0767
13091TIP3    H260689   4.042   5.752  14.790  0.5850  0.1484  0.7849
13092TIP3   OH260690   2.036   3.151  13.758 -0.2097 -0.4353 -0.1104
13092TIP3    H160691   1.962   3.196  13.717 -1.5285 -0.7151  1.8162
13092TIP3    H260692   2.061   3.207  13.832 -0.6322 -1.8714  1.1841
13093TIP3   OH260693   6.094   4.182  12.575  0.4660  0.1094 -0.4012
13093TIP3    H160694   6.001   4.175  12.556  0.2746  1.3333  0.0195
13093TIP3    H260695   6.099   4.230  12.658  1.4420 -0.8483  0.1263
13094TIP3   OH260696   0.763   0.878   2.560  0.4949 -0.0238  0.1884
13094TIP3    H160697   0.760   0.787   2.591  0.4096  0.5437  1.9434
13094TIP3    H260698   0.854   0.904   2.573  0.5030  0.1698 -0.2471
13095TIP3   OH260699   4.161   6.116  12.056  0.3747 -0.2813  0.0765
13095TIP3    H160700   4.247   6.111  12.015 -0.0052  3.4194 -1.5809
13095TIP3    H260701   4.104   6.149  11.986 -1.7690  0.0193  1.8678
13096TIP3   OH260702   3.790   0.404  15.390 -0.1697 -0.2312 -0.0040
13096TIP3    H160703   3.727   0.380  15.321 -0.2937  0.7667 -0.2461
13096TIP3    H260704   3.873   0.369  15.359  0.0924  1.5668 -1.4581
13097TIP3   OH260705   0.491   1.106   5.226  0.2112  0.4387 -0.2529
13097TIP3    H160706   0.500   1.042   5.297 -0.2251 -0.1511 -0.7119
13097TIP3    H260707   0.425   1.067   5.168  0.6498  0.8509 -1.0397
13098TIP3   OH260708   1.409   2.930  10.845  0.2134  0.1131  0.5196
13098TIP3    H160709   1.489   2.880  10.858 -0.1306 -0.0639  2.2035
13098TIP3    H260710   1.431   3.019  10.871  0.5991  0.7075 -1.6917
13099TIP3   OH260711   6.528   6.507   3.142 -0.4659  0.0763  0.0454
13099TIP3    H160712   6.568   6.440   3.086 -0.0018 -0.0316  0.4959
13099TIP3    H260713   6.508   6.461   3.223  1.0136  0.7477  0.8325
13100TIP3   OH260714   6.665   0.364  16.633 -0.2551 -0.0686  0.8149
13100TIP3    H160715   6.649   0.414  16.713  0.6669 -0.4534  1.2591
13100TIP3    H260716   6.748   0.318  16.650 -0.7072 -1.1673  0.1447
13101TIP3   OH260717   0.485   2.053  13.576  0.6297  0.5968  0.3597
13101TIP3    H160718   0.560   2.009  13.535 -0.5096  1.4837 -3.0181
13101TIP3    H260719   0.494   2.144  13.549 -1.6202  0.7247 -0.1504
13102TIP3   OH260720   4.561   5.916   4.645 -0.4119 -0.0944  0.6258
13102TIP3    H160721   4.514   5.997   4.626 -0.1455  0.2357  1.3198
13102TIP3    H260722   4.505   5.870   4.707  0.6234  0.8064  2.3297
13103TIP3   OH260723   3.569   4.747   3.995 -0.0555 -0.0373  0.6108
13103TIP3    H160724   3.508   4.673   4.001 -0.2747  0.0452 -0.4430
13103TIP3    H260725   3.513   4.824   3.987  0.1308 -0.0549 -1.4940
13104TIP3   OH260726   1.217   3.595  13.266 -0.2246 -0.1906 -0.4226
13104TIP3    H160727   1.292   3.579  13.209 -0.8339  1.2084 -1.7005
13104TIP3    H260728   1.224   3.688  13.288 -0.2987 -0.5830  1.3954
13105TIP3   OH260729   1.857   5.657   3.729  0.1702  0.2852  0.3629
13105TIP3    H160730   1.907   5.737   3.747  1.1233 -0.1765 -0.1905
13105TIP3    H260731   1.894   5.623   3.647 -0.0499 -0.8513  0.7165
13106TIP3   OH260732   0.578   5.388  15.653 -0.6670  0.4368 -0.1934
13106TIP3    H160733   0.543   5.431  15.730 -0.9596 -0.6943  0.3240
13106TIP3    H260734   0.588   5.459  15.588  1.3697  1.7545  1.4397
13107TIP3   OH260735   1.988   3.556  13.452  0.6326  0.3940 -0.3541
13107TIP3    H160736   1.969   3.594  13.366  1.8596 -0.6953 -1.1636
13107TIP3    H260737   2.080   3.529  13.445  0.4544 -0.6203  0.9518
13108TIP3   OH260738   1.858   6.361   2.577  0.5377  0.0827 -0.8219
13108TIP3    H160739   1.920   6.315   2.520  0.4628 -2.2394  0.8037
13108TIP3    H260740   1.847   6.302   2.652 -0.6279  2.2416  0.8059
13109TIP3   OH260741   3.474   5.210   1.399  0.2195 -0.5085  0.1127
13109TIP3    H160742   3.443   5.188   1.311 -0.1140  1.6786 -0.3731
13109TIP3    H260743   3.409   5.172   1.458  0.3596 -1.8560 -0.5686
13110TIP3   OH260744   3.340   3.705   3.689 -0.5078  0.4855 -1.1815
13110TIP3    H160745   3.359   3.774   3.753 -0.8673 -0.6034  0.1410
13110TIP3    H260746   3.403   3.720   3.618  1.6510  0.2397  0.5782
13111TIP3   OH260747   3.022   2.410  13.833  0.0422 -0.3328 -0.0706
13111TIP3    H160748   2.936   2.452  13.843 -0.8192 -1.9734 -0.0972
13111TIP3    H260749   3.014   2.361  13.751  0.8393 -0.8878  0.1746
13112TIP3   OH260750   1.270   0.971   0.396  0.1590 -0.1437 -0.1181
13112TIP3    H160751   1.288   1.021   0.317 -0.2909 -0.4631 -0.4296
13112TIP3    H260752   1.176   0.981   0.410  0.3070  0.3148  0.6599
13113TIP3   OH260753   0.210   3.878  13.493  0.8275  0.4257 -0.4989
13113TIP3    H160754   0.251   3.838  13.571  0.2227  1.2920  0.2736
13113TIP3    H260755   0.284   3.898  13.436  1.2236 -0.9144 -0.4906
13114TIP3   OH260756   0.741   2.124  12.309 -0.5704  0.1155  0.7174
13114TIP3    H160757   0.767   2.184  12.380 -0.4182 -0.1081  0.8520
13114TIP3    H260758   0.814   2.126  12.248  0.1044 -1.0776  1.4529
13115TIP3   OH260759   6.582   5.528   0.251 -0.4363  0.4088  0.1503
13115TIP3    H160760   6.590   5.615   0.210 -1.9679  0.8461  0.7050
13115TIP3    H260761   6.527   5.478   0.190  0.7979 -0.3559 -0.3856
13116TIP3   OH260762   4.145   3.300   4.664 -0.4878  0.1869 -0.2827
13116TIP3    H160763   4.228   3.251   4.661  0.3987  1.6289 -2.4688
13116TIP3    H260764   4.167   3.382   4.708 -0.3434  1.1079 -1.9527
13117TIP3   OH260765   5.354   0.219   4.457 -0.4697  0.1613 -0.2299
13117TIP3    H160766   5.336   0.234   4.364  1.2167  1.3875 -0.3909
13117TIP3    H260767   5.268   0.196   4.494 -1.1491 -0.4737 -2.0913
13118TIP3   OH260768   4.385   3.707   4.345  0.1090  0.1331 -0.2431
13118TIP3    H160769   4.329   3.724   4.269  0.4160  2.4564 -0.0372
13118TIP3    H260770   4.433   3.628   4.323  0.6384  1.0651 -2.7665
13119TIP3   OH260771   0.760   3.066  11.559 -0.1562  0.2749  0.1099
13119TIP3    H160772   0.796   3.119  11.630 -1.2096  1.8907 -0.4919
13119TIP3    H260773   0.779   3.116  11.480  0.3662 -1.1435 -0.6798
13120TIP3   OH260774   4.411   3.160  15.080 -0.0025  0.8972 -0.1989
13120TIP3    H160775   4.492   3.112  15.064 -1.2538 -1.9189  1.2018
13120TIP3    H260776   4.368   3.165  14.994  0.1083 -0.6717 -0.3688
13121TIP3   OH260777   3.016   3.980   6.414 -0.1137 -0.1375  0.4162
13121TIP3    H160778   2.945   3.980   6.349 -0.4820 -0.0806  0.8159
13121TIP3    H260779   2.990   3.913   6.477  0.1349 -0.0313  0.6314
13122TIP3   OH260780   5.384   2.842   4.038 -0.7733  0.1343 -0.7766
13122TIP3    H160781   5.420   2.796   4.114 -0.1966 -1.0845 -1.7493
13122TIP3    H260782   5.448   2.828   3.968 -2.4255 -0.8955 -2.1753
13123TIP3   OH260783   2.990   2.529   5.178 -0.0421 -0.5918 -0.0579
13123TIP3    H160784   2.926   2.500   5.243  2.1701  1.2315  3.2303
13123TIP3    H260785   2.971   2.622   5.165 -0.0189 -0.7754 -1.5329
13124TIP3   OH260786   3.300   4.650  14.071 -0.0037  0.1452 -0.7131
13124TIP3    H160787   3.254   4.566  14.065  0.1355 -0.0854  1.0290
13124TIP3    H260788   3.265   4.691  14.150  0.1737  1.5919 -1.3606
13125TIP3   OH260789   1.906   6.292  13.478  0.2490 -0.5590 -0.4057
13125TIP3    H160790   1.960   6.327  13.407  1.5387 -1.0998  0.2796
13125TIP3    H260791   1.903   6.363  13.543  1.6711 -1.1495  0.3484
13126TIP3   OH260792   0.757   3.504  12.126  0.0760  0.1733 -0.4064
13126TIP3    H160793   0.819   3.435  12.148 -2.7878 -2.0856  1.4350
13126TIP3    H260794   0.762   3.565  12.199 -0.9777 -0.9438  0.6552
13127TIP3   OH260795   1.190   2.818   4.086 -1.1405 -0.2731 -0.1649
13127TIP3    H160796   1.284   2.830   4.069 -1.1569 -1.5182 -1.2603
13127TIP3    H260797   1.188   2.778   4.174 -0.7298  0.8997  0.3962
13128TIP3   OH260798   6.597   0.713   6.744 -0.0591  0.0644 -0.3193
13128TIP3    H160799   6.631   0.755   6.823 -0.4540 -2.2312  1.1626
13128TIP3    H260800   6.675   0.690   6.693  0.1938  1.6680 -0.6936
13129TIP3   OH260801   0.061   1.272  12.532  0.0068  0.1155 -0.3372
13129TIP3    H160802   0.140   1.294  12.482  0.0470  1.4295  0.2428
13129TIP3    H260803   0.026   1.357  12.559 -0.4640 -0.5175  1.1491
13130TIP3   OH260804   1.185   0.806  10.949  0.3258  0.0074  0.4961
13130TIP3    H160805   1.233   0.745  10.893  2.8110  0.1093  2.3301
13130TIP3    H260806   1.150   0.752  11.019 -0.9448  0.1717  0.0094
13131TIP3   OH260807   6.676   3.691  16.294  0.6222  0.0800  0.0864
13131TIP3    H160808   6.652   3.700  16.202  2.2636  0.3173 -0.3445
13131TIP3    H260809   6.702   3.599  16.304 -2.0655 -0.6701  0.9874
13132TIP3   OH260810   4.319   4.655  12.657  1.2958 -0.7410 -0.2372
13132TIP3    H160811   4.378   4.610  12.717  0.2544  0.8449  2.1202
13132TIP3    H260812   4.231   4.640  12.693  0.7705  1.6286 -0.3781
13133TIP3   OH260813   2.440   0.553   3.369 -0.3040  0.3042 -0.1253
13133TIP3    H160814   2.417   0.532   3.460 -0.2075 -0.0850 -0.1885
13133TIP3    H260815   2.421   0.646   3.361 -2.6331 -0.1406 -0.4037
13134TIP3   OH260816   5.022   0.273   6.455 -0.1490 -0.0476  0.3193
13134TIP3    H160817   4.933   0.281   6.420  0.5000  0.9397 -1.2014
13134TIP3    H260818   5.042   0.179   6.449  0.2558  0.1570 -2.9232
13135TIP3   OH260819   4.279   1.383  16.044 -0.5225 -0.2899  0.0417
13135TIP3    H160820   4.354   1.443  16.041 -1.3762  0.8080 -0.3308
13135TIP3    H260821   4.274   1.346  15.956  0.4273 -1.4705  0.4681
13136TIP3   OH260822   0.844   2.529  10.567 -0.1001  0.5239  0.0339
13136TIP3    H160823   0.838   2.433  10.571 -2.8103  0.4377 -2.6670
13136TIP3    H260824   0.927   2.546  10.523 -0.8259 -0.7702 -1.9530
13137TIP3   OH260825   6.635   1.226   0.699 -0.2517  0.0135  0.4200
13137TIP3    H160826   6.724   1.260   0.705 -0.9401  2.1248 -0.6151
13137TIP3    H260827   6.580   1.293   0.740 -1.6363  0.0223 -1.3444
13138TIP3   OH260828   3.426   1.415  13.459 -0.1401  0.3024 -0.3856
13138TIP3    H160829   3.333   1.436  13.468  0.1606  1.2211  0.9491
13138TIP3    H260830   3.463   1.490  13.412 -0.1848 -0.4293 -1.6275
13139TIP3   OH260831   1.614   0.905   1.685  0.5181 -0.2769  0.1380
13139TIP3    H160832   1.664   0.924   1.764  0.4569 -0.4430  0.2188
13139TIP3    H260833   1.677   0.912   1.614  0.7553 -0.8987  0.2801
13140TIP3   OH260834   5.482   4.333  16.848  0.3993 -0.3839 -0.2612
13140TIP3    H160835   5.574   4.311  16.836  0.4570 -0.8827  0.9396
13140TIP3    H260836   5.483   4.409  16.906  0.0892  0.7726 -1.7007
13141TIP3   OH260837   0.254   1.468  15.340 -0.1495 -0.5952  0.3329
13141TIP3    H160838   0.248   1.423  15.256 -0.1296  0.8759 -0.4819
13141TIP3    H260839   0.226   1.557  15.322 -1.7908 -0.6592  2.2546
13142TIP3   OH260840   0.169   3.303  17.374 -0.2467 -0.4452  0.0165
13142TIP3    H160841   0.246   3.252  17.348  0.5409  1.1032 -0.7727
13142TIP3    H260842   0.195   3.394  17.364 -2.4676  0.1321 -1.1971
13143TIP3   OH260843   4.839   6.404   2.087 -0.1710 -0.4958  0.4245
13143TIP3    H160844   4.920   6.371   2.047 -0.8649  0.1138 -1.6121
13143TIP3    H260845   4.869   6.464   2.155  1.1928  1.0867 -1.4453
13144TIP3   OH260846   5.690   0.899   5.344 -0.2170 -0.3209  0.1476
13144TIP3    H160847   5.660   0.934   5.428  0.2002  1.2345 -0.3120
13144TIP3    H260848   5.632   0.939   5.280 -0.3002 -1.2156 -0.3534
13145TIP3   OH260849   0.555   5.122  14.508  0.1041 -0.8543  0.5279
13145TIP3    H160850   0.573   5.139  14.600  2.3539  0.1763 -0.0371
13145TIP3    H260851   0.484   5.184  14.486 -0.4881 -1.1473  1.5471
13146TIP3   OH260852   5.022   2.023   0.610  0.5586  0.3661  0.6570
13146TIP3    H160853   5.002   2.098   0.554  3.8641  0.8011 -0.1079
13146TIP3    H260854   4.962   2.032   0.684 -1.3422  1.8957 -0.9444
13147TIP3   OH260855   2.128   2.094  13.586 -0.2531 -0.5004  0.5282
13147TIP3    H160856   2.100   2.128  13.671  0.3061  0.7596  0.2349
13147TIP3    H260857   2.222   2.078  13.595 -0.0162  0.4226 -0.0650
13148TIP3   OH260858   2.851   3.307  13.756  0.0240  0.3715 -0.0048
13148TIP3    H160859   2.906   3.383  13.735 -0.6981  1.1193  0.7254
13148TIP3    H260860   2.909   3.247  13.802  0.5184  0.6309 -0.2856
13149TIP3   OH260861   4.152   6.308  12.345 -0.2308  0.0292  0.0856
13149TIP3    H160862   4.222   6.262  12.392 -0.5963 -1.6841 -0.9818
13149TIP3    H260863   4.137   6.387  12.397  1.0510 -0.5962  1.4880
13150TIP3   OH260864   0.592   6.604   3.128  0.0969  0.0396 -0.2137
13150TIP3    H160865   0.671   6.629   3.177  0.3248 -0.9064 -0.0769
13150TIP3    H260866   0.524   6.593   3.194 -0.1726  0.9073 -0.3371
13151TIP3   OH260867   4.443   2.769   5.200  0.2869  0.3648  0.1439
13151TIP3    H160868   4.495   2.777   5.121  0.2095 -0.4303  0.0006
13151TIP3    H260869   4.354   2.751   5.169 -0.2532  2.3877  0.3622
13152TIP3   OH260870   2.302   1.351   4.031  0.0753  0.0807 -0.1540
13152TIP3    H160871   2.265   1.386   3.949 -0.8072 -1.9322 -0.6965
13152TIP3    H260872   2.396   1.347   4.015  0.1970  1.9312 -0.1255
13153TIP3   OH260873   3.124   1.120   4.914  0.0306 -0.5592  0.0655
13153TIP3    H160874   3.093   1.112   4.824 -0.9891  0.1807  0.3396
13153TIP3    H260875   3.147   1.031   4.940  1.5522 -0.6303 -1.3318
13154TIP3   OH260876   2.104   5.627  15.707  0.0607  0.5169 -0.9408
13154TIP3    H160877   2.199   5.626  15.695 -0.0963  0.2153 -2.3598
13154TIP3    H260878   2.091   5.622  15.802  1.4375 -0.4242 -0.7796
13155TIP3   OH260879   3.295   6.602   5.313 -0.2271  0.2925 -0.1462
13155TIP3    H160880   3.269   6.605   5.221  0.2731  0.2883 -0.2938
13155TIP3    H260881   3.229   6.654   5.359 -2.5691 -2.5976  0.0308
13156TIP3   OH260882   6.054   4.536  14.256  0.3478 -0.2259 -0.1630
13156TIP3    H160883   6.145   4.543  14.228 -0.0108  0.9317 -1.1727
13156TIP3    H260884   6.016   4.470  14.198 -0.3275  1.9815 -2.4251
13157TIP3   OH260885   0.277   0.941  12.431  0.6308  0.6149  0.5778
13157TIP3    H160886   0.208   0.966  12.369  0.9788 -0.4363 -0.2832
13157TIP3    H260887   0.231   0.891  12.499  0.6532 -1.3461 -0.7444
13158TIP3   OH260888   2.868   0.756  14.689 -0.4358 -0.4787 -0.4118
13158TIP3    H160889   2.820   0.819  14.634 -1.1131  0.3255  1.0287
13158TIP3    H260890   2.943   0.806  14.722 -0.6551 -0.5951  0.2793
13159TIP3   OH260891   5.607   1.028  16.297  0.3153 -0.2303  0.0799
13159TIP3    H160892   5.595   1.004  16.206  1.5978 -0.6245 -0.0076
13159TIP3    H260893   5.586   1.121  16.301  0.6039 -0.1266 -0.6957
13160TIP3   OH260894   1.297   1.747   5.858 -0.1733  0.2402 -0.2056
13160TIP3    H160895   1.325   1.718   5.945 -2.2212 -0.4134  0.2836
13160TIP3    H260896   1.349   1.694   5.798 -2.4115 -3.2620  0.6682
13161TIP3   OH260897   2.971   4.997   4.556 -0.1143 -0.3929 -0.0201
13161TIP3    H160898   2.984   4.948   4.637 -3.3608 -2.0158 -0.3326
13161TIP3    H260899   2.970   4.930   4.488  0.1125  0.6869 -1.1127
13162TIP3   OH260900   0.203   3.254   3.110 -0.2483 -0.2776  0.0822
13162TIP3    H160901   0.147   3.304   3.051 -0.3386 -1.6779 -1.0808
13162TIP3    H260902   0.292   3.282   3.087 -0.3960  1.5884  1.5951
13163TIP3   OH260903   1.022   4.826  10.459 -0.0356  0.3269  0.3036
13163TIP3    H160904   0.930   4.851  10.451 -0.8879 -2.2978  0.8816
13163TIP3    H260905   1.033   4.753  10.399  1.0392 -0.8413  1.8201
13164TIP3   OH260906   3.282   1.570   1.170  0.3561  0.1131  0.1605
13164TIP3    H160907   3.321   1.641   1.119 -3.6438  1.7027 -1.0903
13164TIP3    H260908   3.240   1.614   1.244 -1.5545 -0.9671 -0.2162
13165TIP3   OH260909   1.852   6.108   4.349 -0.3908  0.4651 -0.4699
13165TIP3    H160910   1.804   6.050   4.409 -0.2329 -0.6282 -1.3810
13165TIP3    H260911   1.800   6.189   4.348 -0.4935  0.4431  0.9852
13166TIP3   OH260912   2.017   6.158  14.021 -0.3238  0.1020 -0.3473
13166TIP3    H160913   1.928   6.193  14.027 -0.8959 -1.3152 -0.0072
13166TIP3    H260914   2.014   6.076  14.071  0.9339 -0.4209 -1.0625
13167TIP3   OH260915   2.540   0.807  11.271  0.0813  1.0135 -0.3775
13167TIP3    H160916   2.539   0.808  11.367 -0.3806  2.4313 -0.3710
13167TIP3    H260917   2.467   0.749  11.247 -0.0268  0.9401  0.1208
13168TIP3   OH260918   0.156   1.042  12.149  0.0401  0.1249 -0.1242
13168TIP3    H160919   0.221   0.972  12.139 -1.0292 -0.8521 -0.5185
13168TIP3    H260920   0.133   1.067  12.059 -0.9625 -0.3732 -0.0278
13169TIP3   OH260921   1.469   5.512  10.912 -0.0655 -0.3950  0.5044
13169TIP3    H160922   1.505   5.426  10.892 -0.1616  0.4661 -5.0383
13169TIP3    H260923   1.543   5.563  10.945  1.2993 -1.3305 -1.0198
13170TIP3   OH260924   2.636   6.455  16.659 -0.2109 -0.5840  0.5098
13170TIP3    H160925   2.648   6.550  16.657 -1.5066 -0.3340 -2.9352
13170TIP3    H260926   2.723   6.420  16.641 -0.3403  0.2123 -2.0618
13171TIP3   OH260927   4.588   5.053  15.605  0.0294 -0.0674  0.1268
13171TIP3    H160928   4.623   5.026  15.520 -0.2973  0.6561 -0.2496
13171TIP3    H260929   4.508   5.001  15.616  0.6572 -0.9605  0.5035
13172TIP3   OH260930   6.246   0.708   3.814  0.2674 -0.0415  0.6278
13172TIP3    H160931   6.322   0.655   3.788  0.2017 -0.6734  1.6530
13172TIP3    H260932   6.284   0.791   3.844  0.7481 -0.9536  2.7230
13173TIP3   OH260933   0.141   0.870  14.204 -0.0705 -0.3184 -0.3853
13173TIP3    H160934   0.149   0.796  14.144  1.4775 -1.4773  1.1372
13173TIP3    H260935   0.178   0.944  14.157 -0.5284 -0.7687 -1.4897
13174TIP3   OH260936   3.536   5.313  13.195  0.1175  0.7918  0.6100
13174TIP3    H160937   3.487   5.393  13.174 -0.1909  0.9011  1.6752
13174TIP3    H260938   3.522   5.256  13.120 -0.1899  1.4951  0.1208
13175TIP3   OH260939   5.279   5.937   1.354  0.6893 -0.6431  0.5821
13175TIP3    H160940   5.295   5.955   1.446 -1.5080  1.3264  0.6626
13175TIP3    H260941   5.201   5.881   1.353 -1.0377  1.6168 -0.0413
13176TIP3   OH260942   3.378   2.120   4.577 -0.1578  0.3517 -0.3701
13176TIP3    H160943   3.403   2.212   4.569  0.1141  0.2692 -0.4567
13176TIP3    H260944   3.397   2.097   4.668  0.8019  0.0746 -0.6353
13177TIP3   OH260945   4.162   1.620  16.114  0.3856 -0.2031 -0.3473
13177TIP3    H160946   4.189   1.529  16.099 -0.1801 -0.9383  2.5057
13177TIP3    H260947   4.095   1.636  16.048 -0.6708 -2.4606  0.0766
13178TIP3   OH260948   3.859   6.168   5.854  0.4948 -0.4232  0.0141
13178TIP3    H160949   3.909   6.225   5.913  1.0217  1.6914 -2.2838
13178TIP3    H260950   3.923   6.104   5.822  0.7661 -0.1579  0.0264
13179TIP3   OH260951   2.424   4.490  17.210  0.3171 -0.1615  0.1273
13179TIP3    H160952   2.359   4.560  17.205  0.0295 -0.1694  2.4725
13179TIP3    H260953   2.374   4.409  17.206  0.4074 -0.2093 -0.0880
13180TIP3   OH260954   1.155   2.572   5.912  0.1041 -0.4550  0.1881
13180TIP3    H160955   1.135   2.533   5.997  3.4673  0.0166  1.3412
13180TIP3    H260956   1.144   2.500   5.850  1.1126 -1.8828  1.5701
13181TIP3   OH260957   6.135   0.539   6.000  0.1447 -0.0960 -0.4142
13181TIP3    H160958   6.079   0.617   5.999  1.5193  0.9397  0.2997
13181TIP3    H260959   6.191   0.550   6.077  1.4185 -1.0292 -1.1557
13182TIP3   OH260960   3.914   2.777  16.578 -0.3909 -0.0573  0.0180
13182TIP3    H160961   3.852   2.735  16.518 -1.2833 -2.9934  2.7763
13182TIP3    H260962   3.860   2.827  16.638  0.1319 -0.3235  0.7261
13183TIP3   OH260963   2.284   4.349   0.896 -0.2558  0.4595  0.0851
13183TIP3    H160964   2.329   4.283   0.843 -2.2900 -0.9955  0.0500
13183TIP3    H260965   2.262   4.419   0.835  2.3064  1.4698  0.2055
13184TIP3   OH260966   2.737   2.388   6.578  0.1943 -0.9725  0.0858
13184TIP3    H160967   2.829   2.392   6.551 -0.2641  0.1141 -1.5157
13184TIP3    H260968   2.689   2.377   6.496 -1.2183  0.6647  0.6295
13185TIP3   OH260969   4.876   2.833   0.846 -0.0351 -0.2430  0.1016
13185TIP3    H160970   4.894   2.747   0.884 -1.7525 -0.1511  1.2164
13185TIP3    H260971   4.930   2.894   0.896 -0.9800 -0.3415  1.2852
13186TIP3   OH260972   5.095   4.982   3.712  0.1037  0.5043 -0.1353
13186TIP3    H160973   5.045   5.060   3.686  0.0158  0.8198  0.9008
13186TIP3    H260974   5.158   5.016   3.776 -0.9601 -0.4983  1.5102
13187TIP3   OH260975   5.333   2.628   3.720  0.2402 -0.4242 -0.1234
13187TIP3    H160976   5.315   2.589   3.635  1.1741  1.8147 -1.4204
13187TIP3    H260977   5.420   2.596   3.744 -0.0328 -1.0701  0.0304
13188TIP3   OH260978   6.421   4.184  17.133  0.2947  0.0100 -0.4686
13188TIP3    H160979   6.503   4.147  17.165  0.1806  0.4866  0.3931
13188TIP3    H260980   6.389   4.120  17.069  1.0546 -0.4404 -0.4046
13189TIP3   OH260981   5.522   5.491   5.967 -0.4445 -0.7075 -0.4656
13189TIP3    H160982   5.461   5.508   5.895 -0.6800 -0.0937 -0.1296
13189TIP3    H260983   5.571   5.573   5.977 -0.6967 -0.6439  0.3362
13190TIP3   OH260984   5.947   2.397   3.292  0.0201  0.1548  0.4759
13190TIP3    H160985   5.858   2.419   3.319  0.0937 -1.5421  2.3511
13190TIP3    H260986   5.943   2.396   3.196 -1.5005  1.8367  0.4733
13191TIP3   OH260987   4.735   5.904   0.884  0.1768  0.2842  0.0092
13191TIP3    H160988   4.787   5.909   0.965 -2.3048  0.3350  1.7137
13191TIP3    H260989   4.680   5.826   0.896  1.6006 -1.3288 -2.9039
13192TIP3   OH260990   0.905   6.236  11.464  0.0140  0.5131  0.5350
13192TIP3    H160991   0.957   6.296  11.410  0.7954 -1.8870 -1.5717
13192TIP3    H260992   0.814   6.260  11.445  0.2888  0.3402 -1.1798
13193TIP3   OH260993   1.769   3.586  15.413  0.7385 -0.0692 -0.3152
13193TIP3    H160994   1.816   3.524  15.469 -1.6142 -0.0444  1.8272
13193TIP3    H260995   1.769   3.544  15.327  0.6074 -2.3061  0.7042
13194TIP3   OH260996   4.974   3.703  12.473  0.5637 -0.4253 -0.1794
13194TIP3    H160997   5.038   3.655  12.421  2.5368  1.5731  0.2386
13194TIP3    H260998   4.901   3.641  12.485  1.7470 -2.2902 -1.9078
13195TIP3   OH260999   4.513   4.302   0.191 -0.8383  0.5798 -0.2501
13195TIP3    H161000   4.601   4.270   0.209  0.0691  2.6550 -0.6790
13195TIP3    H261001   4.480   4.244   0.121  0.7240  0.5942 -1.0420
13196TIP3   OH261002   6.268   3.435   0.174  0.3564  0.3925  0.4146
13196TIP3    H161003   6.212   3.455   0.099  0.9821 -0.5564 -0.3153
13196TIP3    H261004   6.219   3.369   0.224 -1.1452  2.6664  2.1669
13197TIP3   OH261005   6.667   3.695  16.919 -0.1578  0.5432  0.0267
13197TIP3    H161006   6.686   3.788  16.919  0.8424  0.3759  1.2885
13197TIP3    H261007   6.734   3.656  16.864 -0.6048  0.5601 -0.5415
13198TIP3   OH261008   3.567   0.022   3.190 -0.3643 -0.0006  0.0741
13198TIP3    H161009   3.657  -0.010   3.192 -1.1532 -2.6785 -1.4658
13198TIP3    H261010   3.524  -0.025   3.261 -0.5351  1.5327  1.0306
13199TIP3   OH261011   2.759   0.349   3.677  0.3057  0.2255  0.2510
13199TIP3    H161012   2.681   0.294   3.670  0.1502  0.6444 -2.0346
13199TIP3    H261013   2.734   0.417   3.740 -1.2205  0.3698 -0.4548
13200TIP3   OH261014   2.563   0.286   2.059 -0.3005 -0.1375  0.1612
13200TIP3    H161015   2.654   0.275   2.089 -0.4672  1.4021  1.3778
13200TIP3    H261016   2.511   0.242   2.126 -0.5694  1.5665  1.1336
13201TIP3   OH261017   4.871   4.678   6.732 -0.0809  0.2478  0.0526
13201TIP3    H161018   4.795   4.632   6.694  0.2784  0.0581 -0.4537
13201TIP3    H261019   4.909   4.615   6.792 -0.1970  0.2656  0.1462
13202TIP3   OH261020   1.939   3.388   1.344  0.0700 -0.2314  0.2822
13202TIP3    H161021   1.866   3.447   1.324 -2.6088 -2.8347  1.6875
13202TIP3    H261022   1.921   3.309   1.294  2.1969 -0.8405  0.3792
13203TIP3   OH261023   1.294   4.896  12.255  0.1425  0.1503  0.2571
13203TIP3    H161024   1.210   4.906  12.211  0.7680  0.2207 -0.9665
13203TIP3    H261025   1.338   4.980  12.241  2.2906 -1.3125 -3.2858
13204TIP3   OH261026   6.317   1.256  12.852 -0.0765  0.5291 -0.5946
13204TIP3    H161027   6.257   1.201  12.903 -1.4369  1.2874 -1.2989
13204TIP3    H261028   6.401   1.249  12.898 -0.5620 -0.9637  0.1543
13205TIP3   OH261029   0.854   4.300   4.500 -0.3877 -0.3285 -0.1186
13205TIP3    H161030   0.786   4.299   4.568  1.3569 -0.8451  1.7290
13205TIP3    H261031   0.857   4.391   4.470 -1.0837 -0.0450  0.6493
13206TIP3   OH261032   4.746   6.169   1.148 -0.0539 -0.0391  0.2055
13206TIP3    H161033   4.790   6.254   1.145  0.6165 -0.4010 -0.8469
13206TIP3    H261034   4.658   6.186   1.115  0.8812 -0.1769 -2.6115
13207TIP3   OH261035   6.454   4.102  15.973  0.4886  0.5508 -0.2712
13207TIP3    H161036   6.468   4.197  15.970 -0.0773  0.6491  0.0653
13207TIP3    H261037   6.378   4.087  15.918 -0.1934  0.4566  0.6610
13208TIP3   OH261038   4.007   2.154  17.022  0.7082 -0.3881 -0.1016
13208TIP3    H161039   4.021   2.113  16.936 -3.1557  0.7871 -1.5153
13208TIP3    H261040   3.977   2.083  17.078 -2.3609 -0.3615 -1.4979
13209TIP3   OH261041   1.679   4.340   4.107  0.3557 -0.2251  0.3938
13209TIP3    H161042   1.765   4.366   4.074 -0.0961  0.5451 -0.2472
13209TIP3    H261043   1.665   4.253   4.072 -0.3235  0.7614 -1.9896
13210TIP3   OH261044   1.868   2.224   5.185  0.0076  0.0103  0.5822
13210TIP3    H161045   1.903   2.135   5.184 -0.2687 -0.1031  0.9173
13210TIP3    H261046   1.944   2.280   5.173 -0.0271 -0.3259 -1.7096
13211TIP3   OH261047   4.205   4.346   0.098  0.1405  0.1539 -0.2144
13211TIP3    H161048   4.112   4.322   0.095 -0.1475  1.3033 -0.8539
13211TIP3    H261049   4.244   4.280   0.156 -0.9923 -0.5864 -0.2490
13212TIP3   OH261050   2.848   2.952  15.691  0.5381  0.4989  0.1049
13212TIP3    H161051   2.836   2.956  15.786 -0.6692  0.0828 -0.0092
13212TIP3    H261052   2.845   3.043  15.663 -0.3261  0.5616  0.3522
13213TIP3   OH261053   0.851   1.919  12.604  0.1801 -0.7212  0.7370
13213TIP3    H161054   0.847   1.883  12.693  0.4227 -0.5484  0.8159
13213TIP3    H261055   0.878   2.010  12.616 -2.4264  0.1508  0.7182
13214TIP3   OH261056   5.093   3.500  12.676  0.2404  0.4747  0.1007
13214TIP3    H161057   5.048   3.424  12.638  1.1093 -0.1511  0.2959
13214TIP3    H261058   5.046   3.575  12.640  0.8406 -0.0924 -2.0145
13215TIP3   OH261059   3.960   3.739  16.735 -0.5552 -0.2408  0.6095
13215TIP3    H161060   3.981   3.830  16.756  1.3588 -1.0111  2.4610
13215TIP3    H261061   3.970   3.734  16.640 -2.5749  1.8466  0.1861
13216TIP3   OH261062   6.529   4.876   0.059 -0.8064 -0.5985  0.2965
13216TIP3    H161063   6.491   4.841   0.140 -1.5251 -1.9095 -0.5725
13216TIP3    H261064   6.622   4.852   0.065 -0.3417  1.3441  1.7586
13217TIP3   OH261065   2.308   1.696  12.093  0.0310 -0.2239 -0.6200
13217TIP3    H161066   2.221   1.721  12.063 -0.3654 -0.0426  0.6214
13217TIP3    H261067   2.344   1.774  12.135  1.1422 -0.0493 -1.8289
13218TIP3   OH261068   6.645   2.271  14.947 -0.6206  0.1939  0.0258
13218TIP3    H161069   6.677   2.237  15.030  0.0532  0.5105 -0.0974
13218TIP3    H261070   6.674   2.362  14.944  1.9677 -0.5762 -1.8176
13219TIP3   OH261071   4.950   5.679  12.490  0.0923  0.5189 -0.0538
13219TIP3    H161072   4.995   5.763  12.505 -1.4244  1.4532 -0.5817
13219TIP3    H261073   4.917   5.685  12.401  1.6634 -1.5024 -0.8416
13220TIP3   OH261074   2.120   5.215   4.291  0.0111 -0.3017  0.3850
13220TIP3    H161075   2.126   5.258   4.376 -0.3331 -0.2998  0.4088
13220TIP3    H261076   2.045   5.256   4.249  0.2022 -0.2772  0.0647
13221TIP3   OH261077   0.618   1.345  11.248  0.6795 -0.4391 -0.7090
13221TIP3    H161078   0.614   1.420  11.189 -1.4833 -0.0876 -0.2010
13221TIP3    H261079   0.569   1.276  11.203 -0.2890 -0.4288  0.2785
13222TIP3   OH261080   0.081   6.090   3.830 -0.2419 -0.1701 -0.2046
13222TIP3    H161081   0.122   6.150   3.892 -1.0140  1.2207 -0.9825
13222TIP3    H261082   0.145   6.020   3.818  2.2709  2.1633 -1.8096
13223TIP3   OH261083   5.383   4.285  14.841  0.2655  0.8151  0.3972
13223TIP3    H161084   5.408   4.364  14.888 -0.5238  0.3393  1.6519
13223TIP3    H261085   5.385   4.216  14.907 -0.9302  0.1380 -0.2354
13224TIP3   OH261086   1.460   1.082  17.159 -0.6048  0.2266  0.2064
13224TIP3    H161087   1.524   1.153  17.163  0.1282 -0.4213  0.1075
13224TIP3    H261088   1.375   1.127  17.164 -0.1503  1.0689  0.6395
13225TIP3   OH261089   6.443   5.166   0.921 -0.1206 -0.4654 -0.6203
13225TIP3    H161090   6.387   5.099   0.881 -0.7158 -0.2561 -0.1572
13225TIP3    H261091   6.408   5.249   0.887 -1.0592 -0.2415  0.8124
13226TIP3   OH261092   4.101   3.421   0.553  0.0867 -0.1978 -0.5177
13226TIP3    H161093   4.099   3.474   0.473 -1.1527  0.5255 -0.0357
13226TIP3    H261094   4.038   3.351   0.538  0.1231 -0.2740 -0.3168
13227TIP3   OH261095   4.654   1.027  11.773 -0.4297 -0.0239 -0.2037
13227TIP3    H161096   4.582   0.983  11.727 -1.7995  2.8568 -1.0125
13227TIP3    H261097   4.625   1.031  11.864 -1.2888  1.0238 -0.5052
13228TIP3   OH261098   1.764   0.818   0.273 -0.0990 -0.4786  0.2800
13228TIP3    H161099   1.732   0.787   0.188 -0.9436 -0.0626  0.4369
13228TIP3    H261100   1.847   0.773   0.285  0.6923  0.4492 -1.3665
13229TIP3   OH261101   0.183   2.002  16.793  0.0508 -0.1022 -0.3906
13229TIP3    H161102   0.266   1.965  16.824  0.0769 -0.6866 -1.1068
13229TIP3    H261103   0.205   2.042  16.709 -0.4654 -0.6751 -0.8144
13230TIP3   OH261104   2.606   6.626  16.973  0.8052 -0.2926  0.1399
13230TIP3    H161105   2.621   6.708  16.927 -0.5339  0.3311  0.7674
13230TIP3    H261106   2.512   6.611  16.964  0.5944 -0.4423  2.1827
13231TIP3   OH261107   6.730   5.514   0.959  0.2503  0.2765  0.1656
13231TIP3    H161108   6.678   5.580   1.005  0.0370 -0.2118  0.6387
13231TIP3    H261109   6.758   5.557   0.878  1.2520  1.3974  1.0743
13232TIP3   OH261110   1.869   6.027  12.212  0.2821  0.6098 -1.1434
13232TIP3    H161111   1.946   6.038  12.157  0.4255  0.9504 -0.8774
13232TIP3    H261112   1.814   5.964  12.165  0.3206  1.0289 -1.7617
13233TIP3   OH261113   3.015   6.480  10.846 -0.0578 -0.2239  0.1633
13233TIP3    H161114   2.938   6.426  10.830  0.1894 -1.0632  1.6312
13233TIP3    H261115   2.981   6.569  10.859 -0.5888 -0.2452 -0.9954
13234TIP3   OH261116   0.739   5.481   4.825  0.1073 -0.0518 -0.2392
13234TIP3    H161117   0.673   5.550   4.830  1.5067  1.2419  1.4541
13234TIP3    H261118   0.792   5.504   4.749 -0.3580 -0.1764 -0.6125
13235TIP3   OH261119   5.516   4.396  15.252 -0.4572 -0.1502 -0.6254
13235TIP3    H161120   5.577   4.396  15.178  1.4785  1.7964  0.8488
13235TIP3    H261121   5.549   4.327  15.310 -0.0079  0.4801 -0.1196
13236TIP3   OH261122   1.405   3.374   5.426 -0.1807  0.1554 -0.0796
13236TIP3    H161123   1.479   3.435   5.426 -0.5594  0.6194  0.1331
13236TIP3    H261124   1.422   3.315   5.499  0.8221 -0.7780 -1.0369
13237TIP3   OH261125   3.267   0.552  15.973 -0.0027  0.4944 -0.4176
13237TIP3    H161126   3.239   0.486  16.036  0.3698 -0.3405 -1.1131
13237TIP3    H261127   3.356   0.527  15.950 -0.8050 -0.4755 -2.8356
13238TIP3   OH261128   4.649   2.768   0.686 -0.0874 -0.3763  0.5936
13238TIP3    H161129   4.663   2.829   0.613  2.0467  1.9980  2.7930
13238TIP3    H261130   4.733   2.764   0.731 -1.0198 -2.6564  2.3177
13239TIP3   OH261131   1.558   4.420   4.854 -0.3145 -0.2852  0.7008
13239TIP3    H161132   1.529   4.490   4.912 -1.2492  0.1772 -0.2970
13239TIP3    H261133   1.557   4.458   4.766  0.2597 -1.2144  0.2706
13240TIP3   OH261134   2.721   2.361   1.492  0.5554 -0.0301 -0.1061
13240TIP3    H161135   2.768   2.396   1.568  1.7068 -1.9013  0.0954
13240TIP3    H261136   2.780   2.376   1.419 -0.4510  1.5442 -0.6556
13241TIP3   OH261137   3.023   4.393   4.834 -0.3525 -0.0789  0.5655
13241TIP3    H161138   3.011   4.322   4.897 -1.1175  0.1127  0.6433
13241TIP3    H261139   2.936   4.409   4.799 -0.1616  0.7337  0.4476
13242TIP3   OH261140   2.238   1.143   5.823  0.0393 -0.0712  0.1438
13242TIP3    H161141   2.240   1.056   5.863  0.4158 -0.2213 -0.1876
13242TIP3    H261142   2.304   1.193   5.871  1.2791 -0.5690 -0.9624
13243TIP3   OH261143   1.672   4.725  12.794  0.6378 -0.0155  0.7001
13243TIP3    H161144   1.626   4.749  12.713 -0.4217 -1.8217  0.7073
13243TIP3    H261145   1.670   4.804  12.848  1.0982  1.1298 -0.8994
13244TIP3   OH261146   4.567   2.038  12.066 -0.0358 -0.4411 -0.0476
13244TIP3    H161147   4.617   1.998  11.995  1.1573  1.7552 -0.5614
13244TIP3    H261148   4.633   2.060  12.131 -0.6421  0.5395  0.2517
13245TIP3   OH261149   3.888   3.003   6.091 -0.1725 -0.9506 -0.1968
13245TIP3    H161150   3.960   2.943   6.114 -0.9291 -1.5019  0.7726
13245TIP3    H261151   3.925   3.058   6.021  1.7317 -0.1731  1.3252
13246TIP3   OH261152   0.449   5.641   4.177  0.0332  0.0558 -0.0157
13246TIP3    H161153   0.433   5.731   4.145  0.0191  0.1438  0.2394
13246TIP3    H261154   0.368   5.594   4.156  0.2554 -0.0481 -0.6735
13247TIP3   OH261155   0.273   1.428  11.429 -0.0962 -0.5308  0.0153
13247TIP3    H161156   0.347   1.484  11.452 -0.7852  0.9871 -1.3168
13247TIP3    H261157   0.280   1.416  11.334 -1.3371 -0.6946 -0.0706
13248TIP3   OH261158   5.861   3.603  12.427 -0.4113 -0.0116 -0.6732
13248TIP3    H161159   5.809   3.584  12.505  0.4733 -1.7199 -0.4531
13248TIP3    H261160   5.842   3.532  12.366 -1.4829  1.5714 -2.2813
13249TIP3   OH261161   5.861   4.829  15.708  0.0086  0.7615  0.0514
13249TIP3    H161162   5.826   4.761  15.651  0.7926  0.1050  0.3362
13249TIP3    H261163   5.811   4.907  15.685 -1.1034  0.0347 -0.0841
13250TIP3   OH261164   0.590   0.385  13.571  0.0634  0.6105  0.0651
13250TIP3    H161165   0.561   0.409  13.483  1.7475  1.2141 -0.3582
13250TIP3    H261166   0.562   0.458  13.626 -0.7259  0.3710 -0.0048
13251TIP3   OH261167   1.216   2.047  10.677  0.3642  0.1199 -0.3270
13251TIP3    H161168   1.160   1.985  10.631 -0.3076 -0.5824  1.3465
13251TIP3    H261169   1.161   2.081  10.748  0.6218  2.8481 -1.3205
13252TIP3   OH261170   3.936   0.575   1.000  0.4147  0.3555 -0.1116
13252TIP3    H161171   3.972   0.584   1.089 -1.4525 -0.6366  0.7912
13252TIP3    H261172   3.852   0.620   1.004 -0.2855 -0.8464 -0.9943
13253TIP3   OH261173   1.330   4.366   3.039  0.2377 -0.1934 -0.1618
13253TIP3    H161174   1.362   4.407   3.119  1.6853 -0.2274 -0.6882
13253TIP3    H261175   1.358   4.425   2.969 -1.4290  0.0803 -0.6227
13254TIP3   OH261176   3.887   3.692   3.343  0.0970 -0.1202  0.1392
13254TIP3    H161177   3.823   3.621   3.334  1.1378 -1.3232  1.6416
13254TIP3    H261178   3.880   3.742   3.262 -0.4415 -2.1302 -1.1094
13255TIP3   OH261179   2.896   0.329   2.789 -0.3716  0.3744  0.1403
13255TIP3    H161180   2.857   0.298   2.871  0.2049  0.0265  0.2853
13255TIP3    H261181   2.858   0.416   2.777  0.0801  0.7356  1.1641
13256TIP3   OH261182   4.571   4.270   5.796 -0.0444 -0.1889  0.2076
13256TIP3    H161183   4.584   4.282   5.890  0.8041 -1.2611  0.2438
13256TIP3    H261184   4.621   4.191   5.775 -1.4529 -0.8369 -0.8560
13257TIP3   OH261185   3.243   4.563  15.576 -0.3314 -0.0473 -0.1899
13257TIP3    H161186   3.161   4.597  15.610 -1.2429 -0.5182 -1.8166
13257TIP3    H261187   3.293   4.641  15.552  0.8525  0.3843  3.0930
13258TIP3   OH261188   3.536   5.953  15.342  0.1657 -0.2106 -0.6300
13258TIP3    H161189   3.445   5.940  15.366  0.0153 -0.9540 -1.5652
13258TIP3    H261190   3.558   5.877  15.288  1.5669 -0.4542  0.2227
13259TIP3   OH261191   2.705   0.701   4.583  0.3749 -0.2077 -0.2901
13259TIP3    H161192   2.727   0.784   4.540  0.3764 -1.1008 -2.1282
13259TIP3    H261193   2.789   0.670   4.616  0.3644  0.5420  0.4749
13260TIP3   OH261194   5.573   0.123   5.482  0.3281 -0.5695  0.3579
13260TIP3    H161195   5.619   0.200   5.515  0.2208 -0.2416 -0.2466
13260TIP3    H261196   5.544   0.148   5.394 -0.3662 -1.0345  0.4480
13261TIP3   OH261197   0.271   1.854  14.756  0.0530 -0.3166  0.5247
13261TIP3    H161198   0.222   1.851  14.674  0.0503 -0.2083  0.5217
13261TIP3    H261199   0.329   1.930  14.747 -0.4070  0.0840  0.8769
13262TIP3   OH261200   5.907   5.981  16.445 -0.0453  0.2054  0.4749
13262TIP3    H161201   5.992   5.939  16.431  0.2670  1.5423 -2.2793
13262TIP3    H261202   5.852   5.948  16.374 -1.2655  0.8047  1.1150
13263TIP3   OH261203   0.779   2.267   4.236  0.0512  0.1634 -0.1963
13263TIP3    H161204   0.691   2.305   4.247 -0.1966  0.4781 -2.6430
13263TIP3    H261205   0.834   2.342   4.213  0.6526 -0.2550 -0.1310
13264TIP3   OH261206   1.588   1.009  16.188 -0.0855 -0.2995 -0.6048
13264TIP3    H161207   1.632   1.066  16.251 -0.7653  1.4219 -1.6272
13264TIP3    H261208   1.533   0.952  16.241  0.8560 -0.2431  0.4681
13265TIP3   OH261209   1.967   6.027  16.746  0.7218 -0.1344  0.1503
13265TIP3    H161210   1.893   6.087  16.735  2.9363  2.6455 -0.9022
13265TIP3    H261211   1.969   5.976  16.665 -0.4116 -0.7342  0.4847
13266TIP3   OH261212   0.765   3.059  15.701 -0.2918  0.3880 -0.2342
13266TIP3    H161213   0.701   3.099  15.759 -1.3297  0.8795 -1.6560
13266TIP3    H261214   0.720   3.051  15.617  0.3581 -2.4335 -0.4263
13267TIP3   OH261215   4.879   3.838  16.673 -0.2348 -0.7150 -0.0156
13267TIP3    H161216   4.882   3.806  16.764  0.4362 -0.7867 -0.0611
13267TIP3    H261217   4.839   3.766  16.624 -1.2584 -0.4049  0.3277
13268TIP3   OH261218   0.079   5.852  17.294 -0.0719 -0.4945 -0.0520
13268TIP3    H161219   0.027   5.807  17.360  0.2376 -0.0778  0.4840
13268TIP3    H261220   0.093   5.786  17.225 -0.4327 -0.9162  0.2764
13269TIP3   OH261221   4.611   2.557   4.163  0.5217  0.0468 -0.4639
13269TIP3    H161222   4.671   2.578   4.092  1.5636  2.0583  0.9169
13269TIP3    H261223   4.662   2.504   4.223 -0.2031 -1.2277 -0.9441
13270TIP3   OH261224   4.539   2.776  12.211 -0.3527  0.3485 -0.5895
13270TIP3    H161225   4.607   2.837  12.242  0.0376 -0.3427 -0.0409
13270TIP3    H261226   4.548   2.777  12.116 -1.0307  1.9019 -0.6640
13271TIP3   OH261227   4.620   0.782   5.829  0.1407 -0.0727  0.0146
13271TIP3    H161228   4.623   0.739   5.915 -0.8734 -0.2624 -0.0383
13271TIP3    H261229   4.711   0.782   5.800  0.5255  0.1226  1.1530
13272TIP3   OH261230   3.365   3.107   4.359 -0.4452 -0.4481  0.4914
13272TIP3    H161231   3.360   3.193   4.319  0.8363 -0.2965  0.6176
13272TIP3    H261232   3.281   3.066   4.340 -0.7853  0.5518 -0.1962
13273TIP3   OH261233   6.562   3.623  16.607  0.1661 -0.0742 -0.4025
13273TIP3    H161234   6.646   3.623  16.653 -0.8679 -2.2292  1.6880
13273TIP3    H261235   6.530   3.713  16.615  1.5097  0.3736  0.2334
13274TIP3   OH261236   3.815   5.666   3.187 -0.6057  0.0348  0.3571
13274TIP3    H161237   3.895   5.682   3.136 -1.3661 -0.2565 -0.9700
13274TIP3    H261238   3.790   5.753   3.218  0.8056 -0.0037  1.7390
13275TIP3   OH261239   4.143   1.123  12.810  0.1840  0.2542  0.3134
13275TIP3    H161240   4.178   1.048  12.858  0.5261  0.5912  0.5977
13275TIP3    H261241   4.057   1.139  12.850  0.5805  0.6974  0.9976
13276TIP3   OH261242   2.470   5.461   1.702  0.2200  0.9220  0.3901
13276TIP3    H161243   2.491   5.501   1.787  0.5836  0.6633  0.4260
13276TIP3    H261244   2.555   5.435   1.667  0.0344  0.6789  0.1218
13277TIP3   OH261245   6.253   5.473  14.811 -0.1145  0.2506  0.0685
13277TIP3    H161246   6.309   5.475  14.733  0.3580  0.4510  0.4132
13277TIP3    H261247   6.201   5.393  14.800 -0.0659  0.2856 -0.4615
13278TIP3   OH261248   5.140   0.683  16.803  0.1721  0.7352  0.2786
13278TIP3    H161249   5.103   0.701  16.716 -0.3943  3.2034  0.9813
13278TIP3    H261250   5.066   0.653  16.855  0.2850  0.3779  0.2392
13279TIP3   OH261251   4.275   2.840   0.686 -0.5445  0.3226  0.0064
13279TIP3    H161252   4.281   2.887   0.769 -1.1643  0.3533  0.0405
13279TIP3    H261253   4.182   2.843   0.663 -0.6740 -1.2238  0.2038
13280TIP3   OH261254   2.722   3.193   5.448  0.1059  0.3033 -0.2623
13280TIP3    H161255   2.772   3.112   5.460  0.2919  0.4227 -0.2185
13280TIP3    H261256   2.781   3.250   5.398 -0.1509  0.2939 -0.5708
13281TIP3   OH261257   2.050   5.621  13.905 -0.1155 -0.3687  0.2402
13281TIP3    H161258   2.053   5.574  13.988 -2.3195 -0.1999  0.4750
13281TIP3    H261259   2.018   5.556  13.842 -1.7995  0.3864  0.2753
13282TIP3   OH261260   1.609   1.001  12.698 -0.3478  0.3838  0.0045
13282TIP3    H161261   1.601   0.941  12.772  0.7109  0.2304  0.0080
13282TIP3    H261262   1.594   1.088  12.736  0.4724  0.3314  0.4587
13283TIP3   OH261263   4.102   3.364  15.801  0.0212 -0.3086  0.1564
13283TIP3    H161264   4.195   3.343  15.809  0.0055  0.4575  3.8158
13283TIP3    H261265   4.098   3.424  15.726  2.5000 -0.1488  0.0653
13284TIP3   OH261266   3.588   5.485   2.732  0.6037 -0.2647  0.1415
13284TIP3    H161267   3.654   5.554   2.738  0.6766 -0.4449  2.6309
13284TIP3    H261268   3.506   5.531   2.716  0.9356  0.2076 -0.2272
13285TIP3   OH261269   0.727   6.115   1.352  0.0011 -0.0503  0.3690
13285TIP3    H161270   0.796   6.123   1.286 -1.8413 -0.8555 -1.8242
13285TIP3    H261271   0.671   6.192   1.336 -2.0643 -1.7400 -1.1419
13286TIP3   OH261272   5.788   3.021  16.049 -0.1658 -0.6529 -0.2602
13286TIP3    H161273   5.729   3.051  16.117  1.6157  0.5430  0.8439
13286TIP3    H261274   5.809   2.930  16.073 -0.4980 -0.6353  0.1029
13287TIP3   OH261275   0.250   4.480   2.826  0.1082  0.2861 -0.5501
13287TIP3    H161276   0.336   4.439   2.832  0.0649  0.3648  1.1144
13287TIP3    H261277   0.270   4.572   2.808  0.2531 -0.1171 -2.7037
13288TIP3   OH261278   6.334   2.921  15.300  0.3972  0.0022 -0.1754
13288TIP3    H161279   6.296   2.895  15.216 -1.9753  1.0248  0.4864
13288TIP3    H261280   6.282   2.873  15.365  1.4391  0.1090  0.7622
13289TIP3   OH261281   5.776   2.644  10.801 -0.2984 -0.1999 -0.0271
13289TIP3    H161282   5.792   2.572  10.861  1.5923 -0.3430 -0.6303
13289TIP3    H261283   5.733   2.604  10.725 -1.3677 -0.2559  0.5818
13290TIP3   OH261284   2.005   2.926  11.603 -0.2538 -0.4023 -0.4869
13290TIP3    H161285   2.065   2.967  11.666  1.0057 -1.6302 -0.8193
13290TIP3    H261286   1.985   2.841  11.642 -0.9678 -0.4216 -0.8828
13291TIP3   OH261287   3.133   5.648   4.720  0.0184 -0.1012  0.0421
13291TIP3    H161288   3.163   5.650   4.629 -0.1242  0.0848 -0.0004
13291TIP3    H261289   3.209   5.618   4.769 -0.0513 -0.6996 -0.1994
13292TIP3   OH261290   4.671   5.821  11.602 -0.3084 -0.1045  1.0994
13292TIP3    H161291   4.592   5.820  11.548  1.5711 -1.0054 -1.8470
13292TIP3    H261292   4.705   5.910  11.591 -1.7064  0.8745  3.8148
13293TIP3   OH261293   2.922   1.850   4.846 -0.6950 -0.3923 -0.0465
13293TIP3    H161294   2.947   1.798   4.769 -1.0996 -0.4796 -0.1230
13293TIP3    H261295   3.004   1.867   4.891 -0.5819 -1.2778  0.0957
13294TIP3   OH261296   4.311   0.593  14.060  0.8863 -0.7412 -0.4470
13294TIP3    H161297   4.226   0.636  14.068  1.4252  0.2884  0.0072
13294TIP3    H261298   4.311   0.555  13.972  0.9869  1.6482 -1.5635
13295TIP3   OH261299   2.866   1.868  13.492 -0.3549 -0.2995  0.2463
13295TIP3    H161300   2.919   1.948  13.495 -0.3312 -0.3305  0.9689
13295TIP3    H261301   2.787   1.893  13.445  0.5079 -0.3936 -1.3400
13296TIP3   OH261302   0.969   5.843  16.446  0.0627  0.1003  0.1543
13296TIP3    H161303   0.879   5.852  16.478 -0.3679  1.1359 -1.2785
13296TIP3    H261304   0.967   5.880  16.358  1.3512 -2.0892 -0.8589
13297TIP3   OH261305   0.589   5.936   5.045  0.6436 -0.0551 -0.1206
13297TIP3    H161306   0.552   5.892   4.969  0.4860 -0.7098  0.3247
13297TIP3    H261307   0.520   5.996   5.074 -0.6902 -2.1871  1.4786
13298TIP3   OH261308   6.101   4.715  12.106  0.1598  0.1078 -0.0832
13298TIP3    H161309   6.121   4.690  12.016  1.9380  3.1761 -0.7022
13298TIP3    H261310   6.009   4.741  12.104 -0.2385 -1.2491 -0.5973
13299TIP3   OH261311   6.164   3.932  13.790 -0.1404  0.1478 -0.6240
13299TIP3    H161312   6.094   3.968  13.845  1.1972  1.2406  0.4405
13299TIP3    H261313   6.242   3.935  13.846  1.2252  0.9828 -2.4799
13300TIP3   OH261314   1.685   0.541   4.735 -0.0904  0.0869 -0.0585
13300TIP3    H161315   1.666   0.448   4.750 -0.1804  0.3671  1.8876
13300TIP3    H261316   1.763   0.558   4.787 -1.6787  1.7030  2.0196
13301TIP3   OH261317   2.915   3.241   2.964  0.4341  0.1481  0.2380
13301TIP3    H161318   2.904   3.255   2.870  0.9023  0.4258  0.2205
13301TIP3    H261319   3.009   3.228   2.975  0.3707  0.0293  0.6601
13302TIP3   OH261320   2.891   5.462   2.124  0.1931  0.1699 -0.1523
13302TIP3    H161321   2.918   5.370   2.126  0.5128  0.2742  0.4132
13302TIP3    H261322   2.808   5.463   2.173  1.3756  0.5528  1.9578
13303TIP3   OH261323   4.555   4.203  11.158  0.1373 -0.0193 -0.2841
13303TIP3    H161324   4.497   4.127  11.147  1.0258 -0.6357 -0.9184
13303TIP3    H261325   4.606   4.205  11.076 -0.3211  1.6613 -0.5531
13304TIP3   OH261326   3.965   6.098  13.624  0.5081 -0.3914 -0.2571
13304TIP3    H161327   4.026   6.167  13.598  0.8357 -0.8934 -0.8547
13304TIP3    H261328   3.902   6.142  13.681  0.3882  0.5239 -1.0622
13305TIP3   OH261329   1.373   5.680  14.390  0.0211  0.1234 -0.0993
13305TIP3    H161330   1.299   5.738  14.375  0.1801  0.2808 -0.2731
13305TIP3    H261331   1.334   5.599  14.424 -0.3031 -0.0530 -0.8658
13306TIP3   OH261332   4.153   5.400   0.504  0.1611 -0.0113 -0.0762
13306TIP3    H161333   4.240   5.438   0.516 -0.1232  0.3087  1.0857
13306TIP3    H261334   4.093   5.472   0.520 -0.3906 -0.8970  2.1641
13307TIP3   OH261335   1.832   6.317   0.830 -0.3299 -0.5178 -0.8314
13307TIP3    H161336   1.805   6.406   0.853 -0.1454 -0.7087  0.1983
13307TIP3    H261337   1.917   6.328   0.787  0.7816 -0.3146  1.2796
13308TIP3   OH261338   5.842   3.044   4.355  0.1493  0.0927 -0.4388
13308TIP3    H161339   5.863   3.065   4.446 -1.5560 -1.4940  0.3769
13308TIP3    H261340   5.877   2.956   4.342 -2.3732 -1.0311 -0.2363
13309TIP3   OH261341   2.228   2.347  13.320  0.5213 -0.2523 -0.3468
13309TIP3    H161342   2.218   2.252  13.315 -0.2535 -0.1772 -0.3084
13309TIP3    H261343   2.142   2.382  13.297  0.1055  0.3734  1.9044
13310TIP3   OH261344   2.831   3.040   1.487 -0.3388  0.5087  0.2078
13310TIP3    H161345   2.835   3.076   1.576 -2.1238  0.9656  0.1452
13310TIP3    H261346   2.794   3.110   1.434 -2.2372 -0.7598 -0.2556
13311TIP3   OH261347   4.048   2.599  12.761  0.2071 -0.1617 -0.1569
13311TIP3    H161348   4.095   2.562  12.836 -1.1317 -0.4576  0.5636
13311TIP3    H261349   4.088   2.557  12.685  0.3092 -1.3291  0.5093
13312TIP3   OH261350   0.402   1.280  16.267 -0.4482 -0.7276  0.2362
13312TIP3    H161351   0.321   1.249  16.226 -0.9714 -0.5697  1.1337
13312TIP3    H261352   0.412   1.369  16.234 -0.1033 -1.0814 -0.6489
13313TIP3   OH261353   1.828   5.309  14.969 -0.5023 -0.4643  0.4982
13313TIP3    H161354   1.830   5.242  15.037 -0.9730 -1.0048 -0.0036
13313TIP3    H261355   1.889   5.376  14.999  0.0244 -1.1438  0.9865
13314TIP3   OH261356   5.007   4.726  15.192 -0.3394  0.0932 -0.1827
13314TIP3    H161357   4.956   4.691  15.119 -2.1049 -1.5463  1.7117
13314TIP3    H261358   4.945   4.781  15.240  0.2174 -0.3557  1.0893
13315TIP3   OH261359   6.183   2.862   5.747 -0.4110 -0.3779 -0.8033
13315TIP3    H161360   6.150   2.846   5.836  1.7123 -1.6504 -0.1799
13315TIP3    H261361   6.192   2.957   5.741 -0.1414 -0.3059  0.5256
13316TIP3   OH261362   3.322   1.158  11.613  0.2697 -0.0476 -0.0332
13316TIP3    H161363   3.298   1.143  11.522 -2.6975 -1.0341  0.7842
13316TIP3    H261364   3.344   1.071  11.647  0.1515  0.1219  0.4859
13317TIP3   OH261365   4.932   5.036  15.353  0.2974 -0.1347 -0.2752
13317TIP3    H161366   4.849   4.990  15.360 -0.6185  1.3652 -0.8531
13317TIP3    H261367   4.996   4.976  15.392 -1.1948 -0.8780  1.1560
13318TIP3   OH261368   6.211   5.047   1.940  0.1939  0.4869  0.5677
13318TIP3    H161369   6.234   5.113   1.874  1.4617 -0.3268  0.1681
13318TIP3    H261370   6.179   5.098   2.015  0.5055  1.5114  0.0193
13319TIP3   OH261371   3.747   0.246   5.443 -0.6286 -0.8131  0.1727
13319TIP3    H161372   3.821   0.203   5.399 -0.0260  0.5562 -0.2295
13319TIP3    H261373   3.673   0.187   5.429 -0.4546 -0.5375 -2.6294
13320TIP3   OH261374   5.340   2.402   4.015  0.3964 -0.1523 -0.6744
13320TIP3    H161375   5.419   2.432   3.969  0.8858  0.9923  0.8244
13320TIP3    H261376   5.368   2.322   4.060  0.4362 -0.2463 -0.8640
13321TIP3   OH261377   1.036   5.779  12.119  0.6089 -0.0969 -0.3521
13321TIP3    H161378   0.984   5.699  12.128  2.1205 -1.0260  0.5685
13321TIP3    H261379   1.060   5.782  12.027  0.1136 -0.4091 -0.4940
13322TIP3   OH261380   1.640   3.369  15.570 -0.3455  0.0680  0.4492
13322TIP3    H161381   1.713   3.413  15.613 -0.5934  1.0318 -0.0944
13322TIP3    H261382   1.630   3.287  15.618  2.4537 -1.1264 -0.7229
13323TIP3   OH261383   2.420   0.267   1.727  0.0347 -0.1080 -0.0851
13323TIP3    H161384   2.516   0.268   1.724  0.0153  1.2028 -1.2502
13323TIP3    H261385   2.394   0.223   1.647 -0.3371 -0.1732  0.0720
13324TIP3   OH261386   4.997   3.611   2.535  0.2714 -0.1626  0.4300
13324TIP3    H161387   4.924   3.561   2.499  0.6377 -0.0355 -0.5248
13324TIP3    H261388   5.059   3.545   2.566 -0.4452 -0.2695  1.6827
13325TIP3   OH261389   5.499   5.492  14.321 -0.0019  0.1690  0.1401
13325TIP3    H161390   5.452   5.493  14.404 -0.0065 -1.8361  0.1946
13325TIP3    H261391   5.431   5.493  14.254 -0.0232  0.6362  0.1653
13326TIP3   OH261392   3.283   5.237   6.983 -0.1967  0.3484 -0.6070
13326TIP3    H161393   3.235   5.160   6.954 -0.9570  0.6277 -0.1286
13326TIP3    H261394   3.233   5.270   7.058 -1.0579  2.4833 -2.0323
13327TIP3   OH261395   4.963   6.194   4.785 -0.0445 -0.0463 -0.6568
13327TIP3    H161396   4.953   6.264   4.720 -0.6901 -0.6805 -1.2620
13327TIP3    H261397   4.914   6.225   4.861  0.8906  0.7984 -0.3751
13328TIP3   OH261398   2.773   5.354  15.297 -1.0251 -0.3428  0.1181
13328TIP3    H161399   2.767   5.442  15.335 -3.3929 -0.9423  1.3160
13328TIP3    H261400   2.860   5.351  15.258 -0.0271  1.7707  1.9558
13329TIP3   OH261401   4.974   6.335   5.265 -0.7218  0.0386  0.1267
13329TIP3    H161402   5.033   6.299   5.198  0.0135  1.5701 -0.0821
13329TIP3    H261403   4.970   6.267   5.332  0.5906 -0.4729 -0.2714
13330TIP3   OH261404   1.547   6.388  11.670  0.2053  0.0439 -0.0928
13330TIP3    H161405   1.546   6.351  11.758 -1.4297  3.0713  1.3074
13330TIP3    H261406   1.592   6.472  11.680 -1.9071  1.4394 -1.6322
13331TIP3   OH261407   5.386   3.437  15.211  0.1864  0.1107 -0.5202
13331TIP3    H161408   5.351   3.392  15.287 -0.4530 -1.6256 -1.7623
13331TIP3    H261409   5.433   3.512  15.246  1.3551 -1.5464  1.7158
13332TIP3   OH261410   6.159   3.896  11.085  0.3779 -0.0473  0.3133
13332TIP3    H161411   6.241   3.931  11.051  1.0576  0.2028  2.0929
13332TIP3    H261412   6.096   3.908  11.014  1.4809  1.3146 -0.4720
13333TIP3   OH261413   0.755   4.956  11.158  0.8283 -0.1907  0.2322
13333TIP3    H161414   0.812   4.896  11.205 -0.2189 -0.4481  1.1949
13333TIP3    H261415   0.756   5.036  11.210  3.3050  1.2002 -1.7429
13334TIP3   OH261416   1.371   6.745   5.374  0.1829 -0.1132  0.5322
13334TIP3    H161417   1.364   6.733   5.279  0.7618 -1.5005  0.6479
13334TIP3    H261418   1.328   6.829   5.390  2.7768  1.7384 -1.3403
13335TIP3   OH261419   1.592   3.463  11.395 -0.3177  0.0843  0.3827
13335TIP3    H161420   1.539   3.392  11.359  1.9683 -1.9775  0.8040
13335TIP3    H261421   1.572   3.463  11.488 -1.1628  0.8348  0.2230
13336TIP3   OH261422   4.033   3.887  13.019 -0.5800  0.4619  0.8655
13336TIP3    H161423   4.077   3.801  13.019 -0.6583  0.3043 -1.9365
13336TIP3    H261424   3.964   3.878  13.084 -0.9655 -1.8539  0.2505
13337TIP3   OH261425   6.639   4.037  10.311 -0.4562  0.1690  0.1430
13337TIP3    H161426   6.650   4.126  10.280  0.9559 -0.5263 -1.5315
13337TIP3    H261427   6.602   4.046  10.399  0.0904  2.3878  0.1963
13338TIP3   OH261428   6.148   4.385  12.373  0.2733  0.6538 -0.1730
13338TIP3    H161429   6.116   4.351  12.457 -1.6828  0.1229 -1.0675
13338TIP3    H261430   6.069   4.418  12.330  1.3302  1.4130 -1.5895
13339TIP3   OH261431   0.676   6.262   6.920  0.1575 -0.9113 -0.1813
13339TIP3    H161432   0.647   6.314   6.845 -1.6445 -1.2925  0.1965
13339TIP3    H261433   0.747   6.208   6.886 -0.6732 -1.1317 -1.6332
13340TIP3   OH261434   0.817   0.921   2.899 -0.0468 -0.1748  0.5467
13340TIP3    H161435   0.829   0.827   2.908  0.1237 -0.0299  2.0375
13340TIP3    H261436   0.848   0.941   2.810  0.7716 -1.3731  0.5484
13341TIP3   OH261437   0.063   3.335  14.856 -0.4969  0.8862  0.2021
13341TIP3    H161438   0.116   3.413  14.865 -0.8252  0.9436  1.7898
13341TIP3    H261439   0.035   3.313  14.945  1.4442 -2.3430  0.1910
13342TIP3   OH261440   1.996   2.786  12.498 -0.4170 -0.7822  0.2252
13342TIP3    H161441   2.015   2.879  12.483 -1.3319 -0.2834  1.9889
13342TIP3    H261442   2.081   2.742  12.486  0.1794  0.3650  0.1521
13343TIP3   OH261443   0.024   5.947   5.309  0.2575  0.5955 -0.3141
13343TIP3    H161444   0.021   6.039   5.284 -1.0857  0.9365  0.9952
13343TIP3    H261445  -0.014   5.901   5.234 -0.5627  1.2607 -0.3139
13344TIP3   OH261446   4.346   3.418  12.486  0.0235 -0.0071 -0.2331
13344TIP3    H161447   4.436   3.448  12.496  0.4278 -0.8099 -1.2999
13344TIP3    H261448   4.313   3.466  12.410  0.6731 -2.0881 -1.9557
13345TIP3   OH261449   4.197   4.838  15.104  0.2507  0.0826  0.3994
13345TIP3    H161450   4.236   4.892  15.035 -0.5337 -1.7028 -1.5689
13345TIP3    H261451   4.271   4.793  15.145  0.7089  1.0276  0.6384
13346TIP3   OH261452   6.702   6.576  15.596 -0.0235  0.1707 -0.1352
13346TIP3    H161453   6.795   6.566  15.574 -0.0707 -0.3290 -0.1189
13346TIP3    H261454   6.702   6.637  15.670  0.2784  0.2895 -0.2303
13347TIP3   OH261455   4.931   6.652  17.222  0.3915  0.4119 -0.4145
13347TIP3    H161456   4.846   6.608  17.212  0.5835  0.1779 -1.0369
13347TIP3    H261457   4.948   6.692  17.138  1.5392 -0.7044 -0.7514
13348TIP3   OH261458   0.612   5.884  11.363  0.0783  0.0686  0.0722
13348TIP3    H161459   0.660   5.934  11.296  1.6760  1.3916  2.0681
13348TIP3    H261460   0.569   5.814  11.314  1.3087  0.8380 -2.3013
13349TIP3   OH261461   5.401   6.592  14.118 -0.0812  0.1625 -0.6595
13349TIP3    H161462   5.354   6.588  14.035 -1.5568  2.2503 -0.0248
13349TIP3    H261463   5.441   6.679  14.119 -0.8592  0.5449  1.1586
13350TIP3   OH261464   1.395   4.223  14.588 -0.0589 -0.2732  0.7240
13350TIP3    H161465   1.322   4.266  14.543 -1.3370  0.1908  3.0722
13350TIP3    H261466   1.364   4.135  14.607  0.1512 -0.2203  1.3443
13351TIP3   OH261467   6.569   4.941   4.690  0.1606  0.2799  0.0709
13351TIP3    H161468   6.548   5.024   4.646  1.4773  0.8905  0.5502
13351TIP3    H261469   6.619   4.967   4.768 -0.1573 -0.9232  0.6989
13352TIP3   OH261470   3.612   0.972   1.248 -0.0166  0.4805 -0.0093
13352TIP3    H161471   3.647   1.043   1.301  0.9051 -1.3045  1.9193
13352TIP3    H261472   3.688   0.917   1.228 -1.1936 -2.3071  2.3834
13353TIP3   OH261473   0.424   6.030  16.377  0.2741 -0.2177  0.3644
13353TIP3    H161474   0.495   5.975  16.344 -0.3203 -0.2378 -0.9357
13353TIP3    H261475   0.461   6.072  16.455  1.3200 -1.0983  0.3715
13354TIP3   OH261476   0.590   6.429  17.233 -0.0240 -0.3629  0.0939
13354TIP3    H161477   0.638   6.474  17.303  1.4902 -1.2429 -0.3333
13354TIP3    H261478   0.650   6.361  17.202 -1.2776 -1.0283 -0.9900
13355TIP3   OH261479   5.244   6.280  17.025  0.2897  0.1645 -0.1132
13355TIP3    H161480   5.252   6.195  17.069  1.4039 -0.8627 -2.1728
13355TIP3    H261481   5.150   6.290  17.011  0.2176 -1.5186 -1.2053
13356TIP3   OH261482   1.214   0.995   4.023  0.2853 -0.1096  0.6484
13356TIP3    H161483   1.297   1.011   4.067  0.2478 -1.0699  1.0782
13356TIP3    H261484   1.157   0.957   4.090 -0.5669  0.6908  0.4091
13357TIP3   OH261485   1.699   4.113  12.107  0.6747 -0.1456 -1.5447
13357TIP3    H161486   1.700   4.028  12.062  1.4243  0.3465 -2.4937
13357TIP3    H261487   1.648   4.097  12.186  2.1548 -1.9159 -0.8523
13358TIP3   OH261488   5.220   4.392  15.469 -0.1774  0.3203 -0.0715
13358TIP3    H161489   5.224   4.432  15.382  0.3979 -1.7823 -1.0650
13358TIP3    H261490   5.299   4.423  15.513 -0.3081  1.1395 -0.3868
13359TIP3   OH261491   6.128   2.810   6.405 -0.1283  1.0263 -0.2202
13359TIP3    H161492   6.183   2.863   6.463 -0.8726  0.5769  0.9274
13359TIP3    H261493   6.044   2.856   6.404 -1.3590 -0.9242  2.1708
13360TIP3   OH261494   0.294   1.607  14.023 -0.4149  0.3979  0.0492
13360TIP3    H161495   0.288   1.686  13.969 -0.5934 -1.9473 -3.7342
13360TIP3    H261496   0.208   1.566  14.013  0.0448 -0.8414  1.0345
13361TIP3   OH261497   3.144   6.609  13.317  0.1731  0.1200  0.4418
13361TIP3    H161498   3.057   6.588  13.285  0.2129  2.1967 -1.2296
13361TIP3    H261499   3.131   6.684  13.375  0.7669 -0.0969  0.8667
13362TIP3   OH261500   6.300   0.303   0.712 -0.3743  0.2186 -0.2760
13362TIP3    H161501   6.387   0.280   0.681  0.0524 -0.6302  1.4824
13362TIP3    H261502   6.252   0.221   0.713 -1.1698  0.6538 -1.0734
13363TIP3   OH261503   0.777   0.464  11.550 -0.1010 -0.7995 -0.1339
13363TIP3    H161504   0.786   0.480  11.644 -0.5108 -2.6866  0.2724
13363TIP3    H261505   0.693   0.504  11.527 -0.8945 -1.8820  0.7278
13364TIP3   OH261506   5.806   3.722   1.795 -0.4824 -0.6073  0.0681
13364TIP3    H161507   5.785   3.690   1.883 -1.1535 -1.4254 -0.3792
13364TIP3    H261508   5.893   3.761   1.804 -0.6158 -0.5208  1.1312
13365TIP3   OH261509   6.557   3.011   3.543  0.3993 -0.2633  0.2397
13365TIP3    H161510   6.602   3.069   3.604  1.8521  0.1045 -1.1190
13365TIP3    H261511   6.622   2.990   3.477 -0.6333 -1.9990 -0.3024
13366TIP3   OH261512   6.356   4.906   1.550 -0.0736  0.2692 -0.2849
13366TIP3    H161513   6.269   4.945   1.547 -0.0154  0.6579  1.7956
13366TIP3    H261514   6.352   4.834   1.486 -1.8813  0.3279 -0.2870
13367TIP3   OH261515   2.944   5.670  13.391  0.2814 -0.5837  0.4518
13367TIP3    H161516   2.955   5.585  13.433  1.8280 -0.9261 -0.5561
13367TIP3    H261517   3.011   5.726  13.431  1.1301 -0.6468 -0.7931
13368TIP3   OH261518   1.223   1.517  13.609  0.2748  0.3697 -0.2052
13368TIP3    H161519   1.301   1.469  13.579 -0.6195 -1.9783  1.0063
13368TIP3    H261520   1.158   1.503  13.540 -0.0956 -0.5336  0.3040
13369TIP3   OH261521   3.782   0.919  17.089  0.0147 -0.7073 -0.3622
13369TIP3    H161522   3.735   0.931  17.171 -1.1381 -0.5085 -1.0279
13369TIP3    H261523   3.855   0.862  17.111 -1.2106 -2.0082  0.5054
13370TIP3   OH261524   5.110   0.937  10.843  0.0269  0.0195 -0.2442
13370TIP3    H161525   5.156   0.855  10.861 -0.5901  0.1196  2.1423
13370TIP3    H261526   5.020   0.921  10.873 -0.5187  1.0624 -1.2649
13371TIP3   OH261527   5.865   0.599  10.843 -0.1070  0.2641  0.2536
13371TIP3    H161528   5.883   0.643  10.926  0.4454 -0.7845  0.7156
13371TIP3    H261529   5.902   0.658  10.777  0.3603  0.6346  0.8262
13372TIP3   OH261530   6.629   1.438  12.402  0.0539  0.5158  0.2236
13372TIP3    H161531   6.695   1.390  12.352  0.0492  0.7457  0.0017
13372TIP3    H261532   6.581   1.489  12.337 -0.8937 -0.2819  0.2629
13373TIP3   OH261533   5.468   2.673   2.866  0.6786  0.4140 -0.1860
13373TIP3    H161534   5.524   2.741   2.903  0.4213  0.2764  0.4747
13373TIP3    H261535   5.386   2.718   2.847 -0.0024  0.0032  1.6168
13374TIP3   OH261536   5.170   5.416  13.891  0.0339  0.0144  0.0691
13374TIP3    H161537   5.232   5.407  13.964  0.4937  0.6587 -0.2343
13374TIP3    H261538   5.091   5.372  13.921  0.7760 -1.1961  0.3063
13375TIP3   OH261539   3.691   2.164  10.905  0.4202  0.2163 -0.9088
13375TIP3    H161540   3.686   2.073  10.876  2.3877  0.0426 -0.8545
13375TIP3    H261541   3.770   2.167  10.959 -0.7272  1.5188  0.7839
13376TIP3   OH261542   3.306   0.237  14.299 -0.3792  0.5380 -0.1856
13376TIP3    H161543   3.314   0.144  14.319  0.8243  0.1406 -2.2343
13376TIP3    H261544   3.312   0.241  14.203 -1.3128  2.6510 -0.2077
13377TIP3   OH261545   2.787   1.886   0.835 -0.3595  0.0269  0.6448
13377TIP3    H161546   2.791   1.980   0.819 -2.9706  0.0445 -0.3088
13377TIP3    H261547   2.738   1.878   0.917 -0.0484 -0.5399  0.7867
13378TIP3   OH261548   2.845   2.045  11.579  0.7007  0.0965 -0.7999
13378TIP3    H161549   2.834   2.034  11.673 -0.8166  0.4389 -0.9087
13378TIP3    H261550   2.835   2.139  11.564  0.8711  0.0393 -1.3053
13379TIP3   OH261551   6.369   6.160   3.015 -0.0325 -0.1646 -0.6214
13379TIP3    H161552   6.331   6.233   3.065 -1.1187 -0.7815 -0.5249
13379TIP3    H261553   6.368   6.086   3.076 -1.7660 -1.0405 -1.6339
13380TIP3   OH261554   6.395   6.634  13.225  0.1360 -0.3421  0.2065
13380TIP3    H161555   6.470   6.690  13.249  0.9886 -0.7643 -1.2868
13380TIP3    H261556   6.431   6.545  13.224 -0.4298 -0.5737 -0.3298
13381TIP3   OH261557   0.500   0.796   2.451 -0.0132  0.4748  0.1722
13381TIP3    H161558   0.566   0.845   2.500 -1.8924  1.2452  2.0486
13381TIP3    H261559   0.485   0.849   2.373  0.9674  0.6960  0.1154
13382TIP3   OH261560   0.205   6.394   2.612 -0.4214  0.1337 -0.2197
13382TIP3    H161561   0.130   6.406   2.554 -0.3142  0.5830 -0.2709
13382TIP3    H261562   0.183   6.445   2.690 -0.6204 -0.5718  0.1852
13383TIP3   OH261563   6.726   3.041   0.754 -0.2193 -0.0597  0.3273
13383TIP3    H161564   6.747   2.948   0.762  1.1598  0.1149 -0.8634
13383TIP3    H261565   6.719   3.056   0.660  0.4857  1.2335  0.4600
13384TIP3   OH261566   5.075   6.189  11.149  0.4959 -0.4073  0.2782
13384TIP3    H161567   5.041   6.137  11.222 -0.6234 -0.4119 -0.2262
13384TIP3    H261568   5.012   6.261  11.140 -1.2984 -2.1824 -2.7862
13385TIP3   OH261569   6.700   1.285   1.244 -0.1044 -0.1263  0.3990
13385TIP3    H161570   6.758   1.306   1.317  1.8707  1.5713 -1.5123
13385TIP3    H261571   6.641   1.361   1.237  1.1726  0.8132 -1.0197
13386TIP3   OH261572   4.533   5.785  14.736 -0.2102  0.3258 -0.8496
13386TIP3    H161573   4.527   5.825  14.650 -0.4559  0.8040 -0.6098
13386TIP3    H261574   4.606   5.829  14.779  0.2101 -0.2312 -0.9771
13387TIP3   OH261575   3.037   0.451   4.030 -0.8514  0.1748 -0.2192
13387TIP3    H161576   3.078   0.453   3.944  0.5722  2.9319  0.3999
13387TIP3    H261577   2.968   0.385   4.023 -3.1341  2.5705 -4.5310
13388TIP3   OH261578   3.415   1.384   0.726  0.0823 -0.6776 -0.8249
13388TIP3    H161579   3.408   1.360   0.818 -1.4952  0.2152 -0.6716
13388TIP3    H261580   3.324   1.395   0.697  0.5935  1.2150 -1.8851
13389TIP3   OH261581   4.362   1.447  15.060  0.1577 -0.1323 -0.7982
13389TIP3    H161582   4.314   1.515  15.109  0.0647 -0.3214 -0.6255
13389TIP3    H261583   4.400   1.392  15.128  1.1676  0.3900 -0.9187
13390TIP3   OH261584   5.959   2.802  12.487 -0.0980  0.1425  0.3008
13390TIP3    H161585   6.013   2.758  12.420 -1.6310  0.2472 -1.0725
13390TIP3    H261586   5.870   2.799  12.451 -1.4528 -1.8561  3.3756
13391TIP3   OH261587   3.918   1.630   2.598  0.2603  0.5602  0.3760
13391TIP3    H161588   3.911   1.696   2.667  2.9057  0.2015  1.0846
13391TIP3    H261589   4.007   1.638   2.565  1.4264 -3.8302  1.8222
13392TIP3   OH261590   4.004   0.296  12.646 -0.1098  0.0620 -0.1043
13392TIP3    H161591   3.914   0.321  12.627 -0.5677 -0.1294  1.6280
13392TIP3    H261592   4.024   0.227  12.584 -0.6260  1.1240 -1.4895
13393TIP3   OH261593   0.014   5.714   2.726 -0.0194 -0.0686  0.0379
13393TIP3    H161594  -0.077   5.740   2.742  0.6135  1.1218  2.0695
13393TIP3    H261595   0.024   5.718   2.631 -1.2582  2.9426 -0.0758
13394TIP3   OH261596   0.815   5.712   5.849 -0.8620 -0.5629  0.4820
13394TIP3    H161597   0.905   5.714   5.880  0.1330 -0.0118 -2.1993
13394TIP3    H261598   0.804   5.624   5.814 -1.4362 -0.6639  0.8970
13395TIP3   OH261599   5.894   0.018   1.946 -0.2849  0.1727 -0.1489
13395TIP3    H161600   5.857   0.057   2.025 -2.1664 -1.2342 -0.2627
13395TIP3    H261601   5.854   0.068   1.874  0.8869  0.9967 -0.2524
13396TIP3   OH261602   0.744   4.348   3.426  0.3276 -0.0630 -0.2951
13396TIP3    H161603   0.721   4.257   3.406 -0.8844  0.1743 -0.0500
13396TIP3    H261604   0.662   4.388   3.454  0.6925  1.2982 -1.0613
13397TIP3   OH261605   6.737   6.315   5.022 -0.3674 -0.0917  0.1414
13397TIP3    H161606   6.788   6.317   4.942  2.1059 -0.9095  1.6063
13397TIP3    H261607   6.678   6.241   5.011 -0.1686 -0.0992 -0.9626
13398TIP3   OH261608   1.963   1.078   5.063 -0.6961  0.6960 -0.0359
13398TIP3    H161609   1.933   1.167   5.047 -0.1137  0.6705 -1.4854
13398TIP3    H261610   2.036   1.066   5.001 -0.1124 -0.4454  0.8301
13399TIP3   OH261611   0.823   2.231   5.004 -0.0063  0.3601  0.2652
13399TIP3    H161612   0.799   2.185   4.924 -0.0711 -0.5074  0.7702
13399TIP3    H261613   0.917   2.249   4.995  0.8849 -2.9527  1.4875
13400TIP3   OH261614   4.360   2.378  17.113  0.2722  0.7354 -0.1912
13400TIP3    H161615   4.429   2.390  17.178 -0.7249 -1.7315  1.4542
13400TIP3    H261616   4.381   2.442  17.045  2.4780  2.1028  1.6013
13401TIP3   OH261617   2.087   0.051   0.155  0.0363 -0.1155 -0.2640
13401TIP3    H161618   2.033   0.104   0.213 -1.6985 -3.2580  1.2110
13401TIP3    H261619   2.072   0.089   0.068 -0.4094  2.2688  0.7751
13402TIP3   OH261620   6.069   4.197   3.211  1.1608 -0.5336 -0.1574
13402TIP3    H161621   6.064   4.194   3.306  2.7319  0.3987 -0.0109
13402TIP3    H261622   6.153   4.241   3.192  0.3285  0.3979 -1.9656
13403TIP3   OH261623   5.645   0.200   1.188  0.1643  0.5511 -0.2511
13403TIP3    H161624   5.684   0.138   1.250 -0.0632  0.9302  0.2774
13403TIP3    H261625   5.574   0.242   1.237  1.2051  2.2514 -0.1273
13404TIP3   OH261626   5.457   2.987   4.334  0.2892 -0.0908  0.1122
13404TIP3    H161627   5.439   2.978   4.428 -0.8228 -0.4363 -0.1188
13404TIP3    H261628   5.478   2.898   4.305 -1.0175 -0.2919 -0.2750
13405TIP3   OH261629   3.611   4.234  17.321  0.2813  0.3384 -0.1759
13405TIP3    H161630   3.645   4.320  17.344  1.4960 -0.1918  0.1113
13405TIP3    H261631   3.552   4.211  17.393  0.0108  0.8802 -0.2169
13406TIP3   OH261632   1.076   5.900  13.080 -0.0859  0.7061  0.3363
13406TIP3    H161633   1.106   5.944  13.159 -0.4078  1.8885 -0.1785
13406TIP3    H261634   1.053   5.812  13.109  2.6182  0.1199  1.0090
13407TIP3   OH261635   3.157   5.837  14.604 -0.0932 -0.6881 -0.1036
13407TIP3    H161636   3.150   5.853  14.509 -0.3174  1.8135  0.2533
13407TIP3    H261637   3.084   5.778  14.623 -1.7482  0.9078 -1.1272
13408TIP3   OH261638   6.720   3.597  10.939 -1.0069  0.4320 -0.2007
13408TIP3    H161639   6.794   3.542  10.913 -2.1269 -0.1683 -2.3625
13408TIP3    H261640   6.748   3.639  11.020  0.1699 -2.8345  1.2555
13409TIP3   OH261641   0.101   0.823  13.329  0.2132 -0.1983  0.1441
13409TIP3    H161642   0.078   0.915  13.312 -0.0652 -0.2272  0.3410
13409TIP3    H261643   0.018   0.783  13.357  0.6839 -0.0628  1.8766
13410TIP3   OH261644   1.931   2.479   1.010  0.5324  0.5087  0.5549
13410TIP3    H161645   1.888   2.477   1.096 -1.3950 -0.9274 -0.3580
13410TIP3    H261646   1.897   2.558   0.968  1.2885  1.0825  1.0128
13411TIP3   OH261647   0.201   1.010   6.551 -0.2712 -0.0122 -0.8130
13411TIP3    H161648   0.243   1.039   6.471 -0.6636  0.1992 -0.9483
13411TIP3    H261649   0.114   0.981   6.524 -0.5160  0.3356 -0.4301
13412TIP3   OH261650   5.070   4.297   6.044 -0.1392 -0.4541 -0.4909
13412TIP3    H161651   5.153   4.341   6.059 -0.3667  0.1333 -0.9269
13412TIP3    H261652   5.082   4.209   6.081  0.1468  0.1210  0.8251
13413TIP3   OH261653   0.087   0.001  12.258 -0.6052 -0.1866  0.0738
13413TIP3    H161654   0.065   0.078  12.205 -1.6212 -0.0901  0.6047
13413TIP3    H261655   0.175  -0.024  12.229  0.1140  1.6784  0.4718
13414TIP3   OH261656   1.678   4.238   4.623  0.0827  0.2228  0.1875
13414TIP3    H161657   1.609   4.175   4.642  0.1076  0.1065 -0.1092
13414TIP3    H261658   1.650   4.280   4.542  0.2374  0.3513  0.2009
13415TIP3   OH261659   3.350   4.982   2.710  0.0760  0.6063  0.1742
13415TIP3    H161660   3.262   4.950   2.728 -0.8830  2.3082 -1.1873
13415TIP3    H261661   3.374   4.944   2.626 -0.0215  1.4009 -0.2190
13416TIP3   OH261662   2.459   4.545   2.350 -0.2827  0.3144  0.4864
13416TIP3    H161663   2.506   4.628   2.359 -0.4380  0.3372  1.1365
13416TIP3    H261664   2.437   4.540   2.257  0.0115  0.8483  0.3841
13417TIP3   OH261665   3.104   4.071  11.442 -0.1055 -0.4218  0.1096
13417TIP3    H161666   3.140   4.141  11.497 -1.4546  0.2704  0.1654
13417TIP3    H261667   3.061   4.118  11.371  1.7796 -1.2994 -1.7141
13418TIP3   OH261668   6.088   5.315  16.609  0.1821 -0.2948 -0.0456
13418TIP3    H161669   6.131   5.401  16.607 -1.6117  0.6731 -2.3447
13418TIP3    H261670   6.086   5.288  16.517 -2.0076 -1.3576  0.2553
13419TIP3   OH261671   4.608   4.729   1.268 -0.3566 -0.0256  0.3947
13419TIP3    H161672   4.624   4.806   1.323 -0.7434  0.3261  0.0295
13419TIP3    H261673   4.685   4.675   1.279  1.0287  1.5132 -1.1949
13420TIP3   OH261674   6.476   5.395   1.320 -0.2598  0.0080 -0.6575
13420TIP3    H161675   6.442   5.471   1.366  2.1309  0.7042  0.0964
13420TIP3    H261676   6.472   5.419   1.227 -0.7346  0.5109 -0.5097
13421TIP3   OH261677   0.577   3.845  15.426 -0.1442 -0.2079  0.1883
13421TIP3    H161678   0.600   3.791  15.351  1.3919  0.0735  0.4203
13421TIP3    H261679   0.511   3.794  15.473 -2.0099  0.1306 -1.9164
13422TIP3   OH261680   1.286   2.376   3.465 -0.0091  0.3475 -0.4720
13422TIP3    H161681   1.265   2.291   3.503 -0.0201  0.0484 -1.1235
13422TIP3    H261682   1.380   2.386   3.478 -0.4450  1.6576  2.3893
13423TIP3   OH261683   0.929   2.976   2.855  0.2344 -0.2353 -0.6688
13423TIP3    H161684   0.849   2.942   2.814 -0.4356  0.8448 -0.2756
13423TIP3    H261685   0.920   3.071   2.851  0.8993 -0.1003  0.5444
13424TIP3   OH261686   4.772   2.464  12.917  0.0960  0.2823 -0.1295
13424TIP3    H161687   4.702   2.407  12.886 -1.6683  1.3628  1.6661
13424TIP3    H261688   4.852   2.413  12.902 -1.0397 -1.1182 -1.9677
13425TIP3   OH261689   6.648   3.077   4.287 -0.6201  0.0139  0.0113
13425TIP3    H161690   6.625   3.030   4.367 -2.3285 -0.4130 -0.6770
13425TIP3    H261691   6.675   3.009   4.226  1.0322  0.3739  0.3083
13426TIP3   OH261692   3.306   2.464  16.731 -0.0338  0.3868 -0.3664
13426TIP3    H161693   3.372   2.448  16.663  1.3636 -0.2415  1.0832
13426TIP3    H261694   3.352   2.515  16.798 -0.6415 -1.0535  1.2184
13427TIP3   OH261695   1.637   3.407  16.443  0.1445 -0.5267 -0.1895
13427TIP3    H161696   1.571   3.350  16.484 -2.5173  2.7937  0.6161
13427TIP3    H261697   1.697   3.429  16.514 -2.1865  2.0508  1.1985
13428TIP3   OH261698   4.762   4.837   6.008 -0.6946  0.4394  0.9355
13428TIP3    H161699   4.676   4.801   5.987 -1.5309  2.0267  1.4605
13428TIP3    H261700   4.789   4.881   5.927  1.0402 -2.4809 -0.2485
13429TIP3   OH261701   4.943   6.731  14.413 -0.4544 -0.5968 -0.4933
13429TIP3    H161702   4.995   6.810  14.430 -0.6759 -0.6781  0.6866
13429TIP3    H261703   5.006   6.668  14.378  0.1984 -0.5925  0.6193
13430TIP3   OH261704   1.115   5.447   1.871 -0.3423 -0.3370 -0.0516
13430TIP3    H161705   1.145   5.468   1.782 -0.3403 -1.1985 -0.2663
13430TIP3    H261706   1.086   5.530   1.907 -0.6243 -0.0291 -0.9689
13431TIP3   OH261707   2.926   5.066  14.363  0.2025 -0.2615  0.7249
13431TIP3    H161708   3.010   5.087  14.322  0.4293  0.6277  1.6118
13431TIP3    H261709   2.902   5.145  14.410 -1.9131  0.0702 -0.7457
13432TIP3   OH261710   4.221   0.954   2.578  0.1622 -0.0088 -0.3916
13432TIP3    H161711   4.259   0.985   2.660  0.6661  1.0061 -0.9937
13432TIP3    H261712   4.131   0.930   2.601  0.4753 -0.2987  0.5713
13433TIP3   OH261713   4.220   2.557  15.116  0.6634 -0.0991 -0.0910
13433TIP3    H161714   4.307   2.596  15.106  0.2917  0.7392 -0.1616
13433TIP3    H261715   4.236   2.475  15.162  1.4645  0.1652  0.1287
13434TIP3   OH261716   4.114   3.533  15.590  0.2211  0.3409  0.0184
13434TIP3    H161717   4.206   3.558  15.593  0.8994 -1.7628 -0.8146
13434TIP3    H261718   4.110   3.467  15.521 -2.2753  1.6469 -1.2173
13435TIP3   OH261719   2.684   1.579   2.523 -0.6533 -0.7856 -0.1219
13435TIP3    H161720   2.732   1.499   2.502  0.6427  0.1255 -0.7608
13435TIP3    H261721   2.601   1.570   2.476  0.4793 -0.6810 -2.2770
13436TIP3   OH261722   6.329   5.165  13.494 -0.2210  0.3510 -0.0799
13436TIP3    H161723   6.335   5.085  13.442 -0.6189  0.3328 -0.0979
13436TIP3    H261724   6.311   5.234  13.430 -6.5341 -0.3333  0.3307
13437TIP3   OH261725   6.729   6.211   1.941 -0.0815  0.1400 -0.2651
13437TIP3    H161726   6.803   6.222   1.881 -0.1961  1.6317 -0.1787
13437TIP3    H261727   6.743   6.126   1.982  1.7297  0.5121 -0.0568
13438TIP3   OH261728   3.693   4.865  15.104  0.5582  0.1977  0.2043
13438TIP3    H161729   3.696   4.897  15.195 -0.8241  0.5667  0.1416
13438TIP3    H261730   3.782   4.834  15.087  1.8081  3.2088  0.5591
13439TIP3   OH261731   5.412   5.423  15.910 -0.1554  0.5504 -0.7756
13439TIP3    H161732   5.505   5.443  15.919  0.2944 -1.6433 -0.0027
13439TIP3    H261733   5.368   5.506  15.929  1.5801  1.2194  0.5628
13440TIP3   OH261734   0.792   1.309  14.345  0.4872  0.0772 -0.4550
13440TIP3    H161735   0.724   1.376  14.348  1.0239  0.5893  1.4217
13440TIP3    H261736   0.746   1.226  14.356 -0.1371  0.0949 -2.4232
13441TIP3   OH261737   3.248   2.153  12.962  0.3651 -0.1167  0.0304
13441TIP3    H161738   3.165   2.130  13.004  1.0597 -0.1549  1.4171
13441TIP3    H261739   3.264   2.080  12.902 -1.2090  0.4967 -1.2148
13442TIP3   OH261740   6.274   3.643   0.867 -0.1122  0.3753  0.2767
13442TIP3    H161741   6.298   3.668   0.778 -0.5262  1.5639  0.4697
13442TIP3    H261742   6.266   3.727   0.914 -2.5236 -0.0364  0.7537
13443TIP3   OH261743   1.426   4.872  15.150 -0.3051 -0.0482 -0.6699
13443TIP3    H161744   1.465   4.851  15.234 -0.1216 -0.0938 -0.7650
13443TIP3    H261745   1.500   4.903  15.097 -0.3888 -0.1823 -0.8667
13444TIP3   OH261746   2.942   4.036   3.371 -0.1391 -1.3283  0.0643
13444TIP3    H161747   3.011   4.101   3.365  1.1131 -2.4697  1.4604
13444TIP3    H261748   2.874   4.068   3.311  0.8621  0.6815 -0.0810
13445TIP3   OH261749   4.372   3.161   4.426  0.2804 -0.3238  0.0059
13445TIP3    H161750   4.434   3.096   4.459 -1.0627 -2.1690 -0.8884
13445TIP3    H261751   4.404   3.183   4.338  0.4071 -0.2497  0.0711
13446TIP3   OH261752   5.510   6.747  12.426  0.0731 -0.4079  0.2706
13446TIP3    H161753   5.596   6.788  12.413 -1.0716  1.9884 -0.3095
13446TIP3    H261754   5.516   6.664  12.378  1.5548  0.4772 -1.2078
13447TIP3   OH261755   4.982   3.294  12.523  0.2149  0.3197  0.2187
13447TIP3    H161756   5.059   3.237  12.520  1.3606  1.7955  0.6154
13447TIP3    H261757   4.916   3.241  12.567  1.2253 -0.7185  0.5517
13448TIP3   OH261758   6.356   0.185  15.593 -0.0267  0.3783  0.4431
13448TIP3    H161759   6.398   0.158  15.511 -1.0306  0.5261 -0.1497
13448TIP3    H261760   6.377   0.116  15.655  1.4002  0.6488  0.2881
13449TIP3   OH261761   0.550   2.081  12.609  0.1557 -0.0318 -0.7635
13449TIP3    H161762   0.488   2.074  12.682  1.1564 -0.2344  0.0829
13449TIP3    H261763   0.551   1.993  12.571 -0.9436  0.2637 -1.5247
13450TIP3   OH261764   6.094   6.457  12.785 -0.0707  0.6677  0.0930
13450TIP3    H161765   6.168   6.401  12.761  0.6538  1.8817 -0.5946
13450TIP3    H261766   6.064   6.495  12.702  1.9512  4.3003  0.8175
13451TIP3   OH261767   2.782   4.255   0.810 -0.0014  0.6713  0.0388
13451TIP3    H161768   2.741   4.242   0.896 -0.6888  0.6262 -0.2930
13451TIP3    H261769   2.728   4.205   0.749  1.3235 -0.5037 -0.2270
13452TIP3   OH261770   2.204   4.256  16.052 -0.3692 -0.3505 -0.2409
13452TIP3    H161771   2.118   4.297  16.059 -0.8983 -1.2582 -1.1091
13452TIP3    H261772   2.264   4.319  16.091 -0.9788  1.7419 -2.4911
13453TIP3   OH261773   4.167   6.398  12.031 -0.4588  0.4081  0.1619
13453TIP3    H161774   4.167   6.376  12.125 -1.0426  0.4799  0.1798
13453TIP3    H261775   4.254   6.434  12.016  0.1600 -0.9522  0.3599
13454TIP3   OH261776   1.764   6.535   5.849 -0.0608 -0.4122  0.7656
13454TIP3    H161777   1.672   6.511   5.838  0.2136 -0.8023 -1.0675
13454TIP3    H261778   1.763   6.605   5.915 -1.7343 -0.0328  0.3922
13455TIP3   OH261779   2.343   5.470   6.563 -0.2953 -0.0663  0.1643
13455TIP3    H161780   2.288   5.544   6.588 -0.0647  0.1711 -0.0400
13455TIP3    H261781   2.305   5.439   6.480  2.5324  2.9297 -2.5423
13456TIP3   OH261782   2.419   1.838   5.483 -0.0718  0.3818 -0.1679
13456TIP3    H161783   2.473   1.860   5.408 -2.4536  3.0984 -1.2542
13456TIP3    H261784   2.402   1.921   5.526 -2.0963 -0.5434  0.9975
13457TIP3   OH261785   3.665   0.967  14.738  0.5311  0.0912 -0.3947
13457TIP3    H161786   3.759   0.956  14.732  0.6062  1.2204 -2.0186
13457TIP3    H261787   3.628   0.890  14.694  0.7759  0.5144 -1.3892
13458TIP3   OH261788   3.566   2.551  11.931 -0.0408  0.0088  0.2103
13458TIP3    H161789   3.548   2.616  11.862  0.1208 -0.6470 -0.4717
13458TIP3    H261790   3.483   2.541  11.977  0.4352  2.2442  1.7288
13459TIP3   OH261791   3.446   5.343   4.997 -0.1120  0.4917 -0.1536
13459TIP3    H161792   3.528   5.364   5.041  0.0946  0.2335 -0.4178
13459TIP3    H261793   3.393   5.301   5.065  0.7712 -1.3254 -0.5102
13460TIP3   OH261794   4.387   0.469  14.472  0.4631  0.8176  0.3390
13460TIP3    H161795   4.419   0.543  14.421 -0.8348  1.1516 -0.0320
13460TIP3    H261796   4.439   0.471  14.553  1.7748  0.9399 -0.4706
13461TIP3   OH261797   3.675   4.104  11.266  0.5227 -0.4580 -0.7993
13461TIP3    H161798   3.638   4.023  11.301 -2.4026  0.6075 -1.1952
13461TIP3    H261799   3.669   4.095  11.171  0.7460 -0.0278 -0.8588
13462TIP3   OH261800   0.441   1.828   1.628  0.4226  0.2562  0.9615
13462TIP3    H161801   0.387   1.789   1.697  0.4672  1.2100  1.5674
13462TIP3    H261802   0.413   1.785   1.548 -0.9869  0.4617  1.3154
13463TIP3   OH261803   1.728   6.585   0.463  0.1401  0.0495 -0.1625
13463TIP3    H161804   1.801   6.550   0.412  0.6985  0.2734  0.4752
13463TIP3    H261805   1.669   6.511   0.475  0.9216 -0.4720  0.4811
13464TIP3   OH261806   5.837   0.173   2.193 -0.0708 -0.2065  0.4543
13464TIP3    H161807   5.872   0.187   2.281  0.2516 -0.1141  0.3154
13464TIP3    H261808   5.784   0.250   2.175  0.0668 -0.1071  0.4723
13465TIP3   OH261809   5.980   2.124  12.624  0.0163  0.2594  0.5404
13465TIP3    H161810   6.062   2.175  12.629 -0.2662  0.7889 -0.1362
13465TIP3    H261811   5.954   2.114  12.716  0.8158  0.1127  0.7655
13466TIP3   OH261812   4.167   0.932   0.546  0.5218  0.1413 -0.4027
13466TIP3    H161813   4.192   1.019   0.515 -1.5337  0.8145 -0.3328
13466TIP3    H261814   4.180   0.936   0.641 -0.6418  0.8139 -0.2442
13467TIP3   OH261815   5.820   1.437   1.524  0.2409 -0.4538 -0.2035
13467TIP3    H161816   5.837   1.343   1.514 -0.7390 -0.5937 -0.5837
13467TIP3    H261817   5.725   1.445   1.521  0.3370  0.6064 -0.6359
13468TIP3   OH261818   5.035   4.725   6.509  0.1214 -0.5098 -0.8281
13468TIP3    H161819   4.998   4.739   6.596  3.1889  1.2189  0.3474
13468TIP3    H261820   5.031   4.630   6.497  1.3990 -1.0387  2.1142
13469TIP3   OH261821   2.301   5.212  13.246 -0.0366 -0.4116  0.3279
13469TIP3    H161822   2.332   5.199  13.156  1.0320 -2.3772  0.9133
13469TIP3    H261823   2.377   5.248  13.292  0.2628 -1.8290  0.9789
13470TIP3   OH261824   0.457   2.551   1.910 -0.0452  0.0709 -0.1627
13470TIP3    H161825   0.454   2.552   1.814  1.2886 -4.4928 -0.4538
13470TIP3    H261826   0.390   2.488   1.935 -0.5765  1.4097  2.0169
13471TIP3   OH261827   3.341   2.361   1.540 -0.9218 -0.5459 -1.0432
13471TIP3    H161828   3.351   2.342   1.446 -0.6192 -1.5220 -0.8264
13471TIP3    H261829   3.292   2.287   1.574 -0.1894 -0.6800 -0.2554
13472TIP3   OH261830   2.647   3.423   4.079  0.4170 -0.2343 -0.4203
13472TIP3    H161831   2.677   3.457   3.995  0.0027 -0.3226 -0.6062
13472TIP3    H261832   2.707   3.351   4.100  0.8829  0.1710 -0.3519
13473TIP3   OH261833   4.464   5.527   4.764  0.2442 -0.2773  0.1340
13473TIP3    H161834   4.499   5.469   4.697 -0.2623 -1.6871  1.0348
13473TIP3    H261835   4.540   5.573   4.799  0.7881 -1.0450 -0.0173
13474TIP3   OH261836   5.186   3.244  13.313  0.1969 -0.1163 -0.1364
13474TIP3    H161837   5.117   3.286  13.260 -0.4934 -1.5587 -0.4309
13474TIP3    H261838   5.139   3.207  13.387  0.7946 -0.4005  0.0992
13475TIP3   OH261839   5.607   2.663   0.338 -0.0057 -0.2428  0.0053
13475TIP3    H161840   5.545   2.656   0.411  0.2365  2.5899  0.5701
13475TIP3    H261841   5.690   2.633   0.374 -0.2497 -0.5014  0.3591
13476TIP3   OH261842   4.545   5.594   6.044 -0.0625  0.4201 -0.4149
13476TIP3    H161843   4.638   5.607   6.028 -0.2512  0.3314 -1.7521
13476TIP3    H261844   4.502   5.668   6.001 -0.7019 -0.6053 -1.6442
13477TIP3   OH261845   2.170   0.114  11.740  0.4603  0.0154  0.2991
13477TIP3    H161846   2.171   0.027  11.700 -2.4334 -0.6110  1.3502
13477TIP3    H261847   2.146   0.099  11.831  3.6148  1.6912  1.5721
13478TIP3   OH261848   5.980   0.628   4.786  0.8103  0.2257  0.1489
13478TIP3    H161849   5.999   0.711   4.744 -1.4492 -0.3234 -2.2347
13478TIP3    H261850   6.000   0.562   4.720 -0.2724 -0.9015  0.9014
13479TIP3   OH261851   5.124   3.135   2.887 -0.2046  0.1493 -0.1913
13479TIP3    H161852   5.057   3.202   2.898  1.2786  1.5662  0.5125
13479TIP3    H261853   5.165   3.127   2.973  1.2696  0.1229 -0.8708
13480TIP3   OH261854   6.585   1.167   5.177 -0.1767 -0.0053  0.2561
13480TIP3    H161855   6.549   1.081   5.155 -1.4762  0.5974 -0.0791
13480TIP3    H261856   6.525   1.229   5.137  0.6971  1.0712  0.5619
13481TIP3   OH261857   4.239   3.270  13.339  0.1380  0.5611  0.3804
13481TIP3    H161858   4.321   3.314  13.361  1.2395 -0.3537 -1.6005
13481TIP3    H261859   4.265   3.179  13.321 -1.4420  0.0722  0.4136
13482TIP3   OH261860   0.343   3.884   5.617 -0.2174  0.1017  0.0306
13482TIP3    H161861   0.338   3.979   5.627 -1.2254  0.4869 -3.0385
13482TIP3    H261862   0.360   3.871   5.524 -1.2242 -2.7494  0.1588
13483TIP3   OH261863   5.264   4.678   3.214 -0.0680  0.4924  0.2260
13483TIP3    H161864   5.323   4.742   3.255 -1.3606  1.7160  0.2703
13483TIP3    H261865   5.272   4.696   3.120  1.4118 -0.9842  0.0284
13484TIP3   OH261866   1.922   1.987   6.308 -0.2141  0.8147  0.0446
13484TIP3    H161867   1.948   2.059   6.251  1.3583  0.2617  0.0280
13484TIP3    H261868   1.848   2.022   6.358 -0.0887  2.1069 -0.6252
13485TIP3   OH261869   0.602   1.840   5.884 -0.0246 -0.0796 -0.1720
13485TIP3    H161870   0.537   1.794   5.938  1.1242  0.1387  1.4759
13485TIP3    H261871   0.671   1.775   5.869 -0.1930 -0.0456 -1.1772
13486TIP3   OH261872   3.607   3.511   4.377 -0.0030  0.0988 -0.1298
13486TIP3    H161873   3.654   3.557   4.445 -1.1300 -2.0605  2.3038
13486TIP3    H261874   3.675   3.467   4.326  0.8392  1.1448  0.0660
13487TIP3   OH261875   1.455   6.298   1.751  0.1807  0.1365 -0.0116
13487TIP3    H161876   1.504   6.350   1.687 -1.3352  0.8888 -0.5929
13487TIP3    H261877   1.455   6.209   1.714  0.5529  0.2640 -0.3216
13488TIP3   OH261878   6.156   4.168   5.294  0.4741 -0.2521  0.1446
13488TIP3    H161879   6.106   4.087   5.304  1.9855 -1.1347  0.9182
13488TIP3    H261880   6.128   4.204   5.210 -0.6350 -1.2736  0.0514
13489TIP3   OH261881   3.246   5.199   0.967  0.3383  0.1129 -0.2768
13489TIP3    H161882   3.315   5.225   0.907 -0.2104  0.5712 -0.7095
13489TIP3    H261883   3.178   5.162   0.911  0.1048 -0.0690  0.1215
13490TIP3   OH261884   3.349   5.874   5.892 -0.2239  0.2964 -0.4268
13490TIP3    H161885   3.272   5.832   5.855 -0.0936  0.3237 -0.7387
13490TIP3    H261886   3.328   5.889   5.984  0.3307 -1.9070  0.1105
13491TIP3   OH261887   6.745   2.839  12.167  0.0431  0.6770  0.6106
13491TIP3    H161888   6.720   2.830  12.075  0.2564 -0.4949  0.6493
13491TIP3    H261889   6.763   2.749  12.195  1.5716  1.1883  1.3580
13492TIP3   OH261890   5.772   5.168   2.014  0.1571  0.2324  0.5002
13492TIP3    H161891   5.739   5.153   2.102 -1.0193 -0.8326 -0.0866
13492TIP3    H261892   5.819   5.088   1.991 -0.7189 -0.0628 -0.3319
13493TIP3   OH261893   0.097   2.502  16.589 -0.5554 -0.1211 -0.5715
13493TIP3    H161894   0.163   2.560  16.628 -3.4114  2.5213  0.7667
13493TIP3    H261895   0.039   2.561  16.541 -1.8183 -2.3460 -1.9258
13494TIP3   OH261896   3.102   0.782   0.354  0.2857 -0.2726 -0.1240
13494TIP3    H161897   3.115   0.750   0.265  0.4387 -1.0754  0.1810
13494TIP3    H261898   3.169   0.849   0.365  0.6097 -0.5387 -0.4382
13495TIP3   OH261899   0.410   6.676  11.782 -0.4266  0.1218  0.4162
13495TIP3    H161900   0.464   6.629  11.718  1.7522  1.1009  1.4331
13495TIP3    H261901   0.369   6.606  11.835  0.8923 -0.6775  0.4303
13496TIP3   OH261902   3.610   0.666  14.579 -0.1636 -0.0891 -0.2880
13496TIP3    H161903   3.703   0.647  14.568 -0.1455  0.6871 -1.6860
13496TIP3    H261904   3.569   0.630  14.501 -0.8361  0.8335 -0.3763
13497TIP3   OH261905   1.087   5.666  14.289  0.3177  0.5652  0.3018
13497TIP3    H161906   1.069   5.732  14.221 -0.2226  1.0448  0.8904
13497TIP3    H261907   1.114   5.588  14.241 -0.5122  0.7536 -0.4917
13498TIP3   OH261908   1.919   4.450   4.845  0.2493 -0.0268 -0.4881
13498TIP3    H161909   1.865   4.451   4.924 -2.1301  0.9242 -2.0361
13498TIP3    H261910   1.915   4.360   4.814 -1.1197  0.1671 -0.9593
13499TIP3   OH261911   1.384   4.470   4.442  0.2314 -0.4189 -0.1748
13499TIP3    H161912   1.460   4.422   4.410 -0.1752 -1.6062  0.5727
13499TIP3    H261913   1.421   4.533   4.505  0.8323  0.7424 -1.6049
13500TIP3   OH261914   5.158   0.991   0.840 -0.6001 -0.1685 -0.1953
13500TIP3    H161915   5.086   0.995   0.777 -1.1833 -1.6756  0.3309
13500TIP3    H261916   5.237   1.010   0.788 -1.2836  0.7863 -0.9172
13501TIP3   OH261917   2.001   3.359  14.254 -0.4509 -0.2727  0.3749
13501TIP3    H161918   2.089   3.356  14.292  0.1680 -2.5687 -1.0191
13501TIP3    H261919   1.947   3.309  14.315 -0.0024 -1.7436 -0.3613
13502TIP3   OH261920   0.518   0.051  12.701  0.3969 -0.7004  0.1523
13502TIP3    H161921   0.516  -0.003  12.623  2.3993 -1.3999  0.5300
13502TIP3    H261922   0.573   0.126  12.677 -0.7702  0.2026  0.2324
13503TIP3   OH261923   0.995   5.979  11.535  0.3763 -0.5823  0.1648
13503TIP3    H161924   0.944   6.060  11.528 -1.1728 -1.6341 -2.0166
13503TIP3    H261925   1.085   6.008  11.543 -0.1481  1.3706 -0.3981
13504TIP3   OH261926   0.460   4.226  13.994 -0.5339 -0.0058 -0.1106
13504TIP3    H161927   0.453   4.295  14.061  0.4926 -0.9836  1.0538
13504TIP3    H261928   0.369   4.201  13.978 -0.8189  0.3147  0.8641
13505TIP3   OH261929   5.656   1.149   1.049  0.1654  0.1555 -0.2864
13505TIP3    H161930   5.569   1.110   1.045  0.1715  0.0807  0.1919
13505TIP3    H261931   5.648   1.216   1.118  0.3883  0.3984 -0.4937
13506TIP3   OH261932   6.139   0.258  11.430  0.5692 -0.3288 -0.7088
13506TIP3    H161933   6.209   0.324  11.427 -0.2652  0.5444 -1.9231
13506TIP3    H261934   6.101   0.260  11.342  0.3330 -2.2657 -0.6849
13507TIP3   OH261935   4.460   4.742  16.740  0.2999 -0.5179  0.8873
13507TIP3    H161936   4.520   4.799  16.692  2.2697 -2.1969  1.2375
13507TIP3    H261937   4.428   4.680  16.675 -0.7041  0.0396  0.8187
13508TIP3   OH261938   6.308   3.024  12.830  0.0680  0.3443  0.0487
13508TIP3    H161939   6.282   3.064  12.913 -0.4964 -1.2924  0.6871
13508TIP3    H261940   6.396   2.990  12.846 -1.1770 -2.7351  1.0689
13509TIP3   OH261941   1.407   6.478  12.041  0.2400 -0.5160  0.2379
13509TIP3    H161942   1.426   6.530  12.119  2.2068 -0.2960 -0.3464
13509TIP3    H261943   1.473   6.409  12.041 -0.8617 -1.6052 -0.2832
13510TIP3   OH261944   3.176   4.554  15.034  0.2597 -0.0867  0.4795
13510TIP3    H161945   3.238   4.565  14.962 -0.1870  0.6290  0.1967
13510TIP3    H261946   3.106   4.616  15.015 -2.1115 -2.8888 -0.8661
13511TIP3   OH261947   5.659   0.336  15.295 -0.0804 -0.8924 -0.0731
13511TIP3    H161948   5.729   0.271  15.291  0.2926 -0.4334 -2.4811
13511TIP3    H261949   5.603   0.315  15.220 -0.1457  1.3465 -0.7096
13512TIP3   OH261950   4.616   2.374   0.704  0.0773  0.1834 -0.4320
13512TIP3    H161951   4.528   2.406   0.726 -0.0107 -0.9944  1.1130
13512TIP3    H261952   4.662   2.451   0.671 -1.2808  1.0097 -0.4900
13513TIP3   OH261953   0.167   4.365  14.292  0.4807 -0.5905  0.1971
13513TIP3    H161954   0.209   4.287  14.328  3.7404  0.1198 -1.7059
13513TIP3    H261955   0.097   4.330  14.236  0.6003 -2.0021  0.8775
13514TIP3   OH261956   1.313   5.433   0.803  0.0677 -0.9080  0.1890
13514TIP3    H161957   1.376   5.449   0.733  0.3991 -0.8561  0.5001
13514TIP3    H261958   1.251   5.370   0.765 -1.9742  1.8724 -1.5434
13515TIP3   OH261959   5.713   4.920  15.360 -0.2808 -0.1586  0.2505
13515TIP3    H161960   5.620   4.920  15.335 -0.7544 -0.4233  1.8717
13515TIP3    H261961   5.732   5.011  15.380  0.0318  0.0140 -0.7688
13516TIP3   OH261962   0.380   3.501  14.435 -0.3279  0.3661  0.2141
13516TIP3    H161963   0.285   3.490  14.427 -0.4476  0.9007  0.7604
13516TIP3    H261964   0.395   3.593  14.413  0.2781 -0.0919 -1.4453
13517TIP3   OH261965   4.415   4.809   2.599 -1.1713 -0.4680  0.1740
13517TIP3    H161966   4.360   4.836   2.673  0.6567  0.1828  1.3954
13517TIP3    H261967   4.478   4.881   2.589 -0.1069 -1.4720 -0.6684
13518TIP3   OH261968   3.757   1.821  12.880 -0.2048  0.4352 -0.5285
13518TIP3    H161969   3.757   1.871  12.961 -0.4351 -2.1237  1.1777
13518TIP3    H261970   3.675   1.771  12.883  0.6278 -1.0449 -1.4435
13519TIP3   OH261971   3.266   6.299  11.775 -0.1080 -0.0030 -0.2984
13519TIP3    H161972   3.214   6.356  11.718  0.0756  0.3196 -0.1468
13519TIP3    H261973   3.245   6.210  11.746  0.6077  0.1756 -1.4217
13520TIP3   OH261974   5.162   4.605   6.194  0.2889 -0.4931 -0.0716
13520TIP3    H161975   5.179   4.513   6.213 -0.3873 -0.9046 -1.3033
13520TIP3    H261976   5.222   4.654   6.251  2.1094 -1.7280 -0.8401
13521TIP3   OH261977   1.785   2.484  10.866 -0.0461 -0.0610 -0.3139
13521TIP3    H161978   1.752   2.493  10.777 -2.6814  1.7779  0.7127
13521TIP3    H261979   1.729   2.418  10.906 -0.3392  0.6779  0.5442
13522TIP3   OH261980   3.645   2.184  14.949 -0.2582 -0.1139 -0.1898
13522TIP3    H161981   3.562   2.136  14.945 -0.8082  0.8109 -0.1666
13522TIP3    H261982   3.620   2.273  14.974  0.6225  0.4487 -1.2158
13523TIP3   OH261983   4.612   3.002  14.979  0.1892  0.2052 -0.0230
13523TIP3    H161984   4.674   2.933  15.004 -0.7233 -0.6342 -0.0086
13523TIP3    H261985   4.547   2.958  14.924  0.5350  1.4275 -1.4710
13524TIP3   OH261986   4.442   6.267  14.466 -0.2991  0.4044  0.0268
13524TIP3    H161987   4.372   6.301  14.410 -0.3755 -0.4809 -0.4324
13524TIP3    H261988   4.449   6.175  14.442 -0.2305  0.0363  1.3691
13525TIP3   OH261989   0.646   6.162  12.364 -0.3872  0.5022 -0.3857
13525TIP3    H161990   0.676   6.230  12.423 -2.3635  0.4939  0.7156
13525TIP3    H261991   0.654   6.201  12.277 -0.2127  1.6323  0.1191
13526TIP3   OH261992   4.326   0.370   2.765 -0.1482 -0.3278 -0.2846
13526TIP3    H161993   4.274   0.383   2.685 -0.5993  0.3759  0.1134
13526TIP3    H261994   4.334   0.275   2.773 -2.6674 -0.5618  0.4398
13527TIP3   OH261995   6.191   2.609  17.237 -1.2698 -0.0170 -0.0164
13527TIP3    H161996   6.128   2.580  17.171 -0.7633 -1.8203  0.2488
13527TIP3    H261997   6.169   2.559  17.316  0.1377 -0.2899  0.2308
13528TIP3   OH261998   3.915   1.835  11.611 -0.4534  0.8573 -0.3240
13528TIP3    H161999   4.005   1.863  11.627 -0.3912  1.5980 -1.7369
13528TIP3    H262000   3.913   1.744  11.639 -0.0964  1.6139  2.4721
13529TIP3   OH262001   5.539   6.126   6.209 -0.2975  0.0756 -0.3142
13529TIP3    H162002   5.451   6.157   6.227 -1.0764 -2.3251  0.3950
13529TIP3    H262003   5.544   6.122   6.113 -1.1408 -0.2155 -0.3556
13530TIP3   OH262004   4.328   0.584  13.581  0.0002  0.6324 -0.0585
13530TIP3    H162005   4.363   0.521  13.644  1.1421  0.0116 -1.2680
13530TIP3    H262006   4.346   0.669  13.621 -1.2376  0.2385  1.4261
13531TIP3   OH262007   2.260   1.153  16.591 -0.4296  0.6793 -0.2117
13531TIP3    H162008   2.308   1.090  16.644  0.4629  0.4361 -1.2731
13531TIP3    H262009   2.169   1.146  16.621 -0.2355 -0.6491  0.1229
13532TIP3   OH262010   4.987   2.644  14.297 -0.0941 -0.6522 -0.0637
13532TIP3    H162011   4.999   2.721  14.352  1.2272 -0.3572 -0.7016
13532TIP3    H262012   5.018   2.571  14.350 -0.4410 -0.6083  0.1975
13533TIP3   OH262013   6.646   5.439  12.140 -0.3212  0.5431  0.2055
13533TIP3    H162014   6.578   5.380  12.171 -0.1474  0.1452 -0.1594
13533TIP3    H262015   6.603   5.525  12.137 -0.8155  0.2915 -0.0520
13534TIP3   OH262016   0.159   0.859   5.311  0.5609 -0.4963 -0.1580
13534TIP3    H162017   0.197   0.774   5.335  0.0765 -0.7000 -0.1135
13534TIP3    H262018   0.114   0.842   5.228 -1.4150 -0.8236  0.9282
13535TIP3   OH262019   1.020   3.540   1.285  0.7678 -0.9457  0.8580
13535TIP3    H162020   1.007   3.618   1.230 -0.1895 -1.1781  0.7401
13535TIP3    H262021   1.039   3.576   1.372 -2.7800 -0.4861  1.5718
13536TIP3   OH262022   5.016   2.023   2.017  0.7238 -0.5959 -0.1021
13536TIP3    H162023   5.023   2.068   1.933  1.7983 -0.5781 -0.0211
13536TIP3    H262024   5.018   2.094   2.082 -1.8403 -0.4580 -0.0606
13537TIP3   OH262025   5.992   4.026   1.714 -0.1090 -0.0594 -0.0835
13537TIP3    H162026   6.007   4.039   1.807  1.1187  1.0731 -0.4066
13537TIP3    H262027   5.903   4.057   1.699 -0.4089 -0.5010  0.7419
13538TIP3   OH262028   5.512   4.232   3.676 -0.4777 -0.2637  0.1540
13538TIP3    H162029   5.509   4.265   3.586 -2.7487  0.7643  0.5158
13538TIP3    H262030   5.435   4.175   3.682  1.2518 -2.6918  0.6745
13539TIP3   OH262031   1.109   3.090  11.801 -0.1709  0.3833  0.1306
13539TIP3    H162032   1.196   3.130  11.803  0.0378  0.1144 -1.7909
13539TIP3    H262033   1.052   3.159  11.768 -0.5451  0.2816  0.5474
13540TIP3   OH262034   2.928   2.568   5.744 -0.5181  0.7324 -0.0765
13540TIP3    H162035   2.958   2.506   5.809 -1.3316  0.9861  0.5590
13540TIP3    H262036   2.902   2.513   5.669  0.1050  0.4198 -0.0695
13541TIP3   OH262037   5.421   4.139  14.004  0.5924 -0.2523 -0.3570
13541TIP3    H162038   5.374   4.212  14.044  3.0333  0.1856  2.0128
13541TIP3    H262039   5.384   4.132  13.916 -0.8603  2.7738 -0.1228
13542TIP3   OH262040   4.560   3.285  13.547  0.0535 -0.2897 -0.2659
13542TIP3    H162041   4.606   3.338  13.612  2.2305 -1.6312 -0.6059
13542TIP3    H262042   4.494   3.237  13.598  2.1657 -1.8485  1.1834
13543TIP3   OH262043   6.606   3.404   5.465 -0.2067 -0.0038 -0.5057
13543TIP3    H162044   6.585   3.490   5.500  0.6495  0.3432 -0.8141
13543TIP3    H262045   6.579   3.343   5.534  0.5335  0.6143  0.3557
13544TIP3   OH262046   3.174   2.231   4.430 -0.4901  0.1016  0.1067
13544TIP3    H162047   3.207   2.160   4.485 -0.1762 -1.6366 -2.1479
13544TIP3    H262048   3.250   2.258   4.378 -0.6439  2.0311  0.8050
13545TIP3   OH262049   0.600   5.167  15.500  0.3064 -0.6891 -0.4497
13545TIP3    H162050   0.522   5.135  15.455  0.2963  0.0602 -0.9842
13545TIP3    H262051   0.572   5.249  15.541  0.4719 -1.0692  0.4513
13546TIP3   OH262052   3.264   5.081   1.568  0.3298  0.3823  0.0064
13546TIP3    H162053   3.185   5.134   1.556  1.0999  1.4513 -0.6141
13546TIP3    H262054   3.302   5.113   1.650  1.0771  1.2136 -0.6375
13547TIP3   OH262055   1.650   4.102  14.536  0.0812 -0.2221 -0.1450
13547TIP3    H162056   1.629   4.015  14.502  0.7221 -0.1613 -0.7070
13547TIP3    H262057   1.565   4.146  14.545 -0.1352 -0.3939 -1.2408
13548TIP3   OH262058   6.178   2.771   4.641  0.0998  0.0031 -0.4563
13548TIP3    H162059   6.160   2.709   4.712 -2.0192  0.2389 -0.7385
13548TIP3    H262060   6.269   2.753   4.617  1.6446  1.2255  3.5666
13549TIP3   OH262061   1.966   2.575  16.316 -0.6344  0.1408 -0.1280
13549TIP3    H162062   2.059   2.587  16.336 -0.3583  0.1185 -1.3312
13549TIP3    H262063   1.955   2.480  16.310 -0.7892  0.1345  0.2578
13550TIP3   OH262064   5.376   2.269  12.743 -0.7574  0.3972  0.0679
13550TIP3    H162065   5.437   2.247  12.672 -1.4565 -1.9482  0.0957
13550TIP3    H262066   5.347   2.358  12.724  1.6146  1.0923 -0.6860
13551TIP3   OH262067   5.340   0.284  11.429 -0.8133 -0.0062 -0.0103
13551TIP3    H162068   5.292   0.364  11.408 -0.8690  0.5243  1.9380
13551TIP3    H262069   5.297   0.216  11.378 -0.6089  1.2038 -1.9196
13552TIP3   OH262070   3.308   1.279   3.015 -0.1418  0.2186 -0.0958
13552TIP3    H162071   3.280   1.311   2.929  1.6520  1.2445 -0.3602
13552TIP3    H262072   3.250   1.323   3.077 -2.4407 -1.6536 -0.7749
13553TIP3   OH262073   2.847   6.279   3.941 -0.2043 -0.0773  0.1020
13553TIP3    H162074   2.800   6.257   4.021  0.0547 -0.3751  0.1781
13553TIP3    H262075   2.804   6.227   3.873  0.6313 -1.1126  0.3439
13554TIP3   OH262076   3.953   6.357   4.032  0.4638  0.1312 -0.3586
13554TIP3    H162077   3.861   6.383   4.038  0.8025  1.0505  1.4538
13554TIP3    H262078   3.965   6.334   3.940 -1.7624 -0.7655 -0.5021
13555TIP3   OH262079   1.776   0.558  16.388 -0.8189 -0.0418 -0.2329
13555TIP3    H162080   1.792   0.601  16.472  2.2880 -0.5695 -0.4147
13555TIP3    H262081   1.769   0.465  16.411 -0.3423 -0.1472 -0.5090
13556TIP3   OH262082   4.964   3.551  11.065 -0.7550 -0.1125  0.1412
13556TIP3    H162083   4.995   3.547  10.975 -1.1547 -0.1653  0.0024
13556TIP3    H262084   4.965   3.644  11.087 -1.0141 -0.0621 -0.0491
13557TIP3   OH262085   5.277   5.449  15.144 -0.4605  0.4855 -0.2215
13557TIP3    H162086   5.288   5.394  15.067  0.7844  1.7445 -0.9834
13557TIP3    H262087   5.287   5.388  15.218 -1.9237 -0.7767 -1.0157
13558TIP3   OH262088   0.516   4.450   1.328 -0.2073  0.3492  0.8122
13558TIP3    H162089   0.611   4.446   1.327 -0.2355 -0.7456 -0.3817
13558TIP3    H262090   0.493   4.487   1.242 -0.8730 -1.0665  0.3455
13559TIP3   OH262091   2.035   4.475   1.260  0.6117 -0.1120  0.0290
13559TIP3    H162092   2.054   4.390   1.220  0.5625  0.6991 -1.8300
13559TIP3    H262093   1.987   4.455   1.340  1.1779 -1.8500 -0.0423
13560TIP3   OH262094   6.236   3.007   4.452  0.1098 -0.2366  0.1970
13560TIP3    H162095   6.280   2.990   4.535  2.0856 -0.0402 -0.7338
13560TIP3    H262096   6.258   2.931   4.398 -0.8530 -0.1999 -0.2700
13561TIP3   OH262097   1.063   1.546  15.342  0.5344 -0.2987  0.0496
13561TIP3    H162098   1.125   1.502  15.401  1.9200  1.4605 -0.0028
13561TIP3    H262099   1.055   1.634  15.378 -1.1037 -0.1533 -0.6076
13562TIP3   OH262100   2.143   4.680   5.163 -0.8174  0.3163  0.0911
13562TIP3    H162101   2.095   4.733   5.099  0.3600  1.0697 -0.2093
13562TIP3    H262102   2.075   4.636   5.214 -1.7959  0.6301 -0.9072
13563TIP3   OH262103   5.370   1.469  14.246 -0.4473 -0.7762 -0.4308
13563TIP3    H162104   5.339   1.552  14.282 -1.2341 -0.6260 -1.3933
13563TIP3    H262105   5.465   1.476  14.247 -0.4922 -0.1850  0.2250
13564TIP3   OH262106   4.237   6.054  13.829 -0.0038 -0.3717  0.0091
13564TIP3    H162107   4.260   6.057  13.736  1.7256  0.8702  0.4311
13564TIP3    H262108   4.172   6.124  13.839  1.4043  0.9695  0.0958
13565TIP3   OH262109   3.708   2.195  17.126 -0.4535  0.0240  0.1761
13565TIP3    H162110   3.795   2.156  17.130 -0.5748 -0.1560  1.6379
13565TIP3    H262111   3.697   2.220  17.034  0.5943 -1.1837 -0.3194
13566TIP3   OH262112   0.056   3.903   0.601 -0.5840 -0.0268 -1.1614
13566TIP3    H162113  -0.005   3.914   0.528 -1.6409 -0.7871 -0.4268
13566TIP3    H262114   0.037   3.976   0.659  0.4827  0.7635 -1.7796
13567TIP3   OH262115   5.931   3.856  13.242 -0.2103 -0.0310 -0.5407
13567TIP3    H162116   6.013   3.879  13.286  0.2521 -0.2090 -1.2985
13567TIP3    H262117   5.943   3.885  13.152 -0.7807 -0.5120 -0.7795
13568TIP3   OH262118   3.717   1.085  11.637  0.0403  0.8087  0.2263
13568TIP3    H162119   3.736   1.020  11.705  0.3289 -0.2564 -0.8514
13568TIP3    H262120   3.788   1.148  11.644 -0.5993  1.4367  1.7303
13569TIP3   OH262121   5.140   0.672   3.943  0.0602 -0.1100 -0.6130
13569TIP3    H162122   5.104   0.743   3.890 -1.8770 -0.0244  0.7212
13569TIP3    H262123   5.209   0.713   3.995  0.0867  0.4157 -1.0646
13570TIP3   OH262124   4.503   4.496   5.484  0.2045  0.0582 -0.6160
13570TIP3    H162125   4.574   4.484   5.547  0.0259 -0.3503 -0.4963
13570TIP3    H262126   4.492   4.410   5.443 -0.0698  0.1781 -0.7984
13571TIP3   OH262127   6.639   1.716  11.934  0.2581  0.0689 -0.0396
13571TIP3    H162128   6.732   1.700  11.914 -0.4694 -2.6068 -1.8587
13571TIP3    H262129   6.624   1.806  11.907  2.0177  0.1189 -1.0296
13572TIP3   OH262130   6.181   4.616  13.052  0.1924  0.0953  0.0520
13572TIP3    H162131   6.148   4.654  13.133  0.3830 -1.5707  0.9599
13572TIP3    H262132   6.121   4.544  13.033  0.3938  0.2077 -1.0742
13573TIP3   OH262133   0.272   6.667  12.080 -1.0216 -0.4594  0.0229
13573TIP3    H162134   0.269   6.576  12.051 -0.1874 -0.3839 -0.3092
13573TIP3    H262135   0.363   6.682  12.103 -1.3913 -0.1029  1.3873
13574TIP3   OH262136   0.382   0.672  12.248 -0.8308  0.1129 -0.0884
13574TIP3    H162137   0.378   0.745  12.187 -0.7856 -0.3935 -0.7070
13574TIP3    H262138   0.428   0.706  12.324  0.6632  0.2650 -1.0300
13575TIP3   OH262139   2.817   0.658  12.406 -0.4384 -0.3105 -0.8387
13575TIP3    H162140   2.906   0.681  12.377 -0.2794 -1.8150 -1.6293
13575TIP3    H262141   2.779   0.742  12.432  1.5513  0.2501  0.5169
13576TIP3   OH262142   1.680   1.302  16.144 -0.3105  0.2232 -0.1068
13576TIP3    H162143   1.680   1.309  16.239  0.5738  0.9353 -0.1456
13576TIP3    H262144   1.738   1.227  16.126 -0.6720 -0.0657 -0.0838
13577TIP3   OH262145   2.969   2.128   3.072  0.0988  0.3766 -0.1615
13577TIP3    H162146   2.992   2.114   3.164  0.5205  0.2229 -0.2888
13577TIP3    H262147   3.053   2.138   3.027 -0.0914  0.1355 -0.5802
13578TIP3   OH262148   0.084   2.533   3.970  0.5187 -0.0982 -0.5817
13578TIP3    H162149   0.151   2.597   3.947 -0.1789  0.0194 -2.5636
13578TIP3    H262150   0.004   2.585   3.981 -0.2892 -0.6183 -3.2614
13579TIP3   OH262151   5.295   2.446  14.534  0.0446  0.1150 -0.0601
13579TIP3    H162152   5.274   2.537  14.558  0.5144  0.8423 -2.2111
13579TIP3    H262153   5.216   2.413  14.492  0.4405  0.1430 -0.8570
13580TIP3   OH262154   2.003   1.822  16.735  0.0492 -0.3823  0.4214
13580TIP3    H162155   2.008   1.904  16.785  0.3931 -0.6338  0.8114
13580TIP3    H262156   2.093   1.789  16.735 -0.3454 -1.5871  1.6880
13581TIP3   OH262157   4.265   3.520  16.655 -0.6583  0.0122  0.6061
13581TIP3    H162158   4.310   3.452  16.606 -0.9064  0.2090  0.0955
13581TIP3    H262159   4.257   3.485  16.744  0.6006  0.0333  0.7370
13582TIP3   OH262160   5.795   5.642   3.628 -0.2126 -0.3795 -0.7958
13582TIP3    H162161   5.860   5.622   3.560 -0.4578  1.0807 -1.4825
13582TIP3    H262162   5.711   5.640   3.582 -0.3908  0.4985 -0.5249
13583TIP3   OH262163   2.973   3.510   4.310  0.0120 -0.0884 -0.4905
13583TIP3    H162164   3.013   3.517   4.397 -0.8148 -0.1562 -0.0900
13583TIP3    H262165   2.898   3.453   4.323  0.0598 -0.3538 -1.3271
13584TIP3   OH262166   5.989   6.169  13.609  0.5549  0.3566 -0.3623
13584TIP3    H162167   6.053   6.220  13.561  2.7459  1.1513  3.0443
13584TIP3    H262168   6.041   6.108  13.662 -1.4945  0.4314  1.9430
13585TIP3   OH262169   4.823   2.196   0.856  0.5989  0.7252 -0.4987
13585TIP3    H162170   4.803   2.102   0.856  0.5094  0.7427 -0.2461
13585TIP3    H262171   4.755   2.235   0.802 -0.8525  0.9456  1.3807
13586TIP3   OH262172   2.246   6.595  12.242 -0.4250 -0.2069  0.0095
13586TIP3    H162173   2.297   6.664  12.284  0.0087 -0.6457  0.2246
13586TIP3    H262174   2.204   6.637  12.168 -0.5103  0.3818  0.3883
13587TIP3   OH262175   0.487   0.471   5.569  0.2724  0.0598 -0.0415
13587TIP3    H162176   0.398   0.507   5.573 -0.1682 -1.0519  0.6885
13587TIP3    H262177   0.532   0.509   5.644 -0.5517 -1.7143  1.4534
13588TIP3   OH262178   3.187   1.915   4.858 -0.2463 -0.2812 -0.6008
13588TIP3    H162179   3.262   1.965   4.889  0.1913 -1.5923  0.5491
13588TIP3    H262180   3.179   1.938   4.766  0.2022  1.5445 -0.2136
13589TIP3   OH262181   3.060   1.375   0.292  0.0780 -0.0021  0.1563
13589TIP3    H162182   2.997   1.303   0.296 -0.1066  0.2027  2.3454
13589TIP3    H262183   3.007   1.454   0.291  0.3037  0.1563 -0.7177
13590TIP3   OH262184   0.910   4.609  12.491 -0.1038  0.0294  0.3491
13590TIP3    H162185   0.834   4.567  12.530 -0.5999 -0.9011 -1.4800
13590TIP3    H262186   0.878   4.694  12.461  0.0391  0.3516  1.0862
13591TIP3   OH262187   4.021   3.939  15.926 -0.4314  0.4921 -0.0752
13591TIP3    H162188   3.967   3.957  15.849  0.3528 -0.7008 -0.9276
13591TIP3    H262189   4.057   3.852  15.911  0.3649  0.5523  1.2884
13592TIP3   OH262190   0.473   6.148  16.840 -0.2179  0.1289  0.4856
13592TIP3    H162191   0.493   6.238  16.866  0.4937 -0.1717  1.0136
13592TIP3    H262192   0.414   6.116  16.909 -1.9644  0.7510 -0.6441
13593TIP3   OH262193   0.138   5.500   2.810  0.0996  0.2341 -0.6681
13593TIP3    H162194   0.127   5.523   2.903 -0.1316  1.4805 -0.9806
13593TIP3    H262195   0.079   5.560   2.764 -0.2787 -0.8044 -1.5870
13594TIP3   OH262196   5.266   2.620  11.631  0.2028  0.3275  0.0952
13594TIP3    H162197   5.321   2.697  11.642 -0.2474  0.6334  0.2666
13594TIP3    H262198   5.226   2.606  11.717  0.5683 -0.3237  0.1622
13595TIP3   OH262199   6.487   3.400   3.007  0.1712 -0.7107 -0.3004
13595TIP3    H162200   6.469   3.405   2.913  1.7448 -0.8099 -0.6340
13595TIP3    H262201   6.425   3.334   3.039 -0.4033 -0.6649 -1.2480
13596TIP3   OH262202   6.268   0.292  11.879 -0.0435  0.2238 -0.0009
13596TIP3    H162203   6.197   0.288  11.815  0.6463  2.5271 -0.9971
13596TIP3    H262204   6.336   0.234  11.843 -0.3448  0.1427 -0.4481
13597TIP3   OH262205   6.283   6.408   2.758 -0.1163  0.3871  0.5025
13597TIP3    H162206   6.255   6.400   2.849  3.2534 -0.8761  1.5947
13597TIP3    H262207   6.378   6.395   2.761  0.2246  0.9119 -3.1521
13598TIP3   OH262208   5.462   5.265  10.768  0.7971 -0.1136 -0.1677
13598TIP3    H162209   5.547   5.292  10.802  0.6146 -0.1873  0.3583
13598TIP3    H262210   5.480   5.235  10.679  1.4701 -0.9869  0.2467
13599TIP3   OH262211   0.153   5.837  17.001  0.6951 -0.0178 -0.2709
13599TIP3    H162212   0.062   5.862  16.983  0.6724  1.5071  1.6203
13599TIP3    H262213   0.150   5.742  17.014 -0.4527 -0.1159 -1.1111
13600TIP3   OH262214   2.973   3.086  14.582 -0.4236  0.0476  0.5877
13600TIP3    H162215   3.052   3.131  14.552  0.8878 -2.3731  0.1727
13600TIP3    H262216   2.942   3.138  14.655  0.7711  1.8026 -0.0904
13601TIP3   OH262217   4.173   6.333  11.747 -0.2030 -0.2842 -0.1805
13601TIP3    H162218   4.185   6.333  11.843 -1.8242 -0.0359  0.0422
13601TIP3    H262219   4.255   6.297  11.714  0.2475 -0.7668  1.3327
13602TIP3   OH262220   1.144   3.304  12.094 -0.0092 -0.3797 -0.3535
13602TIP3    H162221   1.103   3.318  12.009  0.2176 -1.3131 -0.6320
13602TIP3    H262222   1.084   3.247  12.141  0.5171 -0.9955 -0.4158
13603TIP3   OH262223   6.554   5.712   5.382 -0.5048 -0.7740  0.0800
13603TIP3    H162224   6.612   5.771   5.429 -1.3142 -0.9986  1.4000
13603TIP3    H262225   6.563   5.628   5.428 -1.6976 -0.8660  0.1676
13604TIP3   OH262226   2.062   1.876  14.695 -1.0605 -1.0802  0.0007
13604TIP3    H162227   2.077   1.967  14.672  2.3602 -1.2245  1.0575
13604TIP3    H262228   1.976   1.875  14.738 -1.9821  1.2562 -1.6150
13605TIP3   OH262229   5.359   1.180   0.746 -0.4136 -0.3560 -0.0298
13605TIP3    H162230   5.352   1.238   0.670 -1.9280 -0.0151  0.3343
13605TIP3    H262231   5.427   1.220   0.800 -1.4184  1.1468  0.2169
13606TIP3   OH262232   3.204   4.473  12.630 -0.3722 -0.5014  0.0162
13606TIP3    H162233   3.123   4.427  12.653 -0.1979 -0.8534 -0.0732
13606TIP3    H262234   3.243   4.497  12.714 -1.0566  0.5367  0.0588
13607TIP3   OH262235   0.517   3.019  11.692  0.4657 -0.1874 -0.5972
13607TIP3    H162236   0.474   2.984  11.614  0.8103 -0.4611 -0.6651
13607TIP3    H262237   0.599   3.056  11.660 -0.4696  1.9337 -0.7537
13608TIP3   OH262238   0.612   4.683   3.546  0.1569  0.1910  0.3671
13608TIP3    H162239   0.569   4.602   3.575  0.8642  0.4942  2.4502
13608TIP3    H262240   0.691   4.653   3.502 -1.9579 -0.3766 -3.5212
13609TIP3   OH262241   6.671   0.571  13.142  0.2652  0.1086 -0.2611
13609TIP3    H162242   6.632   0.655  13.164  0.9887  0.2113  0.6956
13609TIP3    H262243   6.631   0.509  13.202  1.7294  0.2686  0.9526
13610TIP3   OH262244   5.408   3.221   5.450 -0.3163  0.9303  0.5827
13610TIP3    H162245   5.483   3.224   5.390 -0.2278  3.1446  0.7098
13610TIP3    H262246   5.447   3.224   5.537 -0.4691 -1.6597  0.8019
13611TIP3   OH262247   5.259   0.102  11.252 -0.3447 -0.4937  0.1738
13611TIP3    H162248   5.257   0.186  11.205  0.0848 -1.1699 -1.0802
13611TIP3    H262249   5.285   0.038  11.186  3.0296 -1.1026  1.8756
13612TIP3   OH262250   0.939   2.900  16.484  1.0813  0.1884 -0.2685
13612TIP3    H162251   0.986   2.868  16.407  1.0103  0.0467 -0.2541
13612TIP3    H262252   0.888   2.824  16.514  0.9663  0.2944 -0.1908
13613TIP3   OH262253   5.595   3.895   0.834 -0.1685  0.4699  0.1494
13613TIP3    H162254   5.579   3.970   0.776  1.4474 -0.1855 -1.2058
13613TIP3    H262255   5.545   3.823   0.794 -0.0903  0.3271  0.3116
13614TIP3   OH262256   0.813   3.003  14.814  0.3356  0.1296 -0.2055
13614TIP3    H162257   0.805   2.988  14.909  0.0050  0.8931 -0.1132
13614TIP3    H262258   0.907   3.015  14.800  0.6686 -2.0362 -0.2995
13615TIP3   OH262259   1.680   2.910   5.146 -0.5868  0.1570 -0.9103
13615TIP3    H162260   1.662   2.846   5.215 -3.2403 -1.4142 -2.8375
13615TIP3    H262261   1.715   2.986   5.192  1.0545 -1.9968  1.7059
13616TIP3   OH262262   6.050   3.776   1.411 -0.7079 -0.7345 -0.0188
13616TIP3    H162263   6.122   3.793   1.472 -0.0514  0.4030 -1.0646
13616TIP3    H262264   5.991   3.850   1.424 -0.2831 -0.1783 -1.1298
13617TIP3   OH262265   6.287   0.047   2.846 -0.0956 -0.0272 -0.1999
13617TIP3    H162266   6.260   0.128   2.889 -0.5704  0.9239 -2.1598
13617TIP3    H262267   6.382   0.055   2.838 -0.2276  0.7832 -1.1618
13618TIP3   OH262268   4.077   5.784  12.761 -0.3036  0.1397 -0.7797
13618TIP3    H162269   3.993   5.811  12.726 -0.9856  0.9064  1.3059
13618TIP3    H262270   4.062   5.695  12.793 -0.6333  0.6108  0.4400
13619TIP3   OH262271   1.059   2.109   1.015 -0.4427  0.7193 -0.2631
13619TIP3    H162272   1.084   2.019   1.033  0.4160  0.8350 -0.8265
13619TIP3    H262273   1.051   2.149   1.102 -0.7553  0.1322 -0.0143
13620TIP3   OH262274   6.031   0.408  15.693  0.5403  0.2378  0.0313
13620TIP3    H162275   6.045   0.435  15.783  1.2354 -0.8990  0.2833
13620TIP3    H262276   5.950   0.357  15.695  0.1282  0.8808 -0.1379
13621TIP3   OH262277   0.413   0.832   0.748 -0.5231  0.0353  0.5315
13621TIP3    H162278   0.466   0.876   0.682  0.6310 -1.5775  0.3290
13621TIP3    H262279   0.388   0.901   0.809  2.0393  0.8483  0.7836
13622TIP3   OH262280   3.624   4.465  15.671 -0.1372 -0.1501  0.0484
13622TIP3    H162281   3.637   4.446  15.577 -1.4938 -2.1063  0.1911
13622TIP3    H262282   3.699   4.422  15.713  0.4660  0.7164 -0.1186
13623TIP3   OH262283   2.213   6.663   4.492  0.0809  0.1595 -0.6763
13623TIP3    H162284   2.205   6.756   4.468 -0.3538 -0.2886 -2.4123
13623TIP3    H262285   2.292   6.633   4.449  0.5845 -0.1515  0.4199
13624TIP3   OH262286   1.812   4.023   2.322  0.8366 -0.2636 -0.2900
13624TIP3    H162287   1.731   3.974   2.334  0.5412  0.7100  2.2097
13624TIP3    H262288   1.881   3.964   2.354  0.8144 -0.1449 -0.0208
13625TIP3   OH262289   5.595   0.203   0.698  0.3303  0.5358 -0.0041
13625TIP3    H162290   5.609   0.262   0.772  0.6446 -0.8502  1.1005
13625TIP3    H262291   5.679   0.200   0.653  0.9367 -0.5874  1.1349
13626TIP3   OH262292   0.810   3.132  11.274  0.2468  0.6583 -0.0954
13626TIP3    H162293   0.837   3.223  11.283 -0.0218  0.5862  1.7158
13626TIP3    H262294   0.890   3.086  11.246  0.2093  1.5139 -1.7666
13627TIP3   OH262295   2.869   0.068  17.349  0.1038 -0.4071 -0.0826
13627TIP3    H162296   2.905  -0.006  17.397 -0.8350 -0.8345 -0.0248
13627TIP3    H262297   2.811   0.029  17.283 -0.3324  0.2664 -0.1082
13628TIP3   OH262298   1.224   3.391  11.803 -0.0657  0.1959 -0.1509
13628TIP3    H162299   1.227   3.359  11.714  0.5069  1.4616 -0.6143
13628TIP3    H262300   1.193   3.482  11.795 -4.3114 -0.8482  1.2935
13629TIP3   OH262301   3.525   6.567  12.423  0.6145  0.0259 -0.4509
13629TIP3    H162302   3.594   6.603  12.478 -0.4021  0.2329  0.7412
13629TIP3    H262303   3.570   6.532  12.347  2.1853 -1.0954  0.9361
13630TIP3   OH262304   5.400   6.134  15.893 -0.2045 -0.4382 -0.3143
13630TIP3    H162305   5.422   6.119  15.984  1.5552  0.6102 -0.5131
13630TIP3    H262306   5.313   6.174  15.895 -0.9507 -2.0060  0.7393
13631TIP3   OH262307   4.976   4.481   3.986 -0.7322  0.6779 -0.1554
13631TIP3    H162308   4.888   4.451   4.010 -0.6552  0.0411 -0.6620
13631TIP3    H262309   4.975   4.484   3.890  0.5159 -1.5746 -0.2984
13632TIP3   OH262310   5.401   2.849  13.066  0.3458  0.5544  0.7121
13632TIP3    H162311   5.425   2.779  13.004  0.0884  0.1265  1.0864
13632TIP3    H262312   5.446   2.927  13.033  0.4128  0.2734  0.1307
13633TIP3   OH262313   1.743   5.211  16.140  0.2346  0.4280  0.5374
13633TIP3    H162314   1.730   5.261  16.221  2.8039  1.2194  0.5464
13633TIP3    H262315   1.749   5.120  16.168  1.7119  0.7545  1.3623
13634TIP3   OH262316   2.655   0.977  15.057  0.6403 -0.3379  0.6821
13634TIP3    H162317   2.675   0.890  15.023  0.0800  0.5333 -2.2190
13634TIP3    H262318   2.577   0.964  15.111  0.2168 -1.5598 -0.1713
13635TIP3   OH262319   1.098   1.590   3.777 -0.0742 -0.3307  0.5359
13635TIP3    H162320   1.034   1.518   3.769 -0.9158  0.4936 -0.6264
13635TIP3    H262321   1.166   1.555   3.834 -0.6749 -1.9008  0.3649
13636TIP3   OH262322   1.362   1.635  16.800 -0.1425 -0.4217  0.3386
13636TIP3    H162323   1.416   1.657  16.876 -0.2251 -1.9545  0.8848
13636TIP3    H262324   1.415   1.574  16.749 -0.1261  0.5175 -0.8271
13637TIP3   OH262325   6.547   3.788   4.277 -0.0399  0.4801  0.5281
13637TIP3    H162326   6.489   3.818   4.348  0.3538  0.9091  0.6734
13637TIP3    H262327   6.521   3.697   4.262 -2.5217  1.3399 -1.1686
13638TIP3   OH262328   4.573   2.070  16.606 -0.0297 -0.0635 -0.1015
13638TIP3    H162329   4.625   2.024  16.540 -0.7451  0.6570 -1.1922
13638TIP3    H262330   4.526   2.000  16.652  1.7989 -0.7320  0.8702
13639TIP3   OH262331   4.033   1.691   3.206  0.0339  0.2475  0.6338
13639TIP3    H162332   3.939   1.679   3.218 -0.3944  1.9970 -0.5509
13639TIP3    H262333   4.043   1.701   3.111  1.3225  0.7729  0.8130
13640TIP3   OH262334   0.253   4.098   3.315 -0.8908  0.2663  0.1936
13640TIP3    H162335   0.291   4.141   3.239 -2.7083  0.9455 -0.3815
13640TIP3    H262336   0.198   4.165   3.356 -0.0718 -0.1285  2.0376
13641TIP3   OH262337   1.524   3.776  16.769 -0.3917  0.0407 -0.3576
13641TIP3    H162338   1.554   3.806  16.855 -0.0295  1.3635 -0.9109
13641TIP3    H262339   1.563   3.690  16.758  1.2749  0.7159 -0.0439
13642TIP3   OH262340   0.985   4.751  15.619  0.0377  0.4553  0.1311
13642TIP3    H162341   0.963   4.754  15.525  0.4022  0.1546  0.0323
13642TIP3    H262342   0.998   4.842  15.643  0.4275  0.5016 -0.2342
13643TIP3   OH262343   1.950   1.564  15.141  0.0161 -0.6326 -0.1816
13643TIP3    H162344   1.913   1.519  15.217  0.4055  0.4198  0.6495
13643TIP3    H262345   2.044   1.568  15.159  0.2872 -1.4074 -1.2839
13644TIP3   OH262346   0.980   3.913  14.624 -0.0762  0.7934 -0.3220
13644TIP3    H162347   0.996   3.821  14.606  0.3850  0.3602  1.9247
13644TIP3    H262348   0.920   3.913  14.699 -1.4628  2.3539 -1.3678
13645TIP3   OH262349   5.985   0.332   6.120 -0.0951  0.2731 -0.4773
13645TIP3    H162350   6.049   0.386   6.073 -0.8997  0.1333 -1.7834
13645TIP3    H262351   5.902   0.351   6.078 -1.0046  0.7189  1.4315
13646TIP3   OH262352   5.216   0.130  11.873 -0.0726  0.4951 -0.0333
13646TIP3    H162353   5.233   0.218  11.838  2.7364  0.2961  0.5707
13646TIP3    H262354   5.195   0.078  11.795 -0.1689  1.3651 -0.6090
13647TIP3   OH262355   2.381   2.634   0.012  0.4173  0.1026  0.0146
13647TIP3    H162356   2.452   2.595   0.063  0.4522  0.0336 -0.0883
13647TIP3    H262357   2.313   2.653   0.077  0.2008 -0.5813 -0.0120
13648TIP3   OH262358   0.011   2.695   3.674 -0.4417  0.3784 -0.2934
13648TIP3    H162359   0.075   2.756   3.712  1.6054 -1.6747 -0.2464
13648TIP3    H262360   0.053   2.664   3.594 -0.8961 -1.8133  0.2748
13649TIP3   OH262361   1.193   4.698  17.223  0.2529 -0.3997 -0.1494
13649TIP3    H162362   1.232   4.676  17.308 -0.9539  0.4238  0.6575
13649TIP3    H262363   1.099   4.702  17.241  0.0594  0.7577 -1.3039
13650TIP3   OH262364   0.283   6.009  17.372 -0.1180  0.2999 -0.1645
13650TIP3    H162365   0.199   5.982  17.333 -0.0178 -0.9358  0.4316
13650TIP3    H262366   0.260   6.082  17.429 -0.7712  0.0728 -0.1278
13651TIP3   OH262367   0.582   2.808  15.494  0.3133 -0.5049  0.0857
13651TIP3    H162368   0.491   2.830  15.511  0.8741 -0.2873  3.6636
13651TIP3    H262369   0.624   2.891  15.472  0.0619 -0.1474  0.9145
13652TIP3   OH262370   3.681   6.471   6.081  0.0381 -0.4144 -0.3967
13652TIP3    H162371   3.605   6.466   6.022 -0.5624 -0.9723  0.4003
13652TIP3    H262372   3.650   6.434   6.163  0.1908  2.3266  1.0086
13653TIP3   OH262373   5.630   2.805  11.758 -0.3520 -0.1689 -0.0431
13653TIP3    H162374   5.669   2.763  11.835  1.6238  0.0474 -0.8704
13653TIP3    H262375   5.594   2.734  11.706  1.6762 -0.7537 -0.7266
13654TIP3   OH262376   3.852   3.323   0.658  0.3196  0.1162  0.0842
13654TIP3    H162377   3.912   3.252   0.679  0.4104  0.4216  0.8875
13654TIP3    H262378   3.796   3.331   0.736 -0.8946 -0.2954 -0.7206
13655TIP3   OH262379   1.445   1.710  14.315  0.3066 -0.2229 -0.3908
13655TIP3    H162380   1.485   1.757  14.242  2.4678 -0.7332  0.3990
13655TIP3    H262381   1.513   1.707  14.382 -1.6534  0.3992  1.7590
13656TIP3   OH262382   2.278   1.417  12.740 -0.2342  0.6607  0.5159
13656TIP3    H162383   2.255   1.333  12.702  0.8143  0.7846 -0.4653
13656TIP3    H262384   2.336   1.396  12.813 -0.9454  0.4934  1.0450
13657TIP3   OH262385   3.717   1.773  12.399  0.8246 -0.1905 -0.6227
13657TIP3    H162386   3.697   1.813  12.484 -2.3776 -0.0768 -1.2866
13657TIP3    H262387   3.763   1.841  12.351 -0.3708  1.0240 -0.1178
13658TIP3   OH262388   3.725   0.842   3.498  0.1099 -0.2678  0.1939
13658TIP3    H162389   3.745   0.786   3.424 -0.4671 -0.0848 -0.1102
13658TIP3    H262390   3.692   0.923   3.459 -1.4701 -0.6570  0.6409
13659TIP3   OH262391   1.289   3.647   0.219  0.0617 -0.3927  0.2059
13659TIP3    H162392   1.377   3.684   0.218 -0.0236 -0.1958 -0.4869
13659TIP3    H262393   1.233   3.718   0.187 -0.2221 -0.8283 -0.2736
13660TIP3   OH262394   3.555   2.442  15.408 -0.0850  0.4656  0.5611
13660TIP3    H162395   3.617   2.373  15.383 -1.3915 -0.6613  0.3483
13660TIP3    H262396   3.524   2.416  15.494 -1.6924 -0.0124 -0.1419
13661TIP3   OH262397   4.409   0.850   5.672 -0.2678 -0.1085  0.0317
13661TIP3    H162398   4.487   0.835   5.725 -1.0929 -0.5569  1.1659
13661TIP3    H262399   4.400   0.946   5.669  0.5084 -0.0436 -0.4038
13662TIP3   OH262400   5.488   6.563   5.037  0.5001 -0.2340  0.0428
13662TIP3    H162401   5.405   6.603   5.061  0.2886 -0.5025 -0.2320
13662TIP3    H262402   5.491   6.570   4.941  0.7925 -0.2263  0.0518
13663TIP3   OH262403   6.490   1.630  16.949  0.2880 -1.0866 -0.0946
13663TIP3    H162404   6.468   1.575  16.874  0.5791 -1.0409 -0.2156
13663TIP3    H262405   6.553   1.579  16.999  0.9926 -0.6541 -0.5016
13664TIP3   OH262406   2.447   2.225  14.835 -0.4655 -0.3518  0.2035
13664TIP3    H162407   2.425   2.133  14.821 -0.3299 -0.4289  0.4819
13664TIP3    H262408   2.503   2.224  14.913 -0.2901 -0.0563  0.0816
13665TIP3   OH262409   0.421   3.319  11.267  0.0835  0.4079  0.0434
13665TIP3    H162410   0.373   3.402  11.273 -0.6050  0.0722 -0.5712
13665TIP3    H262411   0.443   3.298  11.357  1.8831  2.1603  0.0811
13666TIP3   OH262412   6.005   2.115   1.842  0.3098  0.2292  0.5230
13666TIP3    H162413   5.977   2.053   1.773  0.5047  1.8532 -1.0931
13666TIP3    H262414   5.958   2.195   1.821  1.0246  1.0032  1.8275
13667TIP3   OH262415   5.729   0.622  15.609 -0.4711  0.1382 -0.2450
13667TIP3    H162416   5.768   0.690  15.664  1.2628 -0.4521 -0.6721
13667TIP3    H262417   5.637   0.619  15.636 -0.0685  1.0720  1.3862
13668TIP3   OH262418   3.859   1.172   5.598 -0.1452  0.1880 -0.1982
13668TIP3    H162419   3.897   1.130   5.675 -0.4900  0.9198  0.3858
13668TIP3    H262420   3.772   1.201   5.627 -0.9740 -1.0103 -1.3522
13669TIP3   OH262421   0.149   1.065   4.420 -0.1188 -0.2141 -0.6351
13669TIP3    H162422   0.171   0.976   4.392 -1.2695 -0.3929 -1.0248
13669TIP3    H262423   0.155   1.062   4.515  1.0287 -0.3751 -0.6968
13670TIP3   OH262424   0.232   5.232  16.089  0.3063  0.0215  0.0298
13670TIP3    H162425   0.279   5.154  16.058 -3.4527 -1.8992 -1.4590
13670TIP3    H262426   0.170   5.199  16.154 -0.5175  1.9990  0.3142
13671TIP3   OH262427   4.899   3.222   4.437  0.2156  0.6555  0.1624
13671TIP3    H162428   4.993   3.210   4.456 -0.0162 -0.2982  0.7939
13671TIP3    H262429   4.863   3.258   4.518 -0.0451  0.5734  0.0838
13672TIP3   OH262430   1.524   5.025  17.304 -0.1324  0.0464  0.3026
13672TIP3    H162431   1.607   4.997  17.344 -0.9131  0.6377  2.4839
13672TIP3    H262432   1.457   4.992  17.364 -1.3934  0.8782 -0.6248
13673TIP3   OH262433   2.781   2.503   1.166 -0.2090 -0.1727 -0.0714
13673TIP3    H162434   2.749   2.422   1.127 -0.7681 -0.2858  0.6245
13673TIP3    H262435   2.858   2.477   1.216 -0.2854 -0.2382  0.0097
13674TIP3   OH262436   3.324   6.333   3.329 -0.0346 -0.1112  0.4711
13674TIP3    H162437   3.290   6.293   3.249 -0.8592  1.5683 -0.0548
13674TIP3    H262438   3.255   6.317   3.394  0.0624 -0.3495  0.5182
13675TIP3   OH262439   1.485   4.627  17.091 -0.1006  0.2482 -0.1447
13675TIP3    H162440   1.421   4.697  17.077 -0.3370  0.5177  1.9215
13675TIP3    H262441   1.465   4.562  17.024 -1.6511  0.9521 -0.4042
13676TIP3   OH262442   6.480   1.162  15.565 -0.4806  0.2136 -0.0800
13676TIP3    H162443   6.465   1.256  15.553  0.5866  0.3454 -0.4840
13676TIP3    H262444   6.392   1.124  15.562 -0.8242  1.0234 -1.4741
13677TIP3   OH262445   6.574   3.678  13.568  0.1779  0.0199  0.2927
13677TIP3    H162446   6.504   3.711  13.625 -1.6412 -4.1593  0.8495
13677TIP3    H262447   6.530   3.659  13.485  0.7256 -1.9821  0.4065
13678TIP3   OH262448   3.935   0.325   4.605 -0.1984  0.3183 -0.0768
13678TIP3    H162449   4.014   0.319   4.551  0.6271  0.3711  1.0854
13678TIP3    H262450   3.863   0.307   4.545  0.5736  1.7675 -1.5063
13679TIP3   OH262451   5.642   4.170   4.580  0.8256 -0.0789 -0.1696
13679TIP3    H162452   5.558   4.126   4.572 -0.4592  2.2403 -0.4439
13679TIP3    H262453   5.700   4.125   4.518 -0.3396 -1.4058 -0.3244
13680TIP3   OH262454   1.899   0.539   3.984  0.3006  0.3641  0.2848
13680TIP3    H162455   1.821   0.537   4.040  0.3446  0.4902  0.3505
13680TIP3    H262456   1.970   0.560   4.044  0.6015 -1.0861  0.4817
13681TIP3   OH262457   3.259   2.839  12.466  0.3812  0.1769 -0.7992
13681TIP3    H162458   3.233   2.853  12.375  1.2525 -0.4151 -1.1530
13681TIP3    H262459   3.202   2.769  12.497 -1.0119  1.4281 -0.3630
13682TIP3   OH262460   5.838   5.986   6.305 -0.8064 -0.0397  0.4866
13682TIP3    H162461   5.823   5.893   6.293 -0.3356 -0.2940  1.7846
13682TIP3    H262462   5.824   6.024   6.218 -0.6441 -1.3611 -0.1320
13683TIP3   OH262463   5.946   4.599   3.611  0.3198  0.0350  0.2706
13683TIP3    H162464   5.962   4.673   3.670  0.4089 -0.7522  1.2569
13683TIP3    H262465   5.906   4.532   3.666  0.0745 -0.6007 -0.6470
13684TIP3   OH262466   5.805   5.354   1.829  0.0235  0.2456 -0.1403
13684TIP3    H162467   5.720   5.385   1.861  0.7708  2.2419  0.0839
13684TIP3    H262468   5.826   5.280   1.886 -2.3416 -1.5400 -1.3770
13685TIP3   OH262469   1.655   6.206  13.454 -0.1842  0.1630 -0.2545
13685TIP3    H162470   1.748   6.223  13.466  0.0261  0.0894 -1.5897
13685TIP3    H262471   1.614   6.293  13.457  0.0071  0.2528 -0.2600
13686TIP3   OH262472   4.804   4.976   3.324  0.1966 -0.3452 -0.5872
13686TIP3    H162473   4.808   5.061   3.282 -0.4045 -0.5279 -1.0417
13686TIP3    H262474   4.882   4.930   3.294 -0.0575 -0.3542 -1.2636
13687TIP3   OH262475   5.396   4.918  14.721  0.1170  0.1066 -0.0309
13687TIP3    H162476   5.426   4.913  14.631  2.4379 -2.3315  0.7765
13687TIP3    H262477   5.327   4.852  14.728  0.0729  0.1598  0.0549
13688TIP3   OH262478   5.574   3.249  14.817  0.3963 -0.0104  0.2090
13688TIP3    H162479   5.533   3.332  14.792 -0.0840 -0.4478 -0.5122
13688TIP3    H262480   5.667   3.261  14.798  0.2828  0.2592 -0.1783
13689TIP3   OH262481   5.888   1.821  13.678  0.2694  0.3352 -0.5309
13689TIP3    H162482   5.939   1.782  13.748  0.0143  0.7041 -0.1379
13689TIP3    H262483   5.926   1.784  13.598  2.1400  1.6845 -0.3529
13690TIP3   OH262484   4.697   1.392  15.895  0.6693  0.6196  0.0330
13690TIP3    H162485   4.670   1.431  15.811  1.8198  2.5598  0.4732
13690TIP3    H262486   4.641   1.434  15.960 -0.3159 -0.9880  0.2546
13691TIP3   OH262487   4.062   5.104   1.042 -0.2143 -0.5136  0.3195
13691TIP3    H162488   3.967   5.100   1.052 -0.4415 -0.2223 -1.3176
13691TIP3    H262489   4.095   5.136   1.126 -1.6358  0.1675  0.6375
13692TIP3   OH262490   1.944   1.297   1.106  0.0380  0.1115 -0.2868
13692TIP3    H162491   1.856   1.331   1.087  0.3396  0.4781 -1.0707
13692TIP3    H262492   2.003   1.358   1.063  0.8252  1.2705  2.2512
13693TIP3   OH262493   0.407   4.400  15.002  0.0885  0.1641  0.4247
13693TIP3    H162494   0.423   4.316  15.044 -0.4403  0.3881  1.1019
13693TIP3    H262495   0.475   4.408  14.936 -0.5519 -1.3013 -0.4332
13694TIP3   OH262496   5.445   2.274   0.941  0.2600 -0.4572 -0.2450
13694TIP3    H162497   5.463   2.315   0.857 -0.9654  0.2273 -0.2070
13694TIP3    H262498   5.471   2.183   0.930  0.5206 -0.2732 -1.2216
13695TIP3   OH262499   6.633   2.717   3.901 -0.4421  0.6909 -0.2234
13695TIP3    H162500   6.695   2.686   3.835 -1.2667  1.5383 -1.4441
13695TIP3    H262501   6.559   2.750   3.851  0.0036  3.8367  0.9596
13696TIP3   OH262502   1.729   4.067  13.924  0.1273  0.3846 -0.4624
13696TIP3    H162503   1.742   3.988  13.976  0.5105 -0.1833 -1.3948
13696TIP3    H262504   1.712   4.036  13.835 -1.4394  1.3110 -0.5281
13697TIP3   OH262505   6.473   3.753   0.347 -0.2809 -0.7277  0.2816
13697TIP3    H162506   6.485   3.829   0.289 -0.9254  0.6955  1.9240
13697TIP3    H262507   6.514   3.681   0.300  0.1039  0.5668 -1.4902
13698TIP3   OH262508   0.751   1.133  14.616 -0.1715  0.1389 -0.2667
13698TIP3    H162509   0.824   1.195  14.621 -1.7742  2.1907 -1.0905
13698TIP3    H262510   0.776   1.063  14.677  1.3400  1.9785  1.3824
13699TIP3   OH262511   5.289   0.697   3.449  0.5191 -0.1446  0.0318
13699TIP3    H162512   5.381   0.701   3.478  0.9008 -1.3149 -0.9462
13699TIP3    H262513   5.295   0.686   3.355 -0.6463 -0.3688 -0.0217
13700TIP3   OH262514   3.870   3.505   0.995  0.0584  0.4598  0.5596
13700TIP3    H162515   3.943   3.514   0.934  0.2820  1.2992  0.9431
13700TIP3    H262516   3.908   3.523   1.081 -0.7367  1.5763  0.6873
13701TIP3   OH262517   2.619   4.995   4.663 -0.2037 -0.3597 -0.0124
13701TIP3    H162518   2.698   4.948   4.691 -0.0780 -0.1338  0.0132
13701TIP3    H262519   2.636   5.087   4.686 -0.8068 -0.4263  0.7437
13702TIP3   OH262520   4.013   0.755   1.260 -0.9957 -0.1052 -0.3857
13702TIP3    H162521   3.958   0.779   1.335 -1.2320  1.6834 -1.0732
13702TIP3    H262522   3.976   0.804   1.187  1.8517  1.7332 -0.7614
13703TIP3   OH262523   6.744   5.185   4.249 -0.5112  0.1915  0.4497
13703TIP3    H162524   6.775   5.253   4.310 -1.4070  1.1288 -0.1071
13703TIP3    H262525   6.821   5.163   4.197 -0.4345  1.5665 -0.0679
13704TIP3   OH262526   3.396   4.359   1.401 -0.2181  0.3739 -0.2815
13704TIP3    H162527   3.473   4.413   1.415  0.6466 -0.5698 -1.2414
13704TIP3    H262528   3.360   4.388   1.318  1.2131 -1.5519 -1.6605
13705TIP3   OH262529   1.176   3.310   5.667  0.1063  0.6662  1.0892
13705TIP3    H162530   1.202   3.292   5.757  0.3099  0.9415  1.0870
13705TIP3    H262531   1.254   3.292   5.615 -0.6606 -1.9018  0.6510
13706TIP3   OH262532   6.280   2.498   5.328 -0.0836 -0.1299  0.3029
13706TIP3    H162533   6.239   2.535   5.406 -0.1419 -0.4007  0.4017
13706TIP3    H262534   6.262   2.562   5.259 -1.2954 -0.5639  0.1852
13707TIP3   OH262535   3.400   0.731   4.678 -0.5436  0.0080 -0.8364
13707TIP3    H162536   3.356   0.812   4.652 -0.3441  0.5713  0.4912
13707TIP3    H262537   3.328   0.669   4.693 -0.7851  0.3520 -0.5421
13708TIP3   OH262538   2.956   4.921   2.591  0.5391 -0.3656  0.0177
13708TIP3    H162539   2.866   4.889   2.580  0.3401  0.0075  0.5145
13708TIP3    H262540   2.981   4.954   2.505  0.3558 -0.8643 -0.2313
13709TIP3   OH262541   3.258   6.313   4.752 -0.1863  0.8051  0.0124
13709TIP3    H162542   3.166   6.327   4.776 -0.3815 -0.7638  0.3053
13709TIP3    H262543   3.291   6.252   4.818  0.5301 -0.1343 -1.1749
13710TIP3   OH262544   3.896   4.118   2.168  0.5721 -0.2395 -0.1339
13710TIP3    H162545   3.973   4.162   2.132 -0.2002  1.6366  0.3869
13710TIP3    H262546   3.826   4.137   2.106 -0.4423  1.8394  1.5143
13711TIP3   OH262547   4.292   3.034  16.552 -0.0043  0.3908  0.4870
13711TIP3    H162548   4.338   2.999  16.475  2.9934  3.0699  0.8401
13711TIP3    H262549   4.333   2.991  16.626 -2.4118 -1.6680  0.7309
13712TIP3   OH262550   3.339   0.507  16.705 -0.1028 -0.4588 -0.0105
13712TIP3    H162551   3.272   0.566  16.740 -1.2218 -1.8060  0.2233
13712TIP3    H262552   3.290   0.433  16.671  1.3139 -2.3226  1.7085
13713TIP3   OH262553   1.607   4.208   5.998  0.0736  0.9330  0.0747
13713TIP3    H162554   1.701   4.196   5.979 -0.2031 -1.2726 -0.1903
13713TIP3    H262555   1.564   4.143   5.943 -1.5320  1.0137  1.1912
13714TIP3   OH262556   2.672   0.627   0.852 -0.1154 -0.5351  0.0626
13714TIP3    H162557   2.679   0.580   0.935 -1.1674 -1.6097 -0.4258
13714TIP3    H262558   2.747   0.596   0.801 -1.2094 -2.3776 -0.5461
13715TIP3   OH262559   5.336   5.803   6.244  0.7411 -0.0843 -0.0012
13715TIP3    H162560   5.398   5.852   6.298  1.9168  0.0508 -1.4321
13715TIP3    H262561   5.342   5.713   6.275  1.3764 -0.0015  0.1248
13716TIP3   OH262562   5.932   3.536   1.381 -0.0676 -0.5938 -0.5036
13716TIP3    H162563   5.985   3.614   1.398 -1.6886  0.5203 -0.3474
13716TIP3    H262564   5.994   3.463   1.388  1.3917  0.6229 -0.1549
13717TIP3   OH262565   1.453   4.420   0.947 -0.7935  0.3526 -0.1565
13717TIP3    H162566   1.532   4.380   0.985 -1.9186  0.3040  2.3605
13717TIP3    H262567   1.464   4.410   0.853  0.8108 -2.3926  0.1929
13718TIP3   OH262568   3.217   0.384  14.693  0.2768 -0.4918  0.5813
13718TIP3    H162569   3.306   0.368  14.661  0.2614 -1.4167  0.9727
13718TIP3    H262570   3.219   0.358  14.785 -0.4808 -0.8211  0.5150
13719TIP3   OH262571   0.193   6.556   5.117  0.4742 -0.1106  0.5595
13719TIP3    H162572   0.125   6.623   5.108  1.4282  0.7135 -1.0492
13719TIP3    H262573   0.153   6.476   5.086 -0.0226  0.1870  0.4272
13720TIP3   OH262574   3.378   4.103  15.224  0.0345  0.5764 -0.4279
13720TIP3    H162575   3.413   4.176  15.274  1.1467  0.1542 -0.5594
13720TIP3    H262576   3.341   4.044  15.290  1.2459  0.1534 -0.1049
13721TIP3   OH262577   5.623   4.318  16.498 -0.0794 -0.2240 -0.5558
13721TIP3    H162578   5.542   4.274  16.471 -0.0891  0.9650 -2.6378
13721TIP3    H262579   5.619   4.404  16.456  1.3202  0.6658  1.0049
13722TIP3   OH262580   5.697   1.628   2.274  0.4263  0.4414  0.2114
13722TIP3    H162581   5.782   1.666   2.294 -0.3029  1.8879  0.7022
13722TIP3    H262582   5.646   1.637   2.354 -0.8155  1.4528 -0.6274
13723TIP3   OH262583   3.338   2.477   5.542 -0.0486  0.5756 -0.5699
13723TIP3    H162584   3.382   2.402   5.501 -0.2006  0.6886 -0.9371
13723TIP3    H262585   3.409   2.539   5.559  0.2437 -0.0489  0.6550
13724TIP3   OH262586   3.645   0.232   6.245 -0.6419  0.0191  0.2570
13724TIP3    H162587   3.668   0.160   6.186 -2.9148 -1.0505  0.5728
13724TIP3    H262588   3.705   0.221   6.319  1.4421  0.6659 -1.2417
13725TIP3   OH262589   4.430   3.638  14.496  0.6550  0.4965 -0.2129
13725TIP3    H162590   4.351   3.693  14.487 -0.2739 -0.9672 -1.5310
13725TIP3    H262591   4.488   3.690  14.551  0.2064  3.2165 -2.0673
13726TIP3   OH262592   0.801   5.403  14.543 -0.4757  0.5844  0.3507
13726TIP3    H162593   0.785   5.359  14.460 -0.2250  2.7794 -0.9493
13726TIP3    H262594   0.733   5.371  14.602 -0.3915 -1.3435 -0.5226
13727TIP3   OH262595   1.880   0.743  12.631  0.1156  0.2923  0.7205
13727TIP3    H162596   1.882   0.807  12.702 -0.8440  0.9287  0.1930
13727TIP3    H262597   1.822   0.674  12.663  0.3604  0.1627  0.8896
13728TIP3   OH262598   0.287   2.768  15.421 -0.2396 -0.4131 -0.3443
13728TIP3    H162599   0.310   2.761  15.328 -0.4845 -0.7209 -0.3855
13728TIP3    H262600   0.191   2.769  15.422 -0.2431  1.5144 -0.2163
13729TIP3   OH262601   2.862   2.284   4.701  0.1688 -0.1097  0.2043
13729TIP3    H162602   2.950   2.320   4.703 -0.3384  1.2324 -0.5952
13729TIP3    H262603   2.872   2.198   4.659  0.8956  0.7048 -1.3774
13730TIP3   OH262604   2.001   5.513  15.023 -0.1524  0.2480 -0.4697
13730TIP3    H162605   2.051   5.509  15.105  1.4839 -0.3542 -1.4291
13730TIP3    H262606   2.034   5.591  14.979 -0.2965  0.0346 -0.9651
13731TIP3   OH262607   5.991   1.865  17.026  0.4058  1.1354 -0.2099
13731TIP3    H162608   6.084   1.882  17.016  1.1030 -0.8635  1.9748
13731TIP3    H262609   5.983   1.770  17.020 -1.3935  1.2015  0.4109
13732TIP3   OH262610   1.654   0.651   6.246 -0.4365 -0.4673 -0.2227
13732TIP3    H162611   1.559   0.659   6.233 -0.6293  1.6774  1.8029
13732TIP3    H262612   1.692   0.679   6.162 -1.5352 -2.2807 -1.3937
13733TIP3   OH262613   4.838   5.588   6.045  0.2687 -0.3809  0.3119
13733TIP3    H162614   4.852   5.681   6.027  0.3748 -0.4595 -0.0081
13733TIP3    H262615   4.921   5.546   6.025 -0.1652 -0.7326 -0.8246
13734TIP3   OH262616   5.427   2.502   5.495 -0.3562  0.5556  0.6833
13734TIP3    H162617   5.427   2.412   5.528 -1.6762  1.7916  4.5715
13734TIP3    H262618   5.499   2.545   5.541 -1.2012  2.0343  0.6848
13735TIP3   OH262619   2.767   4.717  16.411 -0.0539  0.8187  0.1225
13735TIP3    H162620   2.843   4.660  16.396 -1.4474 -1.2333  0.4510
13735TIP3    H262621   2.790   4.766  16.490  0.6533 -0.3485  0.6799
13736TIP3   OH262622   5.341   6.177  11.218 -0.0577 -0.1438 -0.2354
13736TIP3    H162623   5.249   6.181  11.190  0.1428  2.2812 -0.7883
13736TIP3    H262624   5.391   6.184  11.137  0.5696  1.0682  0.2285
13737TIP3   OH262625   2.229   5.063  12.429  0.3079  0.4600 -0.5106
13737TIP3    H162626   2.171   5.063  12.352  1.1246  0.6410 -1.1420
13737TIP3    H262627   2.177   5.106  12.497 -0.6850 -0.3031 -0.7546
13738TIP3   OH262628   6.594   5.691  15.877  0.0699  0.1862 -0.0780
13738TIP3    H162629   6.565   5.599  15.874  1.7674 -0.3816 -2.2849
13738TIP3    H262630   6.563   5.728  15.794  1.5697  0.8398 -0.3807
13739TIP3   OH262631   3.905   1.541  17.361  0.1355 -0.1232  0.1897
13739TIP3    H162632   3.858   1.527  17.279  1.8928 -2.5447 -0.5073
13739TIP3    H262633   3.969   1.609  17.340  0.8351 -0.9965 -0.6204
13740TIP3   OH262634   5.680   0.043  11.037  0.4508  0.1568  0.0813
13740TIP3    H162635   5.654   0.012  11.124  0.4102  0.2733  0.1100
13740TIP3    H262636   5.613   0.009  10.979  0.8961 -0.5955 -0.0183
13741TIP3   OH262637   5.406   0.958   4.359 -0.4172 -0.2530 -0.1830
13741TIP3    H162638   5.378   1.049   4.354 -0.2451 -0.2496 -1.5086
13741TIP3    H262639   5.453   0.952   4.442 -0.2272  0.9280 -0.1887
13742TIP3   OH262640   0.312   0.605  15.318  0.0024 -0.3315  0.9690
13742TIP3    H162641   0.247   0.579  15.253  0.1901  1.6732 -0.0916
13742TIP3    H262642   0.263   0.659  15.381  0.3427 -0.0650  1.0087
13743TIP3   OH262643   2.213   0.732  11.708  0.5234  0.2994 -0.1231
13743TIP3    H162644   2.172   0.718  11.623  1.6148 -0.6208 -0.5173
13743TIP3    H262645   2.142   0.763  11.764 -0.5388 -0.5040 -0.9836
13744TIP3   OH262646   2.590   6.083   5.932  0.6964 -0.2966  0.0992
13744TIP3    H162647   2.521   6.070   5.997  0.2192  0.6644 -0.1954
13744TIP3    H262648   2.666   6.109   5.983  0.3874  0.2358  0.2932
13745TIP3   OH262649   2.390   3.111   3.508  0.3378  0.1927  0.0401
13745TIP3    H162650   2.317   3.063   3.467 -0.1023  0.7164  0.2060
13745TIP3    H262651   2.383   3.091   3.601  0.8577 -0.3533 -0.0340
13746TIP3   OH262652   3.546   2.260   4.212  0.0052 -0.1625  0.3460
13746TIP3    H162653   3.462   2.252   4.168 -0.9451  0.3613  1.9642
13746TIP3    H262654   3.610   2.266   4.141 -1.2509 -1.0993 -0.9174
13747TIP3   OH262655   5.825   6.133  12.524 -0.1211  0.2303 -1.1710
13747TIP3    H162656   5.898   6.175  12.570 -0.8571 -1.0364  1.3208
13747TIP3    H262657   5.867   6.075  12.460  1.0222  0.4883 -0.6740
13748TIP3   OH262658   5.704   4.716   5.354  0.0715 -0.0715 -0.2009
13748TIP3    H162659   5.754   4.667   5.289 -0.4784 -0.4238 -0.3647
13748TIP3    H262660   5.626   4.745   5.307 -0.6213 -0.8330  0.4538
13749TIP3   OH262661   1.599   2.008   2.957  0.5382 -0.2854  0.2802
13749TIP3    H162662   1.611   1.937   2.893 -0.6586 -0.5845  0.3559
13749TIP3    H262663   1.504   2.019   2.962  0.6338  0.1193  1.5863
13750TIP3   OH262664   4.170   5.499   5.171 -0.0296 -0.5240  0.3752
13750TIP3    H162665   4.100   5.439   5.196  0.6921 -1.1857  0.8516
13750TIP3    H262666   4.245   5.443   5.154  0.5403  0.2136  0.4169
13751TIP3   OH262667   1.121   0.804   0.900  0.2021 -0.3182  0.6477
13751TIP3    H162668   1.196   0.862   0.886 -0.5765  0.6204  0.2031
13751TIP3    H262669   1.159   0.722   0.931  1.4760 -0.1622 -0.4149
13752TIP3   OH262670   3.689   0.055   4.079 -0.2794 -0.1935  0.4211
13752TIP3    H162671   3.769   0.096   4.046 -0.0464 -0.5591  0.5278
13752TIP3    H262672   3.632   0.048   4.002  0.0049 -0.4382  0.2340
13753TIP3   OH262673   4.700   2.643   3.478  0.3856  0.0450  0.3758
13753TIP3    H162674   4.631   2.581   3.501  0.5922  0.5040  2.3684
13753TIP3    H262675   4.775   2.617   3.531  0.5160  1.9025  1.1697
13754TIP3   OH262676   2.470   1.281   6.014  0.3316  0.1699 -0.2030
13754TIP3    H162677   2.554   1.297   5.969  0.6982  0.3100  0.5214
13754TIP3    H262678   2.483   1.316   6.102  0.2658 -1.7920  0.6383
13755TIP3   OH262679   0.527   0.254  16.628  0.1336 -0.2562  0.5016
13755TIP3    H162680   0.511   0.275  16.721 -1.0655 -1.7418  0.6749
13755TIP3    H262681   0.487   0.327  16.580 -0.7403 -0.2899  1.1409
13756TIP3   OH262682   0.799   5.811  13.664 -0.3519  0.9872 -0.0654
13756TIP3    H162683   0.851   5.855  13.597 -1.4681  1.2700 -0.7720
13756TIP3    H262684   0.792   5.720  13.634  0.4638  0.7344  0.4846
13757TIP3   OH262685   1.184   6.373  12.889  0.0871 -0.2119  0.5655
13757TIP3    H162686   1.221   6.444  12.837 -0.8745  0.7454  1.1463
13757TIP3    H262687   1.238   6.297  12.868  0.2152  0.3359 -1.1919
13758TIP3   OH262688   3.862   1.061  16.886  0.0727 -0.1156 -0.2104
13758TIP3    H162689   3.787   1.034  16.832 -1.5135 -0.9140  2.2099
13758TIP3    H262690   3.842   1.026  16.973  2.8031  0.5578  0.7727
13759TIP3   OH262691   1.319   2.203  13.132 -0.1923 -0.5160 -0.7042
13759TIP3    H162692   1.409   2.222  13.158 -0.2871 -0.2664 -0.5555
13759TIP3    H262693   1.272   2.189  13.214 -0.3840 -0.2185 -0.7627
13760TIP3   OH262694   4.046   5.834   5.575 -0.5286 -0.5766  0.5217
13760TIP3    H162695   4.073   5.771   5.508 -0.1527 -0.6989  0.7873
13760TIP3    H262696   4.017   5.779   5.649 -1.5645 -0.4521  0.2215
13761TIP3   OH262697   2.319   2.994  16.400  0.3807  0.0850 -0.3343
13761TIP3    H162698   2.390   2.943  16.440  0.9111  1.4931  0.5853
13761TIP3    H262699   2.356   3.027  16.318  0.9523  1.1430  0.3321
13762TIP3   OH262700   0.262   5.601  12.913 -0.3527  0.4306  0.1520
13762TIP3    H162701   0.232   5.655  12.839  1.0450  3.2754  1.4687
13762TIP3    H262702   0.357   5.614  12.914 -0.3918  1.1605  2.8357
13763TIP3   OH262703   0.691   4.754  15.143 -0.2342 -0.5670 -0.2783
13763TIP3    H162704   0.635   4.730  15.069  0.6717 -2.6759 -0.3544
13763TIP3    H262705   0.778   4.723  15.119  1.1302  2.8187 -0.2450
13764TIP3   OH262706   4.028   4.988  17.069 -0.2062 -0.6136  0.9992
13764TIP3    H162707   4.016   4.968  17.162 -0.7118  0.3370  1.1590
13764TIP3    H262708   4.065   5.076  17.069 -1.8712  0.1311  0.2877
13765TIP3   OH262709   2.471   3.071  11.545 -0.3325  0.7032  0.1052
13765TIP3    H162710   2.457   3.037  11.457 -1.0594  2.8371 -0.6762
13765TIP3    H262711   2.561   3.104  11.544 -0.5413  1.2826 -0.0601
13766TIP3   OH262712   1.490   1.751   5.101 -0.0907  0.2364 -0.1593
13766TIP3    H162713   1.424   1.686   5.126  0.4222 -1.0815 -2.0654
13766TIP3    H262714   1.569   1.725   5.149 -0.9627  2.1809  2.6279
13767TIP3   OH262715   3.220   4.537  16.831  0.2625 -0.1600  0.2496
13767TIP3    H162716   3.234   4.527  16.737  1.9313  0.9458  0.3307
13767TIP3    H262717   3.277   4.610  16.856 -0.9515  0.2622  1.9388
13768TIP3   OH262718   6.699   4.620  16.588  0.5170  0.2154 -0.1468
13768TIP3    H162719   6.641   4.550  16.617  0.5484  0.8078  1.4458
13768TIP3    H262720   6.731   4.660  16.669 -0.5641  2.9728 -0.9682
13769TIP3   OH262721   5.858   5.366  13.621 -0.5246 -0.6763 -0.2690
13769TIP3    H162722   5.919   5.401  13.556 -1.8012 -0.3634 -1.3467
13769TIP3    H262723   5.779   5.418  13.610 -1.2863 -1.6284  0.5103
13770TIP3   OH262724   5.160   0.200  14.786 -0.2131  0.5171 -0.1596
13770TIP3    H162725   5.181   0.286  14.822  0.6527  0.9276 -1.5578
13770TIP3    H262726   5.117   0.153  14.858 -0.8272  2.1550  0.5808
13771TIP3   OH262727   6.694   2.340  13.787  0.1136 -0.4355 -0.3506
13771TIP3    H162728   6.613   2.377  13.754  0.6642  1.8049  0.6713
13771TIP3    H262729   6.757   2.352  13.716  0.0122 -0.4689 -0.4457
13772TIP3   OH262730   0.937   2.252   2.860 -0.1758 -0.6271 -0.1479
13772TIP3    H162731   0.930   2.168   2.907 -0.6315 -0.3275  0.3377
13772TIP3    H262732   0.917   2.318   2.926 -1.6337 -0.2326 -0.9399
13773TIP3   OH262733   1.689   4.019   1.400 -0.5582  0.1322  0.2360
13773TIP3    H162734   1.626   4.052   1.465  2.4177  0.1371  3.3998
13773TIP3    H262735   1.726   4.098   1.361  0.0334  0.2808  1.0688
13774TIP3   OH262736   1.205   6.597  14.202 -0.2530 -0.3885  0.0658
13774TIP3    H162737   1.266   6.586  14.129 -1.3003 -1.6446 -0.6688
13774TIP3    H262738   1.120   6.569  14.167 -1.0877  0.4360  1.3290
13775TIP3   OH262739   1.266   3.933  12.760  0.2743 -0.1964 -0.4249
13775TIP3    H162740   1.302   4.011  12.802  0.1210 -0.3548  0.0083
13775TIP3    H262741   1.185   3.963  12.719 -0.3923 -0.3612  0.7263
13776TIP3   OH262742   1.405   2.466   4.532 -0.5705  0.0293  0.0441
13776TIP3    H162743   1.322   2.424   4.508  0.6506 -1.9531 -0.9899
13776TIP3    H262744   1.437   2.505   4.451  0.7745 -1.6294 -0.2868
13777TIP3   OH262745   4.886   3.918   2.178  0.4388 -0.2003  0.8991
13777TIP3    H162746   4.838   3.864   2.241  0.0365  0.3407  1.0617
13777TIP3    H262747   4.921   3.990   2.230 -0.2965  0.5076  0.4314
13778TIP3   OH262748   3.847   1.457  15.017 -0.1374  0.0458  0.1258
13778TIP3    H162749   3.840   1.363  15.033 -1.8803  0.0966 -0.0935
13778TIP3    H262750   3.924   1.467  14.961  0.1524 -1.2267  0.2799
13779TIP3   OH262751   0.051   5.939   2.002  0.5380 -0.1809  0.5364
13779TIP3    H162752   0.093   5.856   1.979 -2.2728 -1.0989 -1.9727
13779TIP3    H262753   0.008   5.921   2.086  1.3986 -0.6948  0.8765
13780TIP3   OH262754   2.708   5.968  15.061 -0.0708  0.0876 -0.4266
13780TIP3    H162755   2.803   5.971  15.048  0.0696  0.0194  0.5132
13780TIP3    H262756   2.680   5.890  15.013  0.2087  0.6329 -1.4945
13781TIP3   OH262757   6.416   2.687   3.187  0.3389  0.4118  0.2011
13781TIP3    H162758   6.431   2.597   3.216 -0.2980 -0.6626 -2.4686
13781TIP3    H262759   6.492   2.706   3.131  1.2512  2.1671  1.9380
13782TIP3   OH262760   5.804   1.155  15.013  0.3734  0.4878  0.1265
13782TIP3    H162761   5.845   1.226  14.963  2.0865 -0.2129  0.4932
13782TIP3    H262762   5.872   1.125  15.073 -0.8337 -0.4267  1.0862
13783TIP3   OH262763   4.540   4.183  12.635  0.0938  0.5311 -0.0680
13783TIP3    H162764   4.466   4.126  12.615 -1.7443  2.6555  0.2469
13783TIP3    H262765   4.542   4.245  12.562  2.7375 -0.4814 -0.9870
13784TIP3   OH262766   1.706   1.705  15.095 -0.2032 -0.7510  0.4560
13784TIP3    H162767   1.797   1.679  15.106  0.0421  0.3786  1.1803
13784TIP3    H262768   1.698   1.787  15.143 -1.6500 -0.9281  0.5691
13785TIP3   OH262769   0.530   1.302  14.555 -0.5704  0.2148 -0.0624
13785TIP3    H162770   0.553   1.372  14.616 -2.1296  0.2264  0.5636
13785TIP3    H262771   0.591   1.232  14.576  1.5124  1.5766 -1.1914
13786TIP3   OH262772   4.966   5.449   0.975 -0.1298  0.1056 -1.0297
13786TIP3    H162773   5.008   5.425   1.058 -0.8550 -0.0253 -0.6852
13786TIP3    H262774   5.028   5.423   0.908 -0.2084 -1.2901 -0.5887
13787TIP3   OH262775   4.313   5.991   1.392  0.3063 -0.0160  0.9953
13787TIP3    H162776   4.271   5.907   1.370 -1.9841  1.2549  0.0839
13787TIP3    H262777   4.271   6.018   1.474  0.5242  0.5530  0.9247
13788TIP3   OH262778   1.930   5.140   4.849 -0.4347 -0.2263  0.5656
13788TIP3    H162779   1.932   5.053   4.807 -0.5813 -0.7081  1.5351
13788TIP3    H262780   2.016   5.177   4.830 -0.5583 -0.3683 -0.2996
13789TIP3   OH262781   2.515   0.917   3.148 -0.0194 -0.1055 -0.0778
13789TIP3    H162782   2.420   0.927   3.152  0.1436  1.3182  1.7260
13789TIP3    H262783   2.537   0.933   3.056 -1.5755 -1.2611 -0.6904
13790TIP3   OH262784   5.266   0.617  14.643 -0.2115 -0.0118  0.5059
13790TIP3    H162785   5.231   0.600  14.731  1.7894 -0.8284  1.2076
13790TIP3    H262786   5.299   0.532  14.613  1.3821  0.7193  0.0466
13791TIP3   OH262787   2.390   1.798   1.332  0.2349 -0.9794 -0.4751
13791TIP3    H162788   2.475   1.840   1.320  0.1546  0.5615  3.0545
13791TIP3    H262789   2.335   1.834   1.263  1.5296  0.8029 -0.6412
13792TIP3   OH262790   2.991   6.532  13.802  0.2881 -0.2531  0.3698
13792TIP3    H162791   3.046   6.485  13.740 -0.2365 -0.6085  0.1729
13792TIP3    H262792   3.026   6.622  13.801  0.4269 -0.3110 -0.2578
13793TIP3   OH262793   2.491   1.921  10.836  0.1682  0.8874  0.4998
13793TIP3    H162794   2.490   2.013  10.864  0.3408  0.9723  0.2381
13793TIP3    H262795   2.412   1.912  10.782 -1.2201  0.2200  2.5431
13794TIP3   OH262796   2.203   5.777  16.865  0.1434 -0.9969  0.4307
13794TIP3    H162797   2.205   5.866  16.900  1.4812 -1.3272  1.2967
13794TIP3    H262798   2.124   5.738  16.904 -0.9268  0.0251 -0.6263
13795TIP3   OH262799   0.579   4.645  15.755  0.1015  0.2635 -0.0227
13795TIP3    H162800   0.572   4.642  15.660 -0.6527  0.5430  0.0182
13795TIP3    H262801   0.564   4.736  15.778  1.4657  0.4260  0.2910
13796TIP3   OH262802   5.356   3.489  14.394 -0.5574  0.2583  0.2710
13796TIP3    H162803   5.449   3.474  14.407 -0.5167  0.2680 -0.0021
13796TIP3    H262804   5.344   3.583  14.408 -0.4249  0.3582 -0.2910
13797TIP3   OH262805   1.545   6.328  14.530  0.0378 -0.1867 -0.0319
13797TIP3    H162806   1.569   6.408  14.578  0.7103 -0.7005  0.5169
13797TIP3    H262807   1.462   6.349  14.488 -0.4418  0.3728  1.1607
13798TIP3   OH262808   2.890   6.273   5.201  0.5142 -0.1908 -0.2828
13798TIP3    H162809   2.933   6.188   5.193  2.2548  0.6489 -0.3600
13798TIP3    H262810   2.949   6.325   5.255 -0.8501  0.7808  0.3521
13799TIP3   OH262811   4.742   1.508  16.695 -0.5872 -0.5542 -0.6331
13799TIP3    H162812   4.803   1.443  16.663  0.5769  0.7861 -1.2460
13799TIP3    H262813   4.704   1.470  16.775  1.3067 -1.2671 -0.0338
13800TIP3   OH262814   0.557   1.777  15.484  0.5995 -0.6627 -0.1285
13800TIP3    H162815   0.613   1.793  15.559 -0.0272 -0.5021  0.3092
13800TIP3    H262816   0.558   1.682  15.473  1.2375 -0.6329 -0.3447
13801TIP3   OH262817   3.155   1.452  12.104  0.2359  0.1751 -0.0800
13801TIP3    H162818   3.233   1.436  12.158  1.1011 -0.3387 -1.4187
13801TIP3    H262819   3.169   1.397  12.026 -1.4305  0.1510 -0.3841
13802TIP3   OH262820   4.215   0.952   4.857 -0.3984 -0.2331 -0.1371
13802TIP3    H162821   4.310   0.960   4.853 -0.1891 -1.8193  0.7657
13802TIP3    H262822   4.193   0.889   4.788 -0.2838 -2.9319  2.0948
13803TIP3   OH262823   3.422   1.582  13.706 -0.6541  0.3175 -0.3219
13803TIP3    H162824   3.413   1.645  13.778  1.8476 -0.1336  0.4806
13803TIP3    H262825   3.343   1.526  13.713 -0.4066  0.1659  2.2228
13804TIP3   OH262826   1.984   3.384   5.070 -0.4201 -0.0291  0.6882
13804TIP3    H162827   1.990   3.479   5.080  1.1059 -0.0154  0.0135
13804TIP3    H262828   2.071   3.358   5.039 -1.7296 -1.2192 -2.4632
13805TIP3   OH262829   5.434   6.508  16.503 -0.0032  0.1622  0.4689
13805TIP3    H162830   5.491   6.482  16.430  0.0787  0.4438  0.4294
13805TIP3    H262831   5.495   6.532  16.573 -0.0867 -0.7818  0.8780
13806TIP3   OH262832   1.753   5.574  16.890 -0.2533 -0.1151 -0.2582
13806TIP3    H162833   1.767   5.553  16.798  2.4949 -0.7528  0.1985
13806TIP3    H262834   1.824   5.634  16.912 -0.9725  0.1919  1.4027
13807TIP3   OH262835   3.499   0.291  16.528 -0.0766  0.1312 -0.3563
13807TIP3    H162836   3.569   0.351  16.504  0.9242  0.5424  3.0658
13807TIP3    H262837   3.472   0.318  16.615 -1.7432 -2.4980  0.0783
13808TIP3   OH262838   0.333   4.170   5.737  0.3084  0.3532 -0.1651
13808TIP3    H162839   0.364   4.254   5.770 -0.1679  0.7626 -0.7454
13808TIP3    H262840   0.239   4.169   5.757  0.3323 -0.0813 -0.0697
13809TIP3   OH262841   1.468   1.536  10.589  0.3382 -0.2458 -0.2868
13809TIP3    H162842   1.514   1.561  10.669 -0.0638 -0.1988 -0.0652
13809TIP3    H262843   1.457   1.441  10.596  0.4568 -0.2651 -0.3680
13810TIP3   OH262844   4.083   3.838   3.473  0.3599 -0.1717  0.7030
13810TIP3    H162845   4.021   3.770   3.448  0.7782 -0.4568  0.4391
13810TIP3    H262846   4.069   3.908   3.409 -1.0311  0.5897  1.7802
13811TIP3   OH262847   4.306   0.917  12.635  0.4409  0.3460 -0.1847
13811TIP3    H162848   4.286   0.840  12.581  0.9428  0.4309 -0.4908
13811TIP3    H262849   4.227   0.971  12.629 -0.4528 -0.7274  1.0753
13812TIP3   OH262850   5.449   5.385  16.614 -0.1670  0.6585  0.3689
13812TIP3    H162851   5.383   5.453  16.601 -0.7133  0.0453 -0.1356
13812TIP3    H262852   5.506   5.419  16.682 -0.1770  1.8160 -0.1810
13813TIP3   OH262853   0.473   2.297  14.574  0.4198 -0.2512  0.1130
13813TIP3    H162854   0.530   2.374  14.568  1.6487 -1.2249 -1.7734
13813TIP3    H262855   0.387   2.332  14.594  1.3462  1.4161  1.4549
13814TIP3   OH262856   0.547   5.040   1.385 -0.0267  0.2831 -0.4906
13814TIP3    H162857   0.570   4.954   1.420  0.3485  0.0008 -1.3907
13814TIP3    H262858   0.487   5.078   1.450  0.3645 -0.3592  0.2566
13815TIP3   OH262859   2.691   5.580  14.726 -0.5995  0.0879 -0.2369
13815TIP3    H162860   2.778   5.540  14.718 -0.5057  0.4871 -1.4643
13815TIP3    H262861   2.690   5.617  14.814  0.1890 -0.5678  0.0632
13816TIP3   OH262862   0.072   6.735   0.740  0.0205 -0.5133 -0.1622
13816TIP3    H162863   0.147   6.683   0.712  2.1769  1.3016  1.8664
13816TIP3    H262864   0.103   6.825   0.742 -1.9600  0.2251  1.5145
13817TIP3   OH262865   0.339   3.603  15.811 -0.7272 -1.0342  0.6360
13817TIP3    H162866   0.265   3.646  15.855 -0.5392  1.4653 -1.2839
13817TIP3    H262867   0.408   3.601  15.877 -1.0408  0.8916  1.0813
13818TIP3   OH262868   2.356   3.156   5.898 -0.4493  0.1889 -0.2046
13818TIP3    H162869   2.322   3.221   5.837 -0.4544  0.9599  0.6093
13818TIP3    H262870   2.435   3.196   5.934 -0.3525 -0.3304  0.1685
13819TIP3   OH262871   1.010   5.021  12.854  0.0813 -0.3152  0.4565
13819TIP3    H162872   1.023   5.052  12.944 -0.0526 -0.5380  0.5539
13819TIP3    H262873   1.011   5.100  12.801 -1.8469  0.0588  0.8772
13820TIP3   OH262874   4.403   5.801  13.750  0.4171 -0.2765  0.1669
13820TIP3    H162875   4.445   5.887  13.748 -0.1788  0.0222  0.3107
13820TIP3    H262876   4.474   5.741  13.770  0.9924  0.0829 -0.7523
13821TIP3   OH262877   0.069   0.107  14.475 -0.3554  0.0866  0.1747
13821TIP3    H162878   0.045   0.092  14.384 -0.9789 -0.8549  0.4760
13821TIP3    H262879   0.159   0.139  14.472 -0.0862 -0.7100 -0.7292
13822TIP3   OH262880   5.766   3.785   3.311 -0.8710 -0.1881 -0.0021
13822TIP3    H162881   5.735   3.875   3.324 -0.1146  0.1368 -0.4012
13822TIP3    H262882   5.860   3.789   3.328 -0.7749 -0.8388 -0.3406
13823TIP3   OH262883   3.032   3.706  15.505 -0.1728 -0.1975 -0.7530
13823TIP3    H162884   3.020   3.787  15.456 -0.2354  0.1856 -0.1111
13823TIP3    H262885   3.077   3.732  15.585 -0.6656 -0.7197 -0.2938
13824TIP3   OH262886   0.311   2.870   5.679 -0.0600 -0.3084  0.2528
13824TIP3    H162887   0.364   2.933   5.728 -1.4730  0.0854  1.3550
13824TIP3    H262888   0.272   2.815   5.747 -0.3261 -1.1746 -0.5894
13825TIP3   OH262889   4.137   4.855  15.479  0.2229  0.1003  0.2267
13825TIP3    H162890   4.095   4.792  15.421  1.4792 -1.0549  0.5280
13825TIP3    H262891   4.071   4.872  15.547 -0.9987  0.9506 -1.1143
13826TIP3   OH262892   4.804   6.322  11.386 -0.1015  0.0194  0.7146
13826TIP3    H162893   4.876   6.263  11.409  1.3235  1.3197 -0.2253
13826TIP3    H262894   4.833   6.365  11.306 -1.5254  1.2806  0.8345
13827TIP3   OH262895   4.513   3.734   2.051 -0.5696  0.4945 -0.0670
13827TIP3    H162896   4.462   3.801   2.097 -0.9365  0.1521  0.0271
13827TIP3    H262897   4.481   3.651   2.086  0.0231  0.2719 -0.0400
13828TIP3   OH262898   3.969   6.648   0.646 -0.1857 -0.3907 -0.4012
13828TIP3    H162899   3.876   6.628   0.657  0.1468 -0.5064  3.4361
13828TIP3    H262900   4.013   6.586   0.704  2.0835  1.2370 -0.2772
13829TIP3   OH262901   5.966   5.870  17.170  0.1500 -0.0225  0.1085
13829TIP3    H162902   6.035   5.814  17.134  0.4328 -1.8945  3.2058
13829TIP3    H262903   5.996   5.959  17.152  1.4405 -0.7924 -1.9553
13830TIP3   OH262904   0.467   2.007   0.012  0.2804  0.0710  0.2077
13830TIP3    H162905   0.502   2.004   0.101  0.0148  0.9046  0.3471
13830TIP3    H262906   0.541   1.985  -0.044  0.8387  1.0387  0.5470
13831TIP3   OH262907   4.736   2.194   2.443 -0.2785 -0.3831 -0.0206
13831TIP3    H162908   4.747   2.114   2.392  0.7872 -0.8394  0.8678
13831TIP3    H262909   4.642   2.203   2.453 -0.5232 -0.2136 -2.1251
13832TIP3   OH262910   2.548   0.668  17.193  0.3629 -0.7077 -0.1268
13832TIP3    H162911   2.592   0.584  17.189 -2.3829 -2.3060  0.6359
13832TIP3    H262912   2.517   0.683  17.104  0.2029 -0.8884 -0.1024
13833TIP3   OH262913   5.148   0.365   2.905  0.0920  0.0113 -0.0758
13833TIP3    H162914   5.060   0.333   2.885 -0.1319 -0.7322  1.8795
13833TIP3    H262915   5.134   0.437   2.967  0.8592 -0.5356  0.7601
13834TIP3   OH262916   4.185   3.262  12.238  0.2346 -0.0007  0.1788
13834TIP3    H162917   4.136   3.344  12.245  1.9426  1.4947 -2.9714
13834TIP3    H262918   4.126   3.203  12.190 -1.7733 -1.5300  4.1058
13835TIP3   OH262919   1.008   6.555   1.340 -0.4096  0.0475  0.3611
13835TIP3    H162920   1.028   6.645   1.368  1.0232 -0.3653  0.7060
13835TIP3    H262921   1.093   6.515   1.325 -1.0616 -1.0191 -0.6016
13836TIP3   OH262922   5.722   5.653   3.172 -0.3841  0.4109 -0.4547
13836TIP3    H162923   5.740   5.666   3.078  1.5314  0.7853 -0.0654
13836TIP3    H262924   5.716   5.742   3.207  3.8030  0.4514  0.5958
13837TIP3   OH262925   6.159   5.713   1.019  0.5599 -0.4465 -0.3534
13837TIP3    H162926   6.221   5.775   0.982  1.0815 -0.8573 -0.1755
13837TIP3    H262927   6.124   5.666   0.943  1.9341 -1.5755 -0.3242
13838TIP3   OH262928   3.147   6.079  13.680  0.2588  0.0399 -0.5202
13838TIP3    H162929   3.213   6.011  13.666  0.8822  0.5553 -0.1653
13838TIP3    H262930   3.074   6.053  13.625  1.4580  0.4029 -2.3882
13839TIP3   OH262931   1.075   6.572   1.730 -0.1631  0.2763  0.0995
13839TIP3    H162932   1.083   6.493   1.783 -1.1698  0.9416  1.3059
13839TIP3    H262933   1.017   6.547   1.658  1.6889 -0.8002 -1.0958
13840TIP3   OH262934   6.089   1.925   2.017 -0.2271 -0.1481  0.4000
13840TIP3    H162935   6.090   1.964   2.105  1.6384  0.1212  0.2948
13840TIP3    H262936   6.062   1.996   1.960 -1.1682 -0.2472  0.6989
13841TIP3   OH262937   5.900   3.453   0.348  0.9907 -0.2090  0.5257
13841TIP3    H162938   5.836   3.463   0.278  0.3983 -1.3794  0.8703
13841TIP3    H262939   5.849   3.423   0.423  1.8706 -0.7361  0.9336
13842TIP3   OH262940   2.455   6.330   1.650 -0.5068 -0.8840 -1.1406
13842TIP3    H162941   2.466   6.411   1.700 -0.0984 -0.8334 -1.3064
13842TIP3    H262942   2.361   6.320   1.641 -0.5525  0.3286 -2.3360
13843TIP3   OH262943   2.081   1.759   2.160  0.3714  0.1190 -0.3366
13843TIP3    H162944   2.088   1.834   2.101  0.5551 -0.8617 -1.5866
13843TIP3    H262945   2.020   1.789   2.228  0.8693  1.5890 -0.4892
13844TIP3   OH262946   2.112   2.178   0.045  0.0250 -0.4596  0.2047
13844TIP3    H162947   2.077   2.130   0.120  0.3067  2.5245  2.4476
13844TIP3    H262948   2.205   2.156   0.044  0.1511 -0.0018  1.1917
13845TIP3   OH262949   6.018   2.378  12.394  0.5799  0.0819 -0.6006
13845TIP3    H162950   5.951   2.406  12.333 -0.4126 -0.4624  0.2047
13845TIP3    H262951   6.064   2.307  12.349 -0.1912 -0.3675 -0.6930
13846TIP3   OH262952   3.872   0.522   4.239 -0.1136  0.1390  0.1556
13846TIP3    H162953   3.919   0.603   4.216 -0.9819  0.3602 -0.9332
13846TIP3    H262954   3.931   0.452   4.211  0.8433  0.3683  1.5211
13847TIP3   OH262955   3.487   3.213   0.626  0.0757  0.7526 -0.1501
13847TIP3    H162956   3.397   3.243   0.630  0.0765  0.8474 -0.7826
13847TIP3    H262957   3.508   3.186   0.716 -1.6547 -2.4291 -0.5511
13848TIP3   OH262958   0.145   5.904   6.127  0.5061 -0.0764  0.5712
13848TIP3    H162959   0.103   5.824   6.160  1.1412 -1.0871 -0.9342
13848TIP3    H262960   0.098   5.975   6.170 -0.2833 -1.2474  1.7342
13849TIP3   OH262961   5.490   5.831  16.279  0.0854 -0.4692 -0.2722
13849TIP3    H162962   5.504   5.816  16.372 -0.1178 -3.9483 -0.6464
13849TIP3    H262963   5.437   5.756  16.251  0.2988  0.3530 -3.2096
13850TIP3   OH262964   5.662   2.229   2.345  0.2371  0.0952  0.2560
13850TIP3    H162965   5.567   2.216   2.352  0.3796 -0.2868  4.1559
13850TIP3    H262966   5.698   2.141   2.335  0.2153  0.1149  0.0107
13851TIP3   OH262967   6.199   0.855  13.429  0.4210  0.4738 -0.3374
13851TIP3    H162968   6.242   0.938  13.408 -0.7436  1.5889  1.4580
13851TIP3    H262969   6.252   0.816  13.498 -1.1044  1.6888  1.6380
13852TIP3   OH262970   1.619   3.349   4.961  0.0225 -0.4541 -0.3814
13852TIP3    H162971   1.579   3.330   4.877 -1.7406 -0.0462  0.3168
13852TIP3    H262972   1.631   3.444   4.961  1.6500 -0.6276 -0.8274
13853TIP3   OH262973   6.286   6.084  10.600  0.0274  0.3771 -0.3087
13853TIP3    H162974   6.304   6.167  10.644 -1.9983  1.3595 -1.2089
13853TIP3    H262975   6.192   6.069  10.614  0.0021 -0.8986 -1.5797
13854TIP3   OH262976   1.871   1.061   2.898  0.5766  0.6414 -0.1719
13854TIP3    H162977   1.781   1.089   2.916 -0.0005 -0.1391 -1.7558
13854TIP3    H262978   1.885   1.081   2.806  1.7306 -0.0596 -0.1692
13855TIP3   OH262979   5.182   1.624   5.856 -0.2851 -0.1189 -0.1596
13855TIP3    H162980   5.153   1.539   5.888 -0.6966  0.5537  1.3484
13855TIP3    H262981   5.145   1.687   5.919  1.3108  1.0451 -0.3283
13856TIP3   OH262982   3.842   6.387  13.125  0.6857 -0.9115 -0.4500
13856TIP3    H162983   3.871   6.390  13.034 -1.9372  1.1621 -1.3544
13856TIP3    H262984   3.922   6.404  13.176  2.3944 -3.0414 -2.2236
13857TIP3   OH262985   4.751   3.703   1.031 -0.0670 -0.0623  0.6571
13857TIP3    H162986   4.715   3.644   0.965  1.1069  0.1032 -0.1601
13857TIP3    H262987   4.810   3.649   1.082  2.3414  0.6698 -1.1595
13858TIP3   OH262988   0.048   2.784  15.289  0.2031  0.4016 -0.1361
13858TIP3    H162989   0.017   2.820  15.206 -1.8059  1.8901  1.1717
13858TIP3    H262990  -0.032   2.765  15.338  1.3423 -0.5005  1.4627
13859TIP3   OH262991   5.131   3.293   3.350  0.9301  0.0782  0.7803
13859TIP3    H162992   5.167   3.272   3.435  3.2567  0.0953 -0.1361
13859TIP3    H262993   5.039   3.265   3.355  0.8625  0.5358  3.4048
13860TIP3   OH262994   4.290   4.550   2.490 -0.2879  0.1878 -0.2520
13860TIP3    H162995   4.314   4.520   2.578 -0.0783  1.9378  0.3166
13860TIP3    H262996   4.240   4.477   2.453  1.1405 -1.3046  0.6254
13861TIP3   OH262997   0.401   1.247   1.981  0.1532 -0.4546  0.3994
13861TIP3    H162998   0.411   1.249   1.886 -0.3615  2.0011  0.3429
13861TIP3    H262999   0.324   1.191   1.996 -0.3148 -0.1231 -0.6768
13862TIP3   OH263000   0.426   4.412   5.871 -0.3416  0.0827 -0.5492
13862TIP3    H163001   0.431   4.505   5.852  0.4558  0.0469 -0.5476
13862TIP3    H263002   0.417   4.407   5.966  3.9424  0.1207  0.0545
13863TIP3   OH263003   6.476   5.725   1.385 -0.0253 -0.4081  0.2194
13863TIP3    H163004   6.451   5.692   1.299  0.0840 -1.3783  0.5421
13863TIP3    H263005   6.412   5.794   1.404  0.2195  0.1235 -0.8148
13864TIP3   OH263006   3.111   4.732  14.743  0.2727  0.0699 -0.0274
13864TIP3    H163007   3.108   4.795  14.671 -1.3638 -0.4255 -0.4413
13864TIP3    H263008   3.058   4.772  14.812  2.0295  0.6502  1.0319
13865TIP3   OH263009   3.027   3.365   0.398 -0.5976  0.1358  0.0392
13865TIP3    H163010   2.998   3.455   0.385 -0.7964 -0.1390 -1.6658
13865TIP3    H263011   3.118   3.365   0.369 -0.5712 -0.1910  0.1239
13866TIP3   OH263012   1.051   6.045  13.764 -0.5255 -0.0115 -0.0402
13866TIP3    H163013   0.992   6.066  13.692 -0.6914  0.2363  0.1639
13866TIP3    H263014   1.137   6.074  13.735 -0.6932  0.6310  0.0984
13867TIP3   OH263015   0.399   1.499   5.603  0.3281  0.2166  0.1613
13867TIP3    H163016   0.369   1.586   5.630 -1.5918 -0.7595  1.3484
13867TIP3    H263017   0.393   1.501   5.507  0.7106  1.5097  0.1458
13868TIP3   OH263018   2.736   0.050   1.030 -0.5336 -0.2182  0.4673
13868TIP3    H163019   2.790   0.010   1.098  1.8834  0.3400 -1.0155
13868TIP3    H263020   2.699  -0.025   0.982  0.0331 -0.6255  0.6620
13869TIP3   OH263021   4.788   3.450  12.411 -0.4644 -0.8102  0.2030
13869TIP3    H163022   4.725   3.378  12.404  0.2342 -1.6467  1.9750
13869TIP3    H263023   4.858   3.416  12.467  1.8104 -0.0471 -2.0182
13870TIP3   OH263024   2.997   0.686   0.035 -0.3942 -0.6146 -0.1886
13870TIP3    H163025   3.012   0.778   0.013  1.7888  0.1541  3.5504
13870TIP3    H263026   3.073   0.640  -0.002  0.1735 -0.3244  0.5805
13871TIP3   OH263027   4.236   5.673  11.599 -0.5662 -0.3044  0.2214
13871TIP3    H163028   4.211   5.582  11.616 -1.1828 -0.4336 -1.2267
13871TIP3    H263029   4.162   5.709  11.550 -0.4630  1.0789  1.0339
13872TIP3   OH263030   4.629   1.818  13.346 -0.0662 -0.8483 -0.0682
13872TIP3    H163031   4.606   1.901  13.306 -0.4350  0.9057  3.4022
13872TIP3    H263032   4.601   1.752  13.282 -1.0774  1.6032 -2.3390
13873TIP3   OH263033   6.726   1.571  16.729 -0.0904  0.7954  0.2303
13873TIP3    H163034   6.701   1.544  16.641 -0.4346  1.7298  0.0277
13873TIP3    H263035   6.757   1.491  16.771 -1.2603  0.0601 -0.2652
13874TIP3   OH263036   1.129   5.767  11.442 -0.2715  0.1064 -0.2619
13874TIP3    H163037   1.056   5.824  11.465 -1.7349 -1.0961 -1.7381
13874TIP3    H263038   1.115   5.688  11.494  0.1354 -0.0319 -0.3613
13875TIP3   OH263039   0.064   2.681  11.570  0.1782 -0.3043 -0.3275
13875TIP3    H163040   0.083   2.646  11.657  2.2053  1.4084  0.0155
13875TIP3    H263041   0.086   2.610  11.510  0.1086 -1.0318  0.4887
13876TIP3   OH263042   6.135   2.099  13.536  0.5924  0.0522  0.2107
13876TIP3    H163043   6.101   2.174  13.585 -0.7334 -0.5727  0.2963
13876TIP3    H263044   6.091   2.104  13.451 -0.0852 -1.0110  0.4738
13877TIP3   OH263045   1.122   2.879   4.853  0.3564 -0.4205 -0.3198
13877TIP3    H163046   1.089   2.888   4.763 -0.8835 -0.1171  0.1384
13877TIP3    H263047   1.063   2.814   4.893 -0.8788  1.4282  1.0445
13878TIP3   OH263048   5.280   5.714  10.764  0.0826  0.4381  0.5075
13878TIP3    H163049   5.373   5.734  10.769  0.0820  0.1953  2.4206
13878TIP3    H263050   5.254   5.698  10.855 -1.1763 -2.4684 -0.2502
13879TIP3   OH263051   1.840   6.142   3.735  0.2791  0.5723 -0.4764
13879TIP3    H163052   1.809   6.227   3.703  0.6822  0.9489  0.1033
13879TIP3    H263053   1.933   6.140   3.710  0.4255  0.5782  0.0555
13880TIP3   OH263054   2.903   2.277  13.127  0.1547  0.7524  0.0141
13880TIP3    H163055   2.835   2.249  13.189 -0.3687  1.6924 -0.1225
13880TIP3    H263056   2.899   2.372  13.129  0.4850  0.7950 -1.0863
13881TIP3   OH263057   1.855   3.364  11.562  0.3160  0.2943 -1.0249
13881TIP3    H163058   1.858   3.446  11.610  0.1867  1.3736 -2.7957
13881TIP3    H263059   1.764   3.335  11.568 -0.0272  1.1658 -1.7807
13882TIP3   OH263060   3.928   5.497  16.322  0.0014  0.2531 -0.1439
13882TIP3    H163061   3.842   5.538  16.321 -0.4221 -0.5824  0.4968
13882TIP3    H263062   3.974   5.540  16.394 -0.6263 -0.7221  0.8704
13883TIP3   OH263063   2.542   0.361  16.791 -0.6788 -0.2328  0.0855
13883TIP3    H163064   2.522   0.357  16.697 -0.4874  0.2043  0.0227
13883TIP3    H263065   2.551   0.455  16.809 -1.0542 -0.2984  0.6156
13884TIP3   OH263066   2.144   3.010   4.935  0.1868  0.0540  0.0597
13884TIP3    H163067   2.095   3.006   4.853  1.2786 -0.8343 -0.5742
13884TIP3    H263068   2.178   2.922   4.947 -0.2933  0.0603  1.6997
13885TIP3   OH263069   5.769   2.448  13.652 -0.4669  0.2713  0.2108
13885TIP3    H163070   5.825   2.481  13.581  0.8414 -0.7908  0.7123
13885TIP3    H263071   5.721   2.375  13.613  0.8284 -0.8200  0.5748
13886TIP3   OH263072   3.267   3.832  10.851 -0.1167 -0.4008 -0.3821
13886TIP3    H163073   3.228   3.911  10.813 -0.2817  0.6248  1.7817
13886TIP3    H263074   3.213   3.760  10.818 -1.4214  0.6308 -0.5562
13887TIP3   OH263075   3.235   6.000   1.463  0.6218 -0.0051 -0.1385
13887TIP3    H163076   3.283   6.043   1.533 -0.2474 -2.2862  1.9994
13887TIP3    H263077   3.184   5.931   1.506  0.1367 -1.6489 -3.0072
13888TIP3   OH263078   5.887   6.380   4.879  0.0063  0.3118 -0.3107
13888TIP3    H163079   5.803   6.342   4.902  0.6192 -1.0735 -0.2571
13888TIP3    H263080   5.891   6.462   4.928 -1.9427  1.1860 -1.4962
13889TIP3   OH263081   0.472   2.531   5.201 -0.0126  0.0493  0.1848
13889TIP3    H163082   0.432   2.449   5.171  0.8632 -0.0725 -0.6947
13889TIP3    H263083   0.514   2.509   5.284  0.1818 -0.3888 -0.0278
13890TIP3   OH263084   5.437   5.546  12.992 -0.4755 -0.0624  0.4062
13890TIP3    H163085   5.508   5.591  13.037 -0.8837 -0.2512  1.2644
13890TIP3    H263086   5.481   5.485  12.932  0.0953 -0.2937  1.0454
13891TIP3   OH263087   4.477   6.579  14.528 -0.2884 -0.1786  0.3286
13891TIP3    H163088   4.464   6.674  14.535 -0.1953 -0.0213 -1.3551
13891TIP3    H263089   4.394   6.546  14.493 -0.7938 -0.9210  2.1141
13892TIP3   OH263090   6.221   6.750  13.680 -0.0271 -0.1697 -0.5067
13892TIP3    H163091   6.127   6.742  13.695  0.1023 -2.3334 -0.4960
13892TIP3    H263092   6.259   6.747  13.768  0.1334 -1.4278 -0.6005
13893TIP3   OH263093   4.866   5.857  15.716  0.6723 -0.2306 -0.3099
13893TIP3    H163094   4.895   5.924  15.779  0.5723 -0.7983  0.3464
13893TIP3    H263095   4.771   5.853  15.727  0.9397 -3.1950  2.5065
13894TIP3   OH263096   2.949   5.695   4.395  0.1781 -0.3002  0.0024
13894TIP3    H163097   2.865   5.649   4.400 -1.7148  2.6670 -1.6792
13894TIP3    H263098   3.006   5.635   4.348 -1.2535 -2.0473  0.3830
13895TIP3   OH263099   2.920   5.831   0.585 -0.2352  0.3370  0.5391
13895TIP3    H163100   2.836   5.844   0.541 -0.1741 -0.2469  0.2440
13895TIP3    H263101   2.905   5.758   0.645  0.4357 -0.7338 -0.5511
13896TIP3   OH263102   4.581   6.229   1.748 -0.7780  0.2023 -0.3013
13896TIP3    H163103   4.647   6.193   1.689 -1.7951 -1.9462 -0.2575
13896TIP3    H263104   4.537   6.296   1.697  0.9088  1.1524 -0.5750
13897TIP3   OH263105   5.508   2.845   5.305  0.3293  0.7682 -0.0457
13897TIP3    H163106   5.518   2.896   5.386 -0.2557 -1.8332  1.7968
13897TIP3    H263107   5.587   2.792   5.300 -0.4356 -0.4089 -0.1527
13898TIP3   OH263108   5.088   5.208  15.217 -0.4479 -0.1802  0.3071
13898TIP3    H163109   5.040   5.152  15.278 -0.7690  1.1734  1.3419
13898TIP3    H263110   5.155   5.251  15.270 -0.9155  1.2376 -0.1979
13899TIP3   OH263111   4.762   4.970   3.619 -0.1357  0.2392  0.6206
13899TIP3    H163112   4.692   5.035   3.615  1.3139  1.9994  1.6366
13899TIP3    H263113   4.841   5.019   3.595  1.3763 -0.5088  3.5968
13900TIP3   OH263114   3.022   3.642   5.535 -0.4610 -0.1662 -0.1471
13900TIP3    H163115   2.935   3.609   5.512 -0.4822 -0.5246  0.4053
13900TIP3    H263116   3.016   3.737   5.526 -1.0810 -0.1454  0.4359
13901TIP3   OH263117   0.283   2.271  13.182  0.0034  0.1206  0.2796
13901TIP3    H163118   0.377   2.259  13.193 -0.1328 -2.4105 -0.6777
13901TIP3    H263119   0.275   2.350  13.129  1.4872  1.2129  1.6074
13902TIP3   OH263120   4.394   0.148  12.797 -0.2748 -0.3233  0.3749
13902TIP3    H163121   4.341   0.119  12.723 -0.1162 -0.8319  0.4503
13902TIP3    H263122   4.389   0.243  12.795  0.7117 -0.2633 -1.0325
13903TIP3   OH263123   0.984   2.832  10.678  0.6882  0.0646 -0.8484
13903TIP3    H163124   1.006   2.839  10.585 -2.2561  2.1744 -1.5342
13903TIP3    H263125   0.918   2.900  10.693 -0.1175 -1.2082  2.4418
13904TIP3   OH263126   6.004   1.625  14.640 -0.2668 -0.0853 -0.1102
13904TIP3    H163127   6.002   1.534  14.609  1.3361 -0.6393  1.2486
13904TIP3    H263128   5.990   1.677  14.562  1.2759 -1.4589 -1.3952
13905TIP3   OH263129   4.958   6.057   0.513  0.0120  0.1169  0.2102
13905TIP3    H163130   4.876   6.048   0.464  0.7137 -1.9773 -0.7121
13905TIP3    H263131   5.021   6.090   0.449  0.6093 -1.3478 -0.0114
13906TIP3   OH263132   6.658   5.516  14.485  0.1592 -0.4044 -0.6431
13906TIP3    H163133   6.692   5.557  14.405  0.2957  1.3589  0.2739
13906TIP3    H263134   6.733   5.510  14.543  0.0012 -1.4163 -0.5275
13907TIP3   OH263135   2.654   4.808   5.606  0.2442  0.1395  0.6393
13907TIP3    H163136   2.677   4.871   5.537 -0.4754 -0.1963  0.0800
13907TIP3    H263137   2.648   4.861   5.686 -2.1557  1.1772 -0.1238
13908TIP3   OH263138   4.559   0.507   2.815 -0.5587 -0.4417 -0.2706
13908TIP3    H163139   4.472   0.475   2.794 -2.2252  3.4938 -0.3100
13908TIP3    H263140   4.576   0.476   2.904 -1.2892 -2.4638 -0.7859
13909TIP3   OH263141   2.240   1.794  15.430  0.3710 -0.0736  0.0346
13909TIP3    H163142   2.161   1.782  15.483  0.8024  0.1230  0.7406
13909TIP3    H263143   2.209   1.794  15.340 -0.5326  0.7667  0.3306
13910TIP3   OH263144   3.978   0.081  12.460 -0.1897  0.1052 -0.7928
13910TIP3    H163145   3.888   0.061  12.483 -0.1566  0.6636 -0.1556
13910TIP3    H263146   3.991   0.039  12.375  0.0244 -3.0737  0.6538
13911TIP3   OH263147   6.250   4.184  16.692 -0.3540  0.0371 -0.3177
13911TIP3    H163148   6.306   4.167  16.616  2.1387  1.9341  0.9784
13911TIP3    H263149   6.300   4.154  16.767 -0.9973  1.8588  0.9089
13912TIP3   OH263150   4.201   4.527  12.109  0.5474  0.1619  0.3534
13912TIP3    H163151   4.122   4.474  12.095 -0.0313  0.6914  1.4645
13912TIP3    H263152   4.271   4.477  12.067 -0.2096 -0.8177  0.2046
13913TIP3   OH263153   6.179   5.650  13.289 -0.5977  0.2722  0.0344
13913TIP3    H163154   6.233   5.728  13.304 -0.2941  0.0523  0.0964
13913TIP3    H263155   6.160   5.652  13.195  0.5895 -0.3259 -0.2450
13914TIP3   OH263156   2.363   4.925   5.905  0.0874 -0.0483 -0.4264
13914TIP3    H163157   2.346   5.019   5.904 -1.1761 -0.2070 -3.2328
13914TIP3    H263158   2.278   4.885   5.923 -0.0111 -0.6587 -2.0884
13915TIP3   OH263159   2.835   0.408   4.666 -0.0384 -0.3780 -0.1200
13915TIP3    H163160   2.877   0.485   4.627  1.4878 -0.6785  0.8276
13915TIP3    H263161   2.804   0.357   4.592  0.1497  0.4881 -0.8104
13916TIP3   OH263162   3.542   4.706  13.596  0.0409  0.2889 -0.7002
13916TIP3    H163163   3.526   4.683  13.688  1.4484  1.7504 -0.0327
13916TIP3    H263164   3.521   4.626  13.548 -0.0700 -0.7475  0.9574
13917TIP3   OH263165   4.842   5.562  11.757 -0.6859 -0.5050  0.5117
13917TIP3    H163166   4.919   5.507  11.745  0.0031  0.0296  2.2049
13917TIP3    H263167   4.777   5.525  11.697  1.1515 -0.3578 -1.6856
13918TIP3   OH263168   3.026   5.786  14.287 -0.1070  0.1359 -0.1669
13918TIP3    H163169   2.975   5.858  14.250  1.3042  1.6879  0.7815
13918TIP3    H263170   3.110   5.791  14.242  1.0685  1.0528  1.9885
13919TIP3   OH263171   2.258   0.000  16.709  0.0064 -0.2487  0.1380
13919TIP3    H163172   2.276  -0.090  16.683 -3.8782 -1.0490 -0.3540
13919TIP3    H263173   2.167   0.015  16.683  0.4547  3.8117  0.3235
13920TIP3   OH263174   3.135   2.251  15.037 -0.5348 -0.0163  0.3141
13920TIP3    H163175   3.079   2.174  15.048  1.4777 -1.6258 -0.0826
13920TIP3    H263176   3.130   2.271  14.943 -0.7342  0.0846  0.3453
13921TIP3   OH263177   0.830   2.995   5.716  0.0494 -0.5815  0.2954
13921TIP3    H163178   0.807   2.930   5.783 -1.9639 -0.3607 -0.1058
13921TIP3    H263179   0.865   3.069   5.765 -0.6270 -0.7531  1.0658
13922TIP3   OH263180   1.141   0.657  15.113  0.4185 -0.1305 -0.3751
13922TIP3    H163181   1.211   0.671  15.049  0.3356  0.4351 -0.3444
13922TIP3    H263182   1.186   0.621  15.189  0.8327  1.1315  0.0007
13923TIP3   OH263183   6.110   0.960   2.373 -0.2814  0.2133  0.0921
13923TIP3    H163184   6.177   1.016   2.411  0.9254 -0.9748 -0.2108
13923TIP3    H263185   6.064   0.924   2.449  1.2938 -1.1648  0.4483
13924TIP3   OH263186   5.912   1.803   3.607 -0.2109  0.5956 -0.2902
13924TIP3    H163187   6.003   1.800   3.575 -0.1394 -0.4265 -0.0119
13924TIP3    H263188   5.917   1.769   3.696 -1.1939 -1.8617 -1.0843
13925TIP3   OH263189   5.105   1.939  16.290 -0.1895 -0.0319  0.1925
13925TIP3    H163190   5.043   2.011  16.279 -0.5301 -0.4598 -0.7106
13925TIP3    H263191   5.086   1.904  16.377 -3.0558 -1.8718 -1.0543
13926TIP3   OH263192   6.087   2.279   6.283  0.0960 -0.5329 -0.2919
13926TIP3    H163193   6.139   2.230   6.346  0.4582  0.7761  0.4647
13926TIP3    H263194   6.056   2.213   6.221  2.4027 -1.4107 -0.6164
13927TIP3   OH263195   5.934   5.889   5.930 -0.3119 -0.8143 -0.1061
13927TIP3    H163196   5.864   5.894   5.865  0.4638  1.0357 -0.9010
13927TIP3    H263197   6.006   5.846   5.885  0.8268  1.9961 -1.1789
13928TIP3   OH263198   5.894   3.957  11.470 -0.7275  0.2154 -0.2297
13928TIP3    H163199   5.900   3.953  11.374 -1.3923 -0.2000 -0.2525
13928TIP3    H263200   5.806   3.928  11.490  0.5624 -3.7187  0.7379
13929TIP3   OH263201   5.518   5.881   0.182  0.3623 -0.3910 -0.3967
13929TIP3    H163202   5.591   5.860   0.240  0.4221  1.0709  0.1145
13929TIP3    H263203   5.559   5.904   0.099  0.5217  0.5578 -0.0706
13930TIP3   OH263204   0.056   0.632   4.005  0.2348  0.2462 -0.1647
13930TIP3    H163205   0.147   0.605   3.988 -0.1718 -0.8469 -0.6630
13930TIP3    H263206   0.033   0.589   4.087 -0.6712 -1.6676 -1.3532
13931TIP3   OH263207   6.733   0.362  10.665  0.5993 -0.0527 -0.2555
13931TIP3    H163208   6.738   0.282  10.717 -0.4023 -0.5066 -0.8349
13931TIP3    H263209   6.686   0.424  10.720  1.0088  0.0144  0.0277
13932TIP3   OH263210   3.845   4.137   6.569  0.1569 -0.4984 -0.3041
13932TIP3    H163211   3.790   4.063   6.593 -1.1795  1.3011  2.9631
13932TIP3    H263212   3.931   4.116   6.606  0.7666 -1.7512 -2.2869
13933TIP3   OH263213   6.010   4.692  10.734  0.6171  0.1709 -0.2159
13933TIP3    H163214   6.087   4.680  10.678  0.9213 -1.2629  0.4623
13933TIP3    H263215   5.962   4.609  10.728  0.3671  0.1767  1.1972
13934TIP3   OH263216   1.967   3.637   0.048 -0.8359  0.3766 -0.0248
13934TIP3    H163217   2.014   3.706   0.002 -2.4570  1.3832 -0.2541
13934TIP3    H263218   2.032   3.598   0.107  0.7481  0.4364 -1.6518
13935TIP3   OH263219   2.407   6.682   0.024 -0.3707 -0.4353  0.1440
13935TIP3    H163220   2.359   6.657  -0.055  0.3908 -2.4425  0.2536
13935TIP3    H263221   2.486   6.628   0.022 -0.1121 -0.2044  2.0421
13936TIP3   OH263222   0.519   5.362   0.406  0.1446  0.2283  0.1115
13936TIP3    H163223   0.611   5.340   0.391  0.2257 -0.4649  1.4438
13936TIP3    H263224   0.503   5.438   0.350  1.4288  0.1337 -0.4132
13937TIP3   OH263225   1.723   2.048  11.983 -0.5052 -0.0301 -0.1734
13937TIP3    H163226   1.701   2.067  12.075 -0.2953 -2.0184  0.3367
13937TIP3    H263227   1.731   1.953  11.980 -0.0527  0.0372 -2.1774
13938TIP3   OH263228   6.094   5.624   2.081  0.9603  0.0398  0.3192
13938TIP3    H163229   6.138   5.708   2.093  0.6405  0.3180 -0.3656
13938TIP3    H263230   6.007   5.648   2.047  0.0826 -0.4683  2.1070
13939TIP3   OH263231   3.030   1.657  11.194 -0.1837 -0.9960  0.1685
13939TIP3    H163232   2.948   1.649  11.146 -0.6797 -0.5462  0.9191
13939TIP3    H263233   3.023   1.741  11.239  0.2610 -1.4007  1.0152
13940TIP3   OH263234   6.472   2.014   1.840 -0.4992  0.4462  0.1190
13940TIP3    H163235   6.523   2.092   1.817 -0.5280  0.9001  1.5305
13940TIP3    H263236   6.462   2.019   1.935 -0.0583 -1.5592  0.3113
13941TIP3   OH263237   6.085   4.362   2.172 -0.6059  0.0101  0.4150
13941TIP3    H163238   6.042   4.348   2.256 -1.3474  1.4945  0.3084
13941TIP3    H263239   6.078   4.456   2.156  0.2676 -0.1168 -0.9164
13942TIP3   OH263240   4.940   1.012  11.782 -0.4088  0.7486 -0.2031
13942TIP3    H163241   4.849   0.994  11.758 -0.1466 -0.0071 -0.6520
13942TIP3    H263242   4.968   0.934  11.830  0.3824  0.4468 -1.1339
13943TIP3   OH263243   3.294   5.231  12.049  0.1125  0.2262 -0.3116
13943TIP3    H163244   3.360   5.190  11.994  1.4940 -0.8703  2.0383
13943TIP3    H263245   3.343   5.279  12.115 -1.4761  1.7870 -0.1912
13944TIP3   OH263246   6.303   5.739  11.311 -0.1672  0.7391 -0.2408
13944TIP3    H163247   6.208   5.742  11.301 -0.1960  0.7274  0.0233
13944TIP3    H263248   6.335   5.697  11.231 -0.4337  0.1277 -0.0232
13945TIP3   OH263249   0.954   1.463   6.640  0.0089  0.1387 -0.8679
13945TIP3    H163250   0.983   1.549   6.610 -0.3822  0.7267  0.3671
13945TIP3    H263251   0.867   1.479   6.677 -0.7316 -1.0764 -1.9658
13946TIP3   OH263252   3.629   3.297   0.017  0.1158  0.6631 -0.2416
13946TIP3    H163253   3.591   3.218  -0.022 -0.3887  1.5593 -1.6456
13946TIP3    H263254   3.723   3.285   0.010  0.2243 -1.3708  2.8292
13947TIP3   OH263255   1.606   4.736  12.171 -0.1366  0.1768  0.1857
13947TIP3    H163256   1.608   4.821  12.215 -0.8900  0.7604 -0.8740
13947TIP3    H263257   1.579   4.675  12.239 -0.8627  0.9867  0.6510
13948TIP3   OH263258   1.321   6.391   3.364  0.0625  0.2549 -0.2325
13948TIP3    H163259   1.239   6.400   3.316  0.4217  1.3885 -0.6639
13948TIP3    H263260   1.304   6.322   3.428 -0.9203 -0.1897 -0.9408
13949TIP3   OH263261   1.986   4.253  13.163  0.1879  0.2456  0.1655
13949TIP3    H163262   1.898   4.243  13.201  0.3632 -0.3171  0.4418
13949TIP3    H263263   1.982   4.201  13.083  0.4409 -0.2627  0.4773
13950TIP3   OH263264   1.565   1.137   1.996 -0.3298  0.8204 -0.0570
13950TIP3    H163265   1.593   1.222   1.965  2.1287  0.0703 -0.0678
13950TIP3    H263266   1.473   1.150   2.022 -0.6950  2.8896 -2.0723
13951TIP3   OH263267   0.643   3.997   3.707  0.7321 -0.1876 -0.2160
13951TIP3    H163268   0.573   3.941   3.740  1.3681  1.4272  4.6111
13951TIP3    H263269   0.723   3.945   3.717  0.8651  0.1126  0.3498
13952TIP3   OH263270   4.006   0.261  15.314 -0.1353  0.0252  0.5832
13952TIP3    H163271   4.056   0.290  15.237 -1.8180 -0.2793 -0.6808
13952TIP3    H263272   3.972   0.175  15.290  0.4727 -0.7397  2.2644
13953TIP3   OH263273   0.064   1.555   1.899 -0.2230  0.0985  0.0587
13953TIP3    H163274   0.048   1.623   1.964 -0.8885  1.8434 -1.7943
13953TIP3    H263275  -0.022   1.521   1.876 -0.1588  0.5093 -0.8702
13954TIP3   OH263276   3.979   2.747   3.298 -0.3025 -0.2648  0.2887
13954TIP3    H163277   4.058   2.720   3.250  1.0304  0.2925  2.0691
13954TIP3    H263278   3.921   2.672   3.292 -0.2121 -0.2294 -2.1484
13955TIP3   OH263279   2.481   4.242   4.690  0.2019 -0.0922  0.2909
13955TIP3    H163280   2.491   4.310   4.757  1.0183 -2.9638  3.3287
13955TIP3    H263281   2.406   4.191   4.718  0.9507 -1.7743 -0.6319
13956TIP3   OH263282   5.822   1.475  15.502  0.5982 -0.0915  0.5003
13956TIP3    H163283   5.729   1.493  15.484  0.6855  0.7806  0.8636
13956TIP3    H263284   5.838   1.390  15.461 -0.9237 -1.3773  2.3763
13957TIP3   OH263285   3.497   2.166   0.097  0.1549 -0.1636  0.0919
13957TIP3    H163286   3.569   2.184   0.157  1.2193 -1.1769 -0.8453
13957TIP3    H263287   3.474   2.074   0.115 -0.2958 -0.1198 -0.2529
13958TIP3   OH263288   5.408   4.961  13.517 -0.1416 -0.2687  0.2364
13958TIP3    H163289   5.492   4.953  13.562  0.2938  0.9474 -0.3186
13958TIP3    H263290   5.424   4.926  13.430  0.6307  2.4658 -0.8211
13959TIP3   OH263291   3.095   6.168   2.518  0.4045 -0.4615  0.4866
13959TIP3    H163292   3.147   6.093   2.547  1.2003  0.4315  1.4301
13959TIP3    H263293   3.015   6.164   2.570 -0.0028 -1.2098 -0.1788
13960TIP3   OH263294   5.240   6.619  12.667 -0.6469  0.0237 -0.5966
13960TIP3    H163295   5.189   6.561  12.612  0.0878  0.3414 -1.6541
13960TIP3    H263296   5.177   6.682  12.701 -1.3018 -0.8701 -0.1261
13961TIP3   OH263297   4.272   5.564  12.637 -0.5381 -0.4835  0.1317
13961TIP3    H163298   4.228   5.614  12.568  0.4585  0.8661  0.4127
13961TIP3    H263299   4.293   5.480  12.596  0.6632  0.5319 -1.4967
13962TIP3   OH263300   5.745   4.310  16.910  0.2533 -0.3794  0.3195
13962TIP3    H163301   5.768   4.361  16.987  0.3094 -0.9095  0.6585
13962TIP3    H263302   5.819   4.250  16.898  0.0876 -0.5364  0.0598
13963TIP3   OH263303   0.739   2.873   2.675 -0.3880 -0.1194 -0.2400
13963TIP3    H163304   0.815   2.875   2.616 -0.8004  1.1371 -0.7593
13963TIP3    H263305   0.702   2.961   2.669 -1.7803 -0.6609  0.1540
13964TIP3   OH263306   0.891   2.672  14.919  0.2799 -0.7776  0.1357
13964TIP3    H163307   0.911   2.653  14.828  0.2377 -0.0134 -0.0409
13964TIP3    H263308   0.953   2.742  14.943  0.5676 -1.2522  0.8110
13965TIP3   OH263309   5.180   0.824  15.044 -0.0735 -0.2064 -0.1449
13965TIP3    H163310   5.229   0.883  14.986  0.0131  0.2737  0.4094
13965TIP3    H263311   5.245   0.796  15.109 -0.2809 -0.3888 -0.0178
13966TIP3   OH263312   2.511   4.638  16.818  0.2177  0.2609  0.4822
13966TIP3    H163313   2.424   4.653  16.781 -0.1598 -1.2141  0.7148
13966TIP3    H263314   2.559   4.719  16.800 -0.3052  0.0679 -2.1823
13967TIP3   OH263315   2.778   3.325   4.383 -0.3284  0.6396  0.6771
13967TIP3    H163316   2.701   3.371   4.418 -0.6704  1.2955 -0.8353
13967TIP3    H263317   2.746   3.282   4.304  1.2623  2.7617 -1.2677
13968TIP3   OH263318   4.454   4.440  14.566  0.1331 -0.1394 -0.1655
13968TIP3    H163319   4.486   4.413  14.652  4.4248  1.5343 -0.9914
13968TIP3    H263320   4.453   4.536  14.570 -1.1676 -0.0490 -1.5576
13969TIP3   OH263321   6.533   6.617  16.843 -0.6042  0.2879 -0.0562
13969TIP3    H163322   6.506   6.624  16.935 -1.6272 -3.6996  0.1195
13969TIP3    H263323   6.451   6.603  16.795 -0.0575  2.0722 -1.6424
13970TIP3   OH263324   3.553   1.334   6.159  0.3488  0.0519  0.2498
13970TIP3    H163325   3.553   1.419   6.114  0.5531 -0.4360 -0.6936
13970TIP3    H263326   3.500   1.348   6.237 -0.8185  0.6682 -0.6240
13971TIP3   OH263327   4.208   6.165   1.599 -0.0588  0.4350  0.0104
13971TIP3    H163328   4.245   6.136   1.683 -0.6551 -1.7075 -0.3858
13971TIP3    H263329   4.119   6.128   1.599 -0.0560  0.3800 -1.5505
13972TIP3   OH263330   1.925   0.249   1.041  0.2008  0.7777  0.4365
13972TIP3    H163331   2.015   0.279   1.028  0.3784  0.0582 -0.0593
13972TIP3    H263332   1.929   0.197   1.122  0.0208  1.5453  0.9508
13973TIP3   OH263333   6.330   0.103   4.649  0.2340  0.5833 -0.3016
13973TIP3    H163334   6.310   0.150   4.567 -1.2567  0.5639  0.0172
13973TIP3    H263335   6.244   0.079   4.684  0.9151 -1.0997  0.3032
13974TIP3   OH263336   0.843   0.168   3.237  0.3006 -0.0785 -0.1142
13974TIP3    H163337   0.758   0.145   3.275 -0.4658 -1.4040 -2.4188
13974TIP3    H263338   0.894   0.087   3.240  2.4445  1.1986  3.2471
13975TIP3   OH263339   6.096   4.666  15.272  0.0638 -0.3432  0.0846
13975TIP3    H163340   6.099   4.745  15.326 -1.8209 -0.5561  0.5801
13975TIP3    H263341   6.013   4.624  15.296  1.7196 -3.3611  1.1088
13976TIP3   OH263342   6.094   2.561   1.784 -0.0947  0.3370  0.1016
13976TIP3    H163343   6.107   2.571   1.878 -0.2218 -0.3431  0.1950
13976TIP3    H263344   6.152   2.490   1.758 -0.5017  0.1135 -0.2244
13977TIP3   OH263345   4.515   4.872   3.403  0.1304 -0.0094 -0.0956
13977TIP3    H163346   4.605   4.890   3.377  0.0096  0.1803 -0.3836
13977TIP3    H263347   4.466   4.951   3.378  0.4607  1.3427  3.0853
13978TIP3   OH263348   6.089   3.334  13.299  0.4693  0.0700 -0.2102
13978TIP3    H163349   6.062   3.242  13.304  0.8690  0.0040  2.8995
13978TIP3    H263350   6.185   3.331  13.293  0.6304  0.1941  1.6203
13979TIP3   OH263351   6.277   3.251   5.959  0.2792 -0.2305  0.2116
13979TIP3    H163352   6.360   3.283   5.994 -0.1129 -1.1055  2.0659
13979TIP3    H263353   6.212   3.316   5.989  0.3941  1.1856 -2.3548
13980TIP3   OH263354   0.206   4.761   5.981  0.2495 -0.0934  0.0992
13980TIP3    H163355   0.170   4.789   6.066  1.1734  0.1268  0.4346
13980TIP3    H263356   0.130   4.727   5.933 -0.6108  1.3355  0.3672
13981TIP3   OH263357   4.736   5.135   3.900 -0.5136 -0.8528 -0.1078
13981TIP3    H163358   4.798   5.102   3.966  1.6338  2.6588 -0.0996
13981TIP3    H263359   4.661   5.076   3.906  0.7465 -2.3959  3.4605
13982TIP3   OH263360   0.855   6.516   2.092 -0.7312  0.3487 -0.2424
13982TIP3    H163361   0.946   6.546   2.103 -0.2329  0.4993 -3.5683
13982TIP3    H263362   0.850   6.435   2.141  1.4970 -0.1033 -0.6527
13983TIP3   OH263363   2.584   6.175   3.389  0.7216  0.3577  0.4344
13983TIP3    H163364   2.490   6.175   3.408  0.8276 -0.0002  0.9967
13983TIP3    H263365   2.600   6.259   3.345  0.0266  0.1365 -0.2698
13984TIP3   OH263366   2.469   3.799  12.028  0.3331  0.0770 -0.5494
13984TIP3    H163367   2.490   3.836  11.942 -2.0775 -0.5197 -1.4649
13984TIP3    H263368   2.513   3.857  12.090  3.0832 -0.1067 -2.1572
13985TIP3   OH263369   1.328   1.908   2.886 -0.2420 -0.0946  0.4935
13985TIP3    H163370   1.287   1.910   2.800 -2.3666 -1.0875  1.4067
13985TIP3    H263371   1.343   1.815   2.903  0.9824  0.1591  0.8355
13986TIP3   OH263372   1.835   2.038  15.721  0.3840  0.5036 -0.0710
13986TIP3    H163373   1.860   2.054  15.812  0.5492 -0.6267  0.0847
13986TIP3    H263374   1.740   2.028  15.724  0.5119 -0.7071  0.1593
13987TIP3   OH263375   1.782   0.108  16.945 -0.2470  0.1667 -0.3071
13987TIP3    H163376   1.788   0.199  16.917  0.0314  0.7345  1.4710
13987TIP3    H263377   1.790   0.111  17.041  2.7623 -1.9614 -0.3220
13988TIP3   OH263378   2.806   3.636   6.408 -0.0091  0.4679 -0.4328
13988TIP3    H163379   2.720   3.594   6.411  1.0854 -1.8845  1.4703
13988TIP3    H263380   2.810   3.676   6.321 -3.4070  1.6669 -0.2231
13989TIP3   OH263381   4.011   1.113   4.091  0.0290 -0.2316  0.3058
13989TIP3    H163382   4.100   1.129   4.124  0.3073  0.9953 -0.9341
13989TIP3    H263383   4.024   1.070   4.007 -0.6059 -1.2328  0.7034
13990TIP3   OH263384   3.193   1.605   4.432  0.2329 -0.3053 -0.2930
13990TIP3    H163385   3.287   1.622   4.429  0.5060 -1.7768 -2.0579
13990TIP3    H263386   3.186   1.510   4.417 -1.4986 -0.3794  0.7846
13991TIP3   OH263387   3.894   3.775  17.038 -0.2581 -0.1725  0.4696
13991TIP3    H163388   3.849   3.819  17.109  1.6956  0.3910  1.4239
13991TIP3    H263389   3.896   3.839  16.967  0.4896  0.4416  1.0245
13992TIP3   OH263390   0.596   5.253  14.752 -0.1772  0.0038 -0.1142
13992TIP3    H163391   0.640   5.235  14.834  1.3447  0.5792 -0.7600
13992TIP3    H263392   0.532   5.321  14.773 -0.9307 -0.9841  0.8781
13993TIP3   OH263393   0.684   4.492  14.073  0.0218 -0.5085  0.7745
13993TIP3    H163394   0.617   4.475  14.140  0.3007 -1.0987  0.9111
13993TIP3    H263395   0.758   4.527  14.121 -0.1893  0.1580  0.6213
13994TIP3   OH263396   3.940   1.624   6.590 -0.4488  0.1370  0.0528
13994TIP3    H163397   4.027   1.589   6.570 -0.8754 -0.4091 -0.9568
13994TIP3    H263398   3.906   1.567   6.659  0.3033  0.8584  1.0385
13995TIP3   OH263399   1.704   4.550   3.183  0.4506  0.2369  0.1957
13995TIP3    H163400   1.764   4.555   3.258  1.8106  3.9238 -0.9258
13995TIP3    H263401   1.757   4.514   3.112 -0.0225 -0.6134  0.2559
13996TIP3   OH263402   1.954   3.805   2.382  0.5997 -0.4275 -0.4576
13996TIP3    H163403   1.892   3.733   2.382  0.1892 -0.0994 -1.5557
13996TIP3    H263404   2.021   3.780   2.445 -0.3053 -1.0857  0.2650
13997TIP3   OH263405   4.359   1.462  14.273  0.2162 -0.4868  0.5334
13997TIP3    H163406   4.319   1.390  14.322  3.4490 -1.7377  1.6366
13997TIP3    H263407   4.374   1.530  14.339 -0.0972 -0.0258  0.1368
13998TIP3   OH263408   4.409   0.105  14.489  0.1455  0.4377  0.0156
13998TIP3    H163409   4.493   0.121  14.446  0.6548  0.5604  1.0446
13998TIP3    H263410   4.394   0.182  14.543 -0.1625 -0.0050  0.5762
13999TIP3   OH263411   2.777   3.159  11.148 -0.0487 -0.4333  0.0823
13999TIP3    H163412   2.853   3.115  11.187 -0.4970 -2.3298 -1.0650
13999TIP3    H263413   2.731   3.197  11.223  2.6316  1.9246  0.7272
14000TIP3   OH263414   0.827   1.724   2.382  0.0832 -0.1963 -0.1261
14000TIP3    H163415   0.751   1.668   2.397  0.6036 -0.1960  3.3945
14000TIP3    H263416   0.894   1.691   2.443  1.7758  1.7761 -0.8005
14001TIP3   OH263417   4.989   6.589  12.925  0.1598  0.3818  0.3508
14001TIP3    H163418   4.900   6.580  12.891  0.6356  1.2303 -1.2521
14001TIP3    H263419   5.018   6.675  12.893  2.0682 -0.5134 -0.4911
14002TIP3   OH263420   2.004   1.502   2.277 -0.5722 -0.1731  0.5175
14002TIP3    H163421   2.037   1.488   2.189  1.8967  0.3328  1.2862
14002TIP3    H263422   1.977   1.594   2.278  0.7431  0.2368  0.6413
14003TIP3   OH263423   6.095   3.982   4.929 -0.0490 -0.0756  0.0192
14003TIP3    H163424   6.060   4.019   4.849 -0.3534  0.3863  0.3576
14003TIP3    H263425   6.064   3.891   4.930  0.2920 -0.2036 -0.5750
14004TIP3   OH263426   3.680   5.877   1.375 -0.3653 -0.8814 -0.2878
14004TIP3    H163427   3.593   5.869   1.336 -1.4455  0.4036  1.6676
14004TIP3    H263428   3.700   5.971   1.371  0.1645 -0.9306  0.8102
14005TIP3   OH263429   5.222   3.437   0.031  0.7303 -0.5787  0.1527
14005TIP3    H163430   5.289   3.371   0.048  0.3618 -0.5940  1.6239
14005TIP3    H263431   5.272   3.517   0.012  1.1836 -0.5648  1.3419
14006TIP3   OH263432   1.508   5.007  11.981  0.3849  0.3599 -0.1021
14006TIP3    H163433   1.500   5.025  12.075 -1.0635  0.2900 -0.1934
14006TIP3    H263434   1.419   4.986  11.953  0.8549  0.0583 -1.4346
14007TIP3   OH263435   3.289   5.724  11.575 -0.0045 -0.1600 -0.1548
14007TIP3    H163436   3.224   5.672  11.528 -0.6485 -1.2577  1.8001
14007TIP3    H263437   3.238   5.783  11.630  0.7309  1.7224 -1.3826
14008TIP3   OH263438   5.834   6.369  17.357 -0.3442  0.3161  0.4611
14008TIP3    H163439   5.768   6.364  17.288 -0.0415 -1.3415  0.2385
14008TIP3    H263440   5.786   6.392  17.436 -1.0721 -0.0406  0.1309
14009TIP3   OH263441   4.032   0.969   3.329 -0.0509  0.3584 -0.4964
14009TIP3    H163442   3.974   0.902   3.292 -0.8823  1.3025 -0.9527
14009TIP3    H263443   3.975   1.021   3.385  1.0710 -0.6890  1.7164
14010TIP3   OH263444   0.799   5.202  11.984 -0.1545 -0.4447 -0.0990
14010TIP3    H163445   0.812   5.266  12.054  0.1046  0.2423 -0.7611
14010TIP3    H263446   0.880   5.206  11.932 -1.1942  0.6750 -1.7146
14011TIP3   OH263447   1.028   1.233  13.095  0.2573  0.4812 -0.5875
14011TIP3    H163448   1.056   1.163  13.154 -0.8222  0.4825 -0.0469
14011TIP3    H263449   1.105   1.251  13.041  0.7262 -0.7205 -0.3488
14012TIP3   OH263450   0.718   3.391  16.802  0.5946  0.3370 -0.0990
14012TIP3    H163451   0.727   3.298  16.820  0.9424  0.4909  0.5297
14012TIP3    H263452   0.794   3.432  16.843  1.8791  0.6281 -2.5648
14013TIP3   OH263453   3.977   2.772   5.845 -0.5635  0.8268 -0.2853
14013TIP3    H163454   3.947   2.681   5.840  0.2756  0.6003 -2.6864
14013TIP3    H263455   3.907   2.817   5.891 -0.5799 -1.1595  1.8062
14014TIP3   OH263456   2.237   1.853  14.166  0.5049  0.0012 -0.2807
14014TIP3    H163457   2.175   1.894  14.227  0.6469 -1.2771  0.7768
14014TIP3    H263458   2.322   1.890  14.190  0.5383 -0.3838  0.2030
14015TIP3   OH263459   1.953   5.291  16.771 -0.1383  0.1650 -0.4550
14015TIP3    H163460   1.951   5.230  16.697  0.9905 -0.9265  0.3890
14015TIP3    H263461   1.938   5.377  16.731  2.0342 -0.1896 -2.1928
14016TIP3   OH263462   4.557   1.481  11.770 -0.2497 -0.3937  0.2960
14016TIP3    H163463   4.594   1.567  11.792 -0.5743 -0.7827  2.6578
14016TIP3    H263464   4.516   1.493  11.685  0.8723  1.4314 -0.0260
14017TIP3   OH263465   3.441   1.115  12.787 -0.5012 -0.1017 -0.3218
14017TIP3    H163466   3.420   1.025  12.761  0.5481 -0.5518  0.3120
14017TIP3    H263467   3.449   1.162  12.704  0.0293 -0.8560 -0.7190
14018TIP3   OH263468   3.529   1.824   0.392  0.1556 -0.1813  0.0311
14018TIP3    H163469   3.579   1.901   0.421 -0.5530  0.3005  0.0105
14018TIP3    H263470   3.526   1.767   0.469 -0.5358  0.4650  0.4963
14019TIP3   OH263471   5.266   4.461   0.375  0.3480 -0.0798 -0.1937
14019TIP3    H163472   5.354   4.424   0.379  0.4461 -0.2827 -2.8945
14019TIP3    H263473   5.212   4.390   0.341 -0.6282  0.4458  0.2343
14020TIP3   OH263474   5.665   2.487  14.149  0.1628 -0.6157 -0.6093
14020TIP3    H163475   5.700   2.502  14.237 -0.1251  0.9251 -0.7254
14020TIP3    H263476   5.600   2.417  14.161  0.2477 -0.5429  0.3728
14021TIP3   OH263477   2.469   6.714  11.717 -0.3508 -0.0931 -0.2427
14021TIP3    H163478   2.463   6.619  11.705 -0.4842 -0.0313 -0.6911
14021TIP3    H263479   2.443   6.728  11.808  0.2617 -0.5398  0.0106
14022TIP3   OH263480   2.323   2.165   2.171 -0.3338 -0.6528  0.7589
14022TIP3    H163481   2.254   2.222   2.135 -0.1337 -0.0032  1.3788
14022TIP3    H263482   2.397   2.176   2.112 -0.8969 -1.7129 -0.1778
14023TIP3   OH263483   6.652   1.103  10.773 -0.2207  0.1577  0.0900
14023TIP3    H163484   6.586   1.076  10.836  0.5849  0.7370  1.2174
14023TIP3    H263485   6.725   1.134  10.826  1.1528 -0.8745 -1.1044
14024TIP3   OH263486   5.269   4.240   5.293 -0.0011 -0.3916  0.1188
14024TIP3    H163487   5.197   4.280   5.244 -0.3018  0.8731  1.5411
14024TIP3    H263488   5.238   4.152   5.313 -1.5008  0.3706  1.3411
14025TIP3   OH263489   1.684   6.210   2.206 -0.2478 -0.2643 -0.3566
14025TIP3    H163490   1.722   6.149   2.270 -0.6187  2.7587  3.0886
14025TIP3    H263491   1.590   6.202   2.219 -0.4760 -1.1862 -2.2653
14026TIP3   OH263492   0.714   3.902  17.240 -0.6429  0.1047 -0.7969
14026TIP3    H163493   0.675   3.825  17.282  0.1237 -0.5166 -1.1909
14026TIP3    H263494   0.719   3.879  17.147 -1.6455  1.1717 -1.1421
14027TIP3   OH263495   3.616   1.797  15.006 -0.3861 -0.4068  0.0666
14027TIP3    H163496   3.569   1.750  14.938  0.1390  0.5512 -0.9878
14027TIP3    H263497   3.548   1.841  15.057 -0.7141 -0.1747 -0.5695
14028TIP3   OH263498   0.485   5.165   1.837 -1.1334 -0.5415  0.4239
14028TIP3    H163499   0.445   5.187   1.921 -1.7633 -0.2131  0.0476
14028TIP3    H263500   0.410   5.151   1.778 -0.7697 -3.0023  0.4531
14029TIP3   OH263501   6.519   2.716   3.495  0.6107  0.2889  0.2791
14029TIP3    H163502   6.521   2.691   3.402 -2.8013 -1.3929  0.4942
14029TIP3    H263503   6.608   2.702   3.525  1.6857  0.2517 -2.5869
14030TIP3   OH263504   1.099   0.498  13.160 -0.2233  0.0778 -0.2416
14030TIP3    H163505   1.177   0.480  13.213 -0.3422 -2.4830 -0.7794
14030TIP3    H263506   1.027   0.500  13.223  0.0418  0.4286  0.0487
14031TIP3   OH263507   5.583   5.565  12.566 -0.1872 -0.3594  0.3356
14031TIP3    H163508   5.535   5.640  12.532 -0.3094 -0.0372  1.1778
14031TIP3    H263509   5.670   5.598  12.586 -0.2689 -0.4043  0.7966
14032TIP3   OH263510   2.605   6.441   4.023 -0.5807 -0.0186 -0.0467
14032TIP3    H163511   2.673   6.437   3.956  0.4957 -0.6151  1.0457
14032TIP3    H263512   2.577   6.351   4.035  1.8541 -0.5402  2.8374
14033TIP3   OH263513   0.293   4.954   1.086 -0.5418  0.3067  0.3478
14033TIP3    H163514   0.301   4.905   1.004 -0.1778 -0.5197  0.8652
14033TIP3    H263515   0.226   5.020   1.068 -0.5663  0.0503 -0.5712
14034TIP3   OH263516   4.528   4.386   1.200  0.6453 -0.0345  0.1457
14034TIP3    H163517   4.558   4.341   1.279  0.0107 -1.1047 -0.2007
14034TIP3    H263518   4.577   4.345   1.129  0.3731  0.1213 -0.1344
14035TIP3   OH263519   4.684   0.138  12.628  0.1401  0.0448  0.2766
14035TIP3    H163520   4.728   0.199  12.688 -0.7015 -0.2316  1.1966
14035TIP3    H263521   4.703   0.173  12.541  1.6518  0.2773  0.6691
14036TIP3   OH263522   1.030   0.920  12.838 -0.1583  0.2039 -0.1053
14036TIP3    H163523   0.954   0.876  12.876 -0.4397 -0.8568 -1.7879
14036TIP3    H263524   1.070   0.966  12.911 -1.0390 -1.2007  1.3266
14037TIP3   OH263525   3.406   5.907   0.451 -0.2420  0.3183  0.5488
14037TIP3    H163526   3.311   5.912   0.468 -0.4278 -1.5849  0.2204
14037TIP3    H263527   3.446   5.946   0.529 -1.2822  2.3841  0.1189
14038TIP3   OH263528   3.593   3.831  11.355  0.2860  0.4461 -0.2696
14038TIP3    H163529   3.612   3.748  11.399  0.8905 -0.0214 -1.3734
14038TIP3    H263530   3.557   3.806  11.270 -1.7874  1.3405  0.2805
14039TIP3   OH263531   4.807   5.517  10.668 -0.2727 -0.1440 -0.5128
14039TIP3    H163532   4.855   5.600  10.678 -1.4850  0.6737 -1.1338
14039TIP3    H263533   4.867   5.450  10.700  1.0469  0.8950 -0.7144
14040TIP3   OH263534   3.464   3.354   2.244 -0.3584  0.1702 -0.2995
14040TIP3    H163535   3.545   3.363   2.294 -0.8356  3.0878  0.1778
14040TIP3    H263536   3.461   3.262   2.217  3.7744  0.2240 -1.5573
14041TIP3   OH263537   2.247   4.312  15.264  0.5965  0.4194 -0.3857
14041TIP3    H163538   2.312   4.313  15.334 -0.8161  2.3460  0.9647
14041TIP3    H263539   2.163   4.301  15.309 -0.1027 -2.4947 -2.1122
14042TIP3   OH263540   0.742   1.133  14.024 -0.2979 -0.0711  0.0733
14042TIP3    H163541   0.801   1.098  14.090 -0.1317 -1.9504 -0.9886
14042TIP3    H263542   0.793   1.131  13.943 -0.2543  2.8337 -0.0894
14043TIP3   OH263543   0.514   4.381   2.955  0.2177  0.0635 -0.3324
14043TIP3    H163544   0.529   4.289   2.930  1.2994  0.1583 -0.1061
14043TIP3    H263545   0.439   4.378   3.013 -0.7419 -0.4766 -1.5464
14044TIP3   OH263546   4.815   2.566   2.923 -0.3960  0.3413 -0.4777
14044TIP3    H163547   4.739   2.609   2.964  0.6975  1.2761  0.6472
14044TIP3    H263548   4.827   2.487   2.975 -1.1971 -0.3340 -1.2962
14045TIP3   OH263549   6.377   4.200  12.525  0.5625 -0.9420  0.2580
14045TIP3    H163550   6.381   4.265  12.595  1.2465  0.6447 -1.2034
14045TIP3    H263551   6.284   4.184  12.511  0.2261  1.8889 -1.2553
14046TIP3   OH263552   1.634   2.018  15.179  0.4440  0.6663  0.2847
14046TIP3    H163553   1.728   2.007  15.186  0.6298  1.8492 -0.0529
14046TIP3    H263554   1.622   2.113  15.172 -0.7562  0.5188  0.1623
14047TIP3   OH263555   3.308   0.851  12.321 -0.4497  0.4487  0.5428
14047TIP3    H163556   3.346   0.938  12.311  2.0867 -0.7516 -1.4287
14047TIP3    H263557   3.355   0.797  12.257 -2.3079 -2.2639  1.3004
14048TIP3   OH263558   3.319   1.943   6.438 -0.3420 -0.0528 -0.5209
14048TIP3    H163559   3.395   1.985   6.478 -1.2717 -0.4215  1.7534
14048TIP3    H263560   3.299   1.868   6.495  0.1550 -2.6106 -3.4413
14049TIP3   OH263561   1.658   4.310   2.926 -0.1515  0.3012 -0.0512
14049TIP3    H163562   1.643   4.246   2.856 -1.2249 -0.4590  0.8420
14049TIP3    H263563   1.580   4.366   2.925  0.0394  0.5807  0.2491
14050TIP3   OH263564   6.061   2.633   3.368 -0.1425  0.5122  0.2796
14050TIP3    H163565   6.020   2.548   3.356  0.3285  0.2036  0.8405
14050TIP3    H263566   6.004   2.680   3.428  0.1130  0.2279  0.7471
14051TIP3   OH263567   5.799   1.666  10.708 -0.1421  0.2488 -0.3047
14051TIP3    H163568   5.761   1.654  10.621  0.2199  0.7852 -0.5440
14051TIP3    H263569   5.875   1.608  10.710 -2.0995 -2.4921  0.9486
14052TIP3   OH263570   3.447   3.292  15.375  0.1633  0.0042 -0.6580
14052TIP3    H163571   3.472   3.365  15.431 -1.2049 -1.9403  2.8323
14052TIP3    H263572   3.499   3.218  15.408 -2.1009 -1.6558 -0.5284
14053TIP3   OH263573   5.721   3.540  12.634  0.0506 -0.4319 -0.3720
14053TIP3    H163574   5.683   3.454  12.653  1.0242 -1.0102 -0.9602
14053TIP3    H263575   5.652   3.602  12.659 -1.0918 -1.4125 -0.9450
14054TIP3   OH263576   6.745   0.121  15.364  0.0343  0.0213 -0.1345
14054TIP3    H163577   6.761   0.190  15.429 -2.0156  0.4317  0.0129
14054TIP3    H263578   6.756   0.039  15.413 -2.1035  0.3263  0.9791
14055TIP3   OH263579   5.837   2.200   5.373 -0.0125  0.4139  0.7568
14055TIP3    H163580   5.777   2.174   5.443 -0.0843  0.8902  0.8763
14055TIP3    H263581   5.924   2.181   5.409 -0.0875 -0.3762  0.5414
14056TIP3   OH263582   0.994   2.815  11.091 -0.3647  0.3891 -0.2629
14056TIP3    H163583   0.920   2.766  11.054 -0.6993 -0.1798  1.1086
14056TIP3    H263584   1.033   2.858  11.015 -1.0845 -0.6393 -1.2730
14057TIP3   OH263585   5.844   0.974   6.199  0.5132 -0.0635 -0.6556
14057TIP3    H163586   5.937   0.978   6.223  0.4106 -1.7215  0.1660
14057TIP3    H263587   5.798   1.001   6.279  0.2525 -1.6835 -0.2382
14058TIP3   OH263588   1.997   1.977   1.070 -0.1510  0.0183  0.0746
14058TIP3    H163589   1.949   1.895   1.086  1.1879 -0.7434  0.3097
14058TIP3    H263590   1.992   1.990   0.976  0.8367 -1.1175 -0.1518
14059TIP3   OH263591   6.440   5.444   0.853  0.3139 -0.3213  0.1243
14059TIP3    H163592   6.496   5.491   0.915  1.1003 -0.4254 -0.4946
14059TIP3    H263593   6.489   5.444   0.771 -1.7599  2.0418 -1.2676
14060TIP3   OH263594   3.471   0.405   5.152  0.5906 -0.2800 -0.3224
14060TIP3    H163595   3.459   0.335   5.088  1.4981 -1.0872  0.3580
14060TIP3    H263596   3.426   0.374   5.230  1.5928 -0.4418  0.2068
14061TIP3   OH263597   2.392   2.966   0.032  0.3634  0.2843 -0.2851
14061TIP3    H163598   2.351   2.880   0.022 -1.6931  1.0062  1.2640
14061TIP3    H263599   2.432   2.964   0.119  0.0143  0.9999 -0.1049
14062TIP3   OH263600   0.687   3.064  15.448  0.0915 -0.2072 -0.0524
14062TIP3    H163601   0.690   3.150  15.406 -0.2193 -0.6972 -1.1234
14062TIP3    H263602   0.775   3.028  15.434  0.6131  0.3955  1.4590
14063TIP3   OH263603   6.519   4.027  14.925 -0.3335  0.2258  0.2884
14063TIP3    H163604   6.493   3.939  14.898 -0.9281  0.8554 -1.2797
14063TIP3    H263605   6.498   4.031  15.019  0.2204 -1.4666  0.5140
14064TIP3   OH263606   6.558   3.062   0.296  0.2030 -0.1138 -0.2698
14064TIP3    H163607   6.634   3.114   0.321  0.7181 -0.3726 -1.2342
14064TIP3    H263608   6.527   3.102   0.215 -0.7027 -0.0058  0.1202
14065TIP3   OH263609   1.478   0.127  14.740 -0.2024  0.0692 -0.5005
14065TIP3    H163610   1.405   0.082  14.697  0.5878 -0.3407 -1.4704
14065TIP3    H263611   1.455   0.127  14.833 -1.1247 -0.6355 -0.7117
14066TIP3   OH263612   5.462   0.001   3.028 -0.1819  0.5820 -0.1312
14066TIP3    H163613   5.459   0.010   3.123  0.0133 -0.1975 -0.0400
14066TIP3    H263614   5.419  -0.083   3.011  1.1823 -0.0556 -0.5870
14067TIP3   OH263615   0.303   1.272   5.408  0.1828 -0.6227  0.3380
14067TIP3    H163616   0.379   1.223   5.377  1.3468  0.7979  0.8467
14067TIP3    H263617   0.229   1.232   5.362  1.3884 -1.0725 -1.3283
14068TIP3   OH263618   5.557   6.736  13.339  0.3721 -0.1799 -0.5622
14068TIP3    H163619   5.580   6.708  13.427  0.2700 -1.0231 -0.7957
14068TIP3    H263620   5.579   6.829  13.337 -0.8977  0.1945  0.7917
14069TIP3   OH263621   4.402   1.516   2.731  0.0283  0.5623 -1.1061
14069TIP3    H163622   4.352   1.500   2.811 -0.8852  1.0650 -1.5605
14069TIP3    H263623   4.468   1.581   2.757  1.9960 -1.7483  0.0665
14070TIP3   OH263624   4.222   1.896  12.163 -0.2113 -0.0017 -0.1912
14070TIP3    H163625   4.221   1.807  12.197  1.3025 -1.9352 -4.4897
14070TIP3    H263626   4.149   1.900  12.101 -0.9455  2.1881  0.7169
14071TIP3   OH263627   3.315   6.141  16.446  0.1082 -0.1887  0.2125
14071TIP3    H163628   3.281   6.145  16.536 -1.0020  0.1711 -0.2176
14071TIP3    H263629   3.374   6.066  16.447 -0.3054 -0.5191  1.1054
14072TIP3   OH263630   3.434   6.694   2.676 -0.2530 -0.0866  0.2123
14072TIP3    H163631   3.421   6.628   2.744 -1.8873 -1.3238 -1.1997
14072TIP3    H263632   3.346   6.730   2.660 -0.0206 -0.1866 -1.5499
14073TIP3   OH263633   0.907   4.407  13.391  0.3501  0.6749 -0.2132
14073TIP3    H163634   0.887   4.481  13.333 -1.5436 -0.0731 -0.5934
14073TIP3    H263635   1.000   4.389  13.376 -0.2050 -0.0987 -3.8145
14074TIP3   OH263636   3.668   3.784  14.259 -0.0859 -0.4873  0.2950
14074TIP3    H163637   3.688   3.837  14.181 -0.8646  0.3682  0.6527
14074TIP3    H263638   3.718   3.826  14.329 -0.8940 -0.0597  0.6285
14075TIP3   OH263639   2.266   1.366  13.712 -0.3878 -0.3672 -0.0784
14075TIP3    H163640   2.217   1.376  13.631 -0.0751  1.0816 -0.1051
14075TIP3    H263641   2.199   1.345  13.778 -0.9509  0.7158 -0.2853
14076TIP3   OH263642   1.484   1.067   3.783 -0.8106  0.1719  0.1656
14076TIP3    H163643   1.542   1.014   3.728 -0.0019  0.0740  1.0991
14076TIP3    H263644   1.497   1.033   3.872 -1.8796  0.5259  0.4740
14077TIP3   OH263645   3.259   4.626  16.252 -0.1022  0.5671 -0.1686
14077TIP3    H163646   3.217   4.681  16.318  0.1417 -1.0438  1.4107
14077TIP3    H263647   3.189   4.609  16.188 -0.7175  1.1337  0.3355
14078TIP3   OH263648   5.385   1.673  11.332 -0.2664 -0.7713 -0.3961
14078TIP3    H163649   5.399   1.717  11.248  1.0053  0.0383  0.2117
14078TIP3    H263650   5.426   1.587  11.321  1.0772 -0.1789 -0.2037
14079TIP3   OH263651   0.022   5.682   6.265  0.9037 -0.1648  0.1014
14079TIP3    H163652  -0.046   5.713   6.326  1.3971  0.6753  0.2342
14079TIP3    H263653   0.051   5.599   6.303  0.5572 -0.1060  0.5129
14080TIP3   OH263654   3.282   4.277  13.060 -0.5151  0.2482  0.4842
14080TIP3    H163655   3.237   4.361  13.058 -1.2159 -0.1160  0.8833
14080TIP3    H263656   3.258   4.234  12.977 -1.2191 -0.1060  0.8667
14081TIP3   OH263657   0.292   5.854   1.723  0.2817  0.3281 -0.0624
14081TIP3    H163658   0.351   5.920   1.760  0.7165  0.6954 -1.3699
14081TIP3    H263659   0.349   5.796   1.672 -0.1944 -0.6514  0.4774
14082TIP3   OH263660   4.433   1.176  17.042  0.3829 -0.1645  0.3931
14082TIP3    H163661   4.440   1.096  17.095 -0.1268 -0.0611  0.6199
14082TIP3    H263662   4.340   1.185  17.024  0.3858  0.6184  0.7358
14083TIP3   OH263663   2.898   3.626   5.275 -0.5682  0.4518  0.1513
14083TIP3    H163664   2.911   3.703   5.220 -1.9502  0.9768  0.5384
14083TIP3    H263665   2.806   3.629   5.301 -0.0636 -0.0190  2.1517
14084TIP3   OH263666   6.407   3.641  16.899  0.7025 -1.3474 -0.3625
14084TIP3    H163667   6.423   3.596  16.983  1.5601  0.4017  0.4681
14084TIP3    H263668   6.495   3.665  16.869  0.2303  1.1822  0.0838
14085TIP3   OH263669   5.760   4.659   2.205 -0.1594  0.2446  0.1236
14085TIP3    H163670   5.851   4.678   2.229 -0.3569  2.3424 -0.5601
14085TIP3    H263671   5.730   4.596   2.271  2.0204 -1.1409 -0.1411
14086TIP3   OH263672   4.738   6.016   0.371 -0.7576  0.1316  0.3969
14086TIP3    H163673   4.745   5.921   0.360 -0.2617  0.3829 -1.9005
14086TIP3    H263674   4.651   6.029   0.409 -0.6056 -1.2580  1.2969
14087TIP3   OH263675   4.136   2.432  16.193 -0.7014 -0.7500  0.3173
14087TIP3    H163676   4.144   2.510  16.138 -1.0328 -1.2617 -0.4674
14087TIP3    H263677   4.200   2.446  16.263  0.5591 -0.6199 -0.8281
14088TIP3   OH263678   0.035   3.582   0.428  0.0269 -0.2549  0.1070
14088TIP3    H163679  -0.025   3.562   0.356 -0.5409 -1.4763  0.8887
14088TIP3    H263680   0.115   3.534   0.407  0.6745  1.1447 -0.7891
14089TIP3   OH263681   2.685   4.061  11.222 -0.4866 -0.4938  0.2049
14089TIP3    H163682   2.620   4.131  11.220 -0.3495 -0.3252  1.0514
14089TIP3    H263683   2.650   3.998  11.285 -0.6720 -1.2551 -0.6500
14090TIP3   OH263684   5.648   4.144   5.922  0.2880  0.0020  0.3717
14090TIP3    H163685   5.714   4.191   5.870  0.7075  0.1921  1.0629
14090TIP3    H263686   5.699   4.084   5.977 -0.2931 -2.4606 -1.5911
14091TIP3   OH263687   3.780   6.238  11.974  0.2203 -0.7087 -0.4508
14091TIP3    H163688   3.727   6.158  11.972 -1.4936  0.3257  0.5771
14091TIP3    H263689   3.808   6.251  11.883  1.1345 -2.8157 -0.5101
14092TIP3   OH263690   0.617   2.314  14.019  0.0515 -0.8723 -0.5268
14092TIP3    H163691   0.577   2.293  13.935  3.6361 -0.4079 -2.5590
14092TIP3    H263692   0.709   2.289  14.009  1.0926  1.1266  2.5106
14093TIP3   OH263693   4.414   3.573   3.183  0.6758  0.1415 -0.0210
14093TIP3    H163694   4.431   3.483   3.157  0.3619  0.0983 -0.0842
14093TIP3    H263695   4.327   3.570   3.224  0.9905  0.2838  0.6549
14094TIP3   OH263696   2.320   4.516   1.803  0.1997  0.3602  0.0523
14094TIP3    H163697   2.331   4.599   1.850 -1.8160  0.2937  0.7491
14094TIP3    H263698   2.305   4.542   1.712 -1.7518  0.9229  0.4728
14095TIP3   OH263699   3.139   3.636  11.432  0.6169 -0.1511  0.4110
14095TIP3    H163700   3.121   3.547  11.465  0.6264  0.1326  1.2081
14095TIP3    H263701   3.104   3.694  11.500 -0.7173  0.4973 -0.7772
14096TIP3   OH263702   2.568   5.211  15.095 -0.1330 -0.1150 -0.5551
14096TIP3    H163703   2.521   5.192  15.176  1.6168 -0.8862  0.3386
14096TIP3    H263704   2.643   5.264  15.122 -1.4913  2.9016 -2.2026
14097TIP3   OH263705   2.016   0.911   1.976 -0.3356 -0.1230  0.4320
14097TIP3    H163706   1.921   0.918   1.985 -0.1174 -0.0644  4.1464
14097TIP3    H263707   2.030   0.821   1.945 -1.6055 -0.7083  1.4377
14098TIP3   OH263708   5.795   5.237   1.523 -0.4213 -0.1876  0.7205
14098TIP3    H163709   5.715   5.185   1.533 -0.1498 -0.5124  1.2515
14098TIP3    H263710   5.770   5.325   1.549 -0.7340 -0.1762  0.3906
14099TIP3   OH263711   3.094   6.153  11.551  0.1822 -0.0007 -0.1636
14099TIP3    H163712   3.079   6.242  11.581 -0.4581  0.0060 -0.4913
14099TIP3    H263713   3.077   6.156  11.457  3.1405  0.2143 -0.7803
14100TIP3   OH263714   4.892   1.472  12.417 -0.3866  0.2741 -0.1064
14100TIP3    H163715   4.807   1.496  12.453 -0.4065 -0.4978  0.3924
14100TIP3    H263716   4.890   1.503  12.327 -0.3959  2.1272  0.4767
14101TIP3   OH263717   4.799   6.090   1.628 -0.4588  0.0591  0.1224
14101TIP3    H163718   4.779   6.042   1.708 -1.7148  0.5016  0.1023
14101TIP3    H263719   4.797   6.024   1.558 -1.3589 -0.0177  0.2033
14102TIP3   OH263720   3.332   1.940  10.822 -0.3890  0.4885  0.3231
14102TIP3    H163721   3.243   1.923  10.853 -0.6374  0.1669 -0.5225
14102TIP3    H263722   3.359   1.856  10.785  0.6292  0.3148  1.4206
14103TIP3   OH263723   0.548   4.310  13.614 -0.5634  0.3125  0.3860
14103TIP3    H163724   0.500   4.315  13.531 -0.1193  2.6891  0.1835
14103TIP3    H263725   0.524   4.225  13.651 -2.5482  0.1410 -1.1092
14104TIP3   OH263726   0.415   6.484   4.698 -0.0528 -0.3902 -0.2621
14104TIP3    H163727   0.482   6.416   4.705 -0.0681 -0.8286 -3.3166
14104TIP3    H263728   0.462   6.566   4.713  0.2796 -0.8759  1.7631
14105TIP3   OH263729   1.860   2.627  14.827 -0.1679 -0.4079  0.1278
14105TIP3    H163730   1.856   2.698  14.890 -0.2342 -0.0592 -0.2659
14105TIP3    H263731   1.774   2.625  14.786 -0.4436 -1.2667  0.7269
14106TIP3   OH263732   2.811   2.214   6.302 -1.0983  0.1707  0.3600
14106TIP3    H163733   2.774   2.302   6.297 -2.1329 -0.3031 -2.1112
14106TIP3    H263734   2.905   2.226   6.287 -0.2893  1.2197  4.9557
14107TIP3   OH263735   4.557   1.854   1.608  0.3599 -0.4104 -0.2747
14107TIP3    H163736   4.649   1.827   1.601 -0.0205 -2.2519  0.9718
14107TIP3    H263737   4.508   1.780   1.574 -0.7203 -0.7103  1.7988
14108TIP3   OH263738   6.331   1.800  16.654  0.1420 -0.0236  0.0886
14108TIP3    H163739   6.371   1.715  16.634 -0.1412 -0.0358 -0.4197
14108TIP3    H263740   6.345   1.810  16.748  1.3553 -0.0242 -0.0707
14109TIP3   OH263741   6.369   2.898  13.290 -0.6279 -0.4384 -0.4200
14109TIP3    H163742   6.447   2.846  13.307 -0.2190  0.2215 -0.2287
14109TIP3    H263743   6.298   2.849  13.330 -0.2144 -0.7192 -0.0154
14110TIP3   OH263744   0.085   2.348   3.424 -0.6745 -0.0617 -0.3902
14110TIP3    H163745   0.015   2.393   3.471 -1.3575  0.4254 -1.8095
14110TIP3    H263746   0.066   2.364   3.331  3.2194  3.0571 -0.8950
14111TIP3   OH263747   5.835   0.578   2.490 -0.6218 -0.3263 -0.5273
14111TIP3    H163748   5.842   0.672   2.473  0.1011 -0.5531 -1.5790
14111TIP3    H263749   5.840   0.570   2.585 -0.3557  0.6679 -0.4488
14112TIP3   OH263750   1.751   5.121  13.573  0.6063  0.2741 -0.0539
14112TIP3    H163751   1.827   5.178  13.581  1.1870 -0.2818 -1.2892
14112TIP3    H263752   1.765   5.074  13.491 -0.7203 -0.3687  0.0594
14113TIP3   OH263753   3.753   0.949   0.503 -0.1519 -0.0301  0.3535
14113TIP3    H163754   3.794   0.890   0.567 -2.8568 -1.8459  0.5850
14113TIP3    H263755   3.816   1.020   0.492  3.1646 -2.6916  0.3976
14114TIP3   OH263756   6.043   1.333  16.981 -0.1066 -0.3123  0.6399
14114TIP3    H163757   6.014   1.274  17.051 -0.1798 -1.1010 -0.0412
14114TIP3    H263758   6.088   1.276  16.919  1.5278  0.6576  0.8889
14115TIP3   OH263759   4.375   0.097   2.805  0.6470  0.2986  0.1036
14115TIP3    H163760   4.300   0.038   2.796 -0.2067  1.4378 -0.4660
14115TIP3    H263761   4.416   0.070   2.887  0.4504 -1.2607 -0.2787
14116TIP3   OH263762   5.862   3.856  11.762  0.0577  0.3554  0.1010
14116TIP3    H163763   5.912   3.842  11.843 -0.0233 -0.0438  0.0884
14116TIP3    H263764   5.833   3.947  11.766 -1.0064 -0.0116  1.1239
14117TIP3   OH263765   2.985   2.681   1.751  0.6932 -0.9383 -0.1643
14117TIP3    H163766   3.006   2.770   1.721  1.2412 -1.4510 -1.3423
14117TIP3    H263767   3.054   2.661   1.814  1.3727 -1.0415 -0.9297
14118TIP3   OH263768   4.654   1.720  11.854  0.1387 -0.2180 -0.6013
14118TIP3    H163769   4.702   1.767  11.923 -0.9370 -0.6918  0.4967
14118TIP3    H263770   4.634   1.788  11.789  1.0437  0.2627 -0.4038
14119TIP3   OH263771   2.552   4.821  16.138 -0.7154 -0.3279  0.1686
14119TIP3    H163772   2.592   4.744  16.179 -0.6018 -0.2468  0.2098
14119TIP3    H263773   2.620   4.888  16.140 -0.5093 -0.4963 -0.6664
14120TIP3   OH263774   4.192   2.970   0.331 -0.4220 -0.0670  0.1542
14120TIP3    H163775   4.171   3.063   0.337  1.9981  0.8914 -3.2825
14120TIP3    H263776   4.163   2.944   0.244  1.1278 -1.8739  0.1109
14121TIP3   OH263777   1.079   0.977  15.209  0.2055  0.5864  0.3406
14121TIP3    H163778   1.137   0.916  15.257 -0.7166 -0.7900 -0.2214
14121TIP3    H263779   1.038   1.029  15.278  0.4598  0.0629  0.9034
14122TIP3   OH263780   2.664   1.148  10.797 -0.0557  0.1627 -0.3155
14122TIP3    H163781   2.701   1.174  10.712  0.2056  0.2693 -0.1711
14122TIP3    H263782   2.705   1.064  10.816 -0.4275 -0.0572 -0.4881
14123TIP3   OH263783   0.953   1.921  11.438 -0.5332  0.3537  0.0146
14123TIP3    H163784   0.973   2.014  11.428 -0.0609  0.0729 -2.2666
14123TIP3    H263785   0.864   1.913  11.402 -0.8950  0.0248  0.9519
14124TIP3   OH263786   4.802   0.663  12.698  0.0808 -0.8423 -0.4378
14124TIP3    H163787   4.867   0.679  12.767 -0.9432 -0.4490  0.4754
14124TIP3    H263788   4.731   0.618  12.743 -0.7357 -0.3222 -1.1895
14125TIP3   OH263789   2.951   1.533  14.050 -0.1747 -0.0982  0.5919
14125TIP3    H163790   2.964   1.440  14.066 -1.9715  0.0915  3.9316
14125TIP3    H263791   2.885   1.536  13.980 -1.0941 -1.3758  1.3629
14126TIP3   OH263792   4.207   5.648  16.330  0.0535  0.2961  0.6678
14126TIP3    H163793   4.224   5.742  16.334  0.7945  0.1565  1.1309
14126TIP3    H263794   4.200   5.629  16.237  1.4163  0.5746  0.4890
14127TIP3   OH263795   0.388   0.162  12.144  0.1039 -0.0558  0.3601
14127TIP3    H163796   0.346   0.240  12.110 -1.9772  0.2523  3.2719
14127TIP3    H263797   0.338   0.089  12.107  2.7054 -0.2920 -3.2317
14128TIP3   OH263798   0.636   1.996  13.940  0.0202  0.3237  0.2597
14128TIP3    H163799   0.627   2.064  13.873 -0.1242  0.5541  0.5117
14128TIP3    H263800   0.708   2.027  13.995  0.5175 -0.1436 -0.1189
14129TIP3   OH263801   0.135   4.272   6.349 -0.0117 -0.2337 -0.5697
14129TIP3    H163802   0.097   4.208   6.409 -0.7699  0.9028  0.2207
14129TIP3    H263803   0.226   4.244   6.337 -0.3723 -1.5188 -0.3676
14130TIP3   OH263804   4.004   4.954   1.668  0.3390 -0.0391 -0.8148
14130TIP3    H163805   4.025   5.003   1.589  0.4067 -1.0172 -1.4110
14130TIP3    H263806   3.981   4.866   1.637 -1.1717 -0.0066  0.1060
14131TIP3   OH263807   0.125   3.459  15.482  0.2411 -0.2894  0.3392
14131TIP3    H163808   0.088   3.539  15.520 -1.2008 -0.9524  0.3869
14131TIP3    H263809   0.067   3.390  15.513  0.2812 -1.1148 -1.3452
14132TIP3   OH263810   4.128   1.981  13.784  0.1386 -0.0182  0.1236
14132TIP3    H163811   4.141   1.928  13.706 -0.8818  0.3907 -0.3379
14132TIP3    H263812   4.044   1.953  13.819  0.0817  0.5603  0.4656
14133TIP3   OH263813   0.556   1.246   4.292  0.1603  0.0548 -0.5490
14133TIP3    H163814   0.640   1.290   4.308  1.2938 -2.1024 -0.1663
14133TIP3    H263815   0.530   1.215   4.379 -2.9109  3.5932  0.0589
14134TIP3   OH263816   6.351   6.745   3.519 -0.1014 -0.3812  0.2941
14134TIP3    H163817   6.360   6.812   3.587  0.3277 -0.4936  0.3496
14134TIP3    H263818   6.317   6.792   3.443  1.4803  0.1713 -0.0985
14135TIP3   OH263819   3.349   1.901  17.123  0.1842  0.1440  1.2152
14135TIP3    H163820   3.427   1.853  17.153  1.3909  0.8394 -0.6192
14135TIP3    H263821   3.360   1.988  17.160 -0.3409 -0.0732  1.8991
14136TIP3   OH263822   4.182   0.522   1.838 -0.0648 -0.5048 -0.0823
14136TIP3    H163823   4.090   0.549   1.843 -0.1412 -0.7474 -0.1513
14136TIP3    H263824   4.210   0.552   1.751 -0.0982 -0.4879 -0.0874
14137TIP3   OH263825   3.989   5.710  11.486  0.0834  0.4845  0.0771
14137TIP3    H163826   3.911   5.675  11.529  0.5836  0.4102  0.9563
14137TIP3    H263827   3.995   5.661  11.404 -1.0478  0.8304 -0.2243
14138TIP3   OH263828   4.857   6.574  10.420  0.3715 -0.2169  0.1563
14138TIP3    H163829   4.856   6.653  10.474  1.5204 -1.3160  1.8830
14138TIP3    H263830   4.767   6.565  10.390 -0.5894 -0.0318  2.6827
14139TIP3   OH263831   0.480   1.100   0.824 -0.2514  0.2719 -0.0794
14139TIP3    H163832   0.457   1.091   0.916  0.2596 -0.7286 -0.0349
14139TIP3    H263833   0.498   1.193   0.813 -3.3354  1.0084  0.0781
14140TIP3   OH263834   0.403   3.966  13.343  0.1404  0.1523 -0.0787
14140TIP3    H163835   0.496   3.988  13.346  0.1556  1.1507 -3.5227
14140TIP3    H263836   0.359   4.049  13.331 -0.8527 -0.5740 -1.8030
14141TIP3   OH263837   1.492   3.152  11.384 -0.2356 -0.6679 -0.1202
14141TIP3    H163838   1.485   3.075  11.440 -1.9749 -2.5184 -2.6854
14141TIP3    H263839   1.570   3.137  11.332  0.1754  0.0001  0.2867
14142TIP3   OH263840   4.945   4.417  13.494  0.2662 -0.1019  0.3135
14142TIP3    H163841   4.949   4.355  13.421 -1.9963 -0.4526  0.4145
14142TIP3    H263842   4.898   4.493  13.459 -1.2786 -0.4602  1.4619
14143TIP3   OH263843   2.053   0.086   1.622  0.1932  0.3444 -0.6142
14143TIP3    H163844   2.148   0.082   1.605  1.0255  0.1665  3.2084
14143TIP3    H263845   2.040   0.171   1.664 -1.2081  0.0271 -0.3673
14144TIP3   OH263846   2.477   1.387   3.236  0.1653 -0.1876 -0.3521
14144TIP3    H163847   2.404   1.337   3.198 -1.0603  0.9239  0.4541
14144TIP3    H263848   2.536   1.320   3.271 -1.3763 -1.1129  0.6298
14145TIP3   OH263849   0.428   1.273   3.672 -0.0412  0.4497 -0.1785
14145TIP3    H163850   0.489   1.328   3.721  0.6351 -0.6027  0.2027
14145TIP3    H263851   0.377   1.334   3.619  1.7945  1.3193 -1.0228
14146TIP3   OH263852   4.713   3.268  13.124 -0.1005 -0.0256  0.1501
14146TIP3    H163853   4.677   3.264  13.212 -1.0841  0.5245 -0.2155
14146TIP3    H263854   4.647   3.314  13.073  0.6304  0.0089 -0.7925
14147TIP3   OH263855   1.205   0.904  13.132 -0.5503 -0.1056  0.1272
14147TIP3    H163856   1.230   0.990  13.164 -0.0672 -0.4950  0.8296
14147TIP3    H263857   1.273   0.882  13.068 -0.9101  0.2068 -0.3727
14148TIP3   OH263858   0.748   5.031  12.743 -0.0268  0.2096 -0.1088
14148TIP3    H163859   0.829   4.988  12.771  0.3874  0.3541 -1.0690
14148TIP3    H263860   0.775   5.092  12.675 -0.5067  2.4633  1.5860
14149TIP3   OH263861   0.590   4.283  15.521 -0.1756  0.5159 -0.2969
14149TIP3    H163862   0.675   4.318  15.493  0.1292  0.4352  0.4991
14149TIP3    H263863   0.600   4.269  15.615 -0.0281 -2.3384 -0.6446
14150TIP3   OH263864   6.712   0.279  12.583  0.4769 -0.0871  0.2636
14150TIP3    H163865   6.730   0.331  12.505 -0.6220 -0.1857 -0.0667
14150TIP3    H263866   6.797   0.242  12.607  1.1445  1.2545  0.0874
14151TIP3   OH263867   1.452   6.582   0.666  0.3188  0.2056 -0.1582
14151TIP3    H163868   1.455   6.624   0.752  1.4486  0.2361 -0.1955
14151TIP3    H263869   1.519   6.514   0.671  1.1368  0.8832 -1.3388
14152TIP3   OH263870   2.683   6.449  15.600  0.0095 -0.3828 -0.0546
14152TIP3    H163871   2.711   6.365  15.564  1.1229 -0.8741  1.7787
14152TIP3    H263872   2.754   6.509  15.579  0.5858 -0.6324  1.0741
14153TIP3   OH263873   6.467   6.063   5.276  0.5068  0.0717  0.2336
14153TIP3    H163874   6.512   6.126   5.219  0.7058 -1.2694 -1.1814
14153TIP3    H263875   6.513   6.069   5.359  1.7723  0.4454 -0.4654
14154TIP3   OH263876   2.848   5.945  12.495 -0.4074  0.4532  0.0823
14154TIP3    H163877   2.890   5.865  12.527 -1.7394  0.3324  1.6381
14154TIP3    H263878   2.819   5.991  12.574 -2.5520  0.8561 -0.8587
14155TIP3   OH263879   1.744   4.554  17.057  0.2502 -0.0305  0.0496
14155TIP3    H163880   1.752   4.481  17.118 -0.5061  0.8691  1.2559
14155TIP3    H263881   1.656   4.589  17.071  0.5566  1.0553 -0.5783
14156TIP3   OH263882   4.510   2.900  16.355  0.8436 -0.0942 -0.0129
14156TIP3    H163883   4.560   2.916  16.436  1.7166 -0.8696 -0.3808
14156TIP3    H263884   4.549   2.960  16.292  0.9894 -0.3562 -0.1726
14157TIP3   OH263885   0.244   3.774   1.467 -0.1550  0.4429 -0.0193
14157TIP3    H163886   0.226   3.699   1.411  1.5531 -0.4979  0.5998
14157TIP3    H263887   0.214   3.850   1.416  0.5991 -0.4331 -1.8697
14158TIP3   OH263888   0.974   3.142   1.685  0.1886 -0.2225 -0.0481
14158TIP3    H163889   1.021   3.064   1.654  0.5307 -0.1679  0.3223
14158TIP3    H263890   0.945   3.186   1.605  1.0528 -0.0870 -0.3018
14159TIP3   OH263891   6.145   6.474   1.716 -0.1894 -0.0723 -0.0485
14159TIP3    H163892   6.169   6.553   1.764  1.4128 -0.2133 -0.5263
14159TIP3    H263893   6.102   6.418   1.780 -0.4807  0.8060  0.5356
14160TIP3   OH263894   5.804   5.437  15.191  0.4073 -0.1844 -0.1827
14160TIP3    H163895   5.753   5.357  15.177  0.8914 -0.9346  1.9877
14160TIP3    H263896   5.797   5.485  15.108 -1.9279 -1.3047 -0.7104
14161TIP3   OH263897   3.112   3.729   1.171 -0.0527 -0.3400 -0.4097
14161TIP3    H163898   3.137   3.821   1.163 -0.3604 -0.1409  0.7562
14161TIP3    H263899   3.040   3.719   1.109  0.2303  0.1028 -0.8237
14162TIP3   OH263900   0.149   1.970   6.309 -0.1549  0.0105 -0.0901
14162TIP3    H163901   0.204   1.995   6.384 -0.4718  0.9746 -0.1690
14162TIP3    H263902   0.206   1.980   6.233 -0.0072 -0.4085 -0.0377
14163TIP3   OH263903   1.136   0.477   5.858 -0.1842 -0.0629 -0.0210
14163TIP3    H163904   1.148   0.479   5.764  1.1944  1.8696  0.1477
14163TIP3    H263905   1.211   0.524   5.894 -0.5234 -0.9846  2.0700
14164TIP3   OH263906   3.541   2.773   4.077  0.1949  0.7318 -0.1605
14164TIP3    H163907   3.514   2.780   4.168  4.2975  0.2152  1.2621
14164TIP3    H263908   3.546   2.864   4.046  0.9095  1.0458  0.8516
14165TIP3   OH263909   1.822   6.117   0.069  0.2478 -0.4527 -0.0143
14165TIP3    H163910   1.766   6.143  -0.004  0.7031 -1.0310 -0.5869
14165TIP3    H263911   1.790   6.030   0.093  1.4297 -1.1706 -0.9222
14166TIP3   OH263912   5.455   0.516   1.883 -0.4111 -0.5533  0.5588
14166TIP3    H163913   5.438   0.466   1.803  0.4635 -0.1736  0.1088
14166TIP3    H263914   5.434   0.606   1.859  0.5537 -0.3244  0.4936
14167TIP3   OH263915   4.327   4.603  14.003 -0.0521 -0.8483  0.1758
14167TIP3    H163916   4.234   4.620  14.015  0.1386  0.4372  0.0589
14167TIP3    H263917   4.335   4.508  14.005 -1.3696 -0.9796  0.1173
14168TIP3   OH263918   5.191   6.280   0.626  0.3136  0.5929 -0.2473
14168TIP3    H163919   5.248   6.352   0.655  0.4401  0.3794  0.0307
14168TIP3    H263920   5.162   6.307   0.538 -0.8245  1.6788  0.4303
14169TIP3   OH263921   1.920   1.468  14.902 -0.0506  0.4976 -0.3698
14169TIP3    H163922   1.930   1.381  14.941 -2.2432  0.7183  0.8619
14169TIP3    H263923   1.930   1.529  14.975 -1.4479  1.0945 -0.6472
14170TIP3   OH263924   4.090   0.393  17.009  0.1594  0.1311 -0.1101
14170TIP3    H163925   4.145   0.353  17.077  0.6722  0.1484 -0.5034
14170TIP3    H263926   4.012   0.423  17.055  1.3022  1.7975  0.8129
14171TIP3   OH263927   0.944   4.967   5.166 -0.1684  0.2317 -0.6690
14171TIP3    H163928   1.013   5.002   5.110 -0.0655  1.5598  0.2183
14171TIP3    H263929   0.990   4.915   5.232 -0.0504  0.6828 -0.3898
14172TIP3   OH263930   2.280   2.556  11.771 -0.1065 -0.6054 -0.3689
14172TIP3    H163931   2.232   2.561  11.854  1.3774 -0.8640  0.5359
14172TIP3    H263932   2.269   2.643  11.732 -0.0619 -0.1786  0.5426
14173TIP3   OH263933   6.013   6.264  12.100  0.2471  0.4446 -0.2211
14173TIP3    H163934   6.047   6.265  12.189  4.8401 -0.0167 -1.7311
14173TIP3    H263935   5.984   6.353  12.084 -0.8797  0.4879  1.7193
14174TIP3   OH263936   2.536   0.233  15.262 -0.4241  0.2296 -0.5506
14174TIP3    H163937   2.501   0.170  15.325 -0.5949  0.4054 -0.4697
14174TIP3    H263938   2.459   0.271  15.220 -0.3031 -0.0947 -1.0705
14175TIP3   OH263939   4.448   1.911   0.824  0.1086 -0.3563 -0.1251
14175TIP3    H163940   4.505   1.890   0.898  0.1170 -3.0395 -0.8039
14175TIP3    H263941   4.485   1.991   0.787  1.5939 -0.3489  1.2777
14176TIP3   OH263942   1.863   5.414   0.174 -0.3605 -0.0617 -0.4522
14176TIP3    H163943   1.791   5.467   0.141 -1.4934 -0.5873  1.0173
14176TIP3    H263944   1.883   5.452   0.260 -0.2900 -1.1586  0.0382
14177TIP3   OH263945   0.204   3.931  11.964  0.8679  0.0707  0.0185
14177TIP3    H163946   0.135   3.995  11.953  1.4030  1.2283  2.6131
14177TIP3    H263947   0.277   3.964  11.912  0.1275 -0.1735 -1.2139
14178TIP3   OH263948   6.707   2.901  15.620  0.4471  0.2984 -0.0276
14178TIP3    H163949   6.692   2.851  15.540 -0.9356 -1.4230  1.2244
14178TIP3    H263950   6.628   2.955  15.630 -1.0970 -2.0980  1.9018
14179TIP3   OH263951   3.853   4.836   0.255  0.1384 -0.0878  0.0881
14179TIP3    H163952   3.773   4.865   0.212  1.3534  0.5835 -1.8425
14179TIP3    H263953   3.911   4.913   0.253  1.0681 -0.7377  0.8620
14180TIP3   OH263954   3.861   0.905  15.618 -0.1020 -0.0761  0.2280
14180TIP3    H163955   3.805   0.945  15.551  1.0300 -1.8975 -1.9167
14180TIP3    H263956   3.867   0.971  15.687 -0.7835  2.1544 -1.7459
14181TIP3   OH263957   2.987   6.667  14.288  0.2224  1.1922  0.3739
14181TIP3    H163958   2.894   6.646  14.278  0.6326 -0.6240  0.1266
14181TIP3    H263959   2.993   6.703  14.376 -0.6577  1.0042  0.5268
14182TIP3   OH263960   3.792   2.436   0.455  0.3077  0.7497 -1.0251
14182TIP3    H163961   3.842   2.475   0.384 -0.9177  2.7245 -0.8805
14182TIP3    H263962   3.795   2.501   0.525 -0.0494 -0.3499  0.0508
14183TIP3   OH263963   0.591   1.106  16.024 -0.0314 -0.0081 -0.7114
14183TIP3    H163964   0.580   1.200  16.038 -0.8659 -0.3356  1.1574
14183TIP3    H263965   0.525   1.085  15.957 -0.6502  0.5588 -0.2994
14184TIP3   OH263966   5.308   0.617  17.009 -0.3076  0.2354  0.5207
14184TIP3    H163967   5.395   0.635  16.972  0.1407 -1.6310  0.5684
14184TIP3    H263968   5.248   0.641  16.938  0.2355  1.3016  0.3906
14185TIP3   OH263969   4.050   1.021  13.602  0.6881  0.3708  0.0026
14185TIP3    H163970   4.117   1.089  13.592  1.0027 -0.0484 -0.7840
14185TIP3    H263971   4.097   0.939  13.587  0.1050  0.0407 -0.0268
14186TIP3   OH263972   6.662   1.738  16.230  0.5859 -0.9159 -0.0062
14186TIP3    H163973   6.681   1.806  16.295  0.1059  0.0150 -0.8116
14186TIP3    H263974   6.567   1.726  16.235  0.8262 -2.6580  1.1976
14187TIP3   OH263975   4.924   5.287  12.330 -0.6283 -0.1911  0.3581
14187TIP3    H163976   4.995   5.238  12.289 -1.6603 -1.6935  0.2624
14187TIP3    H263977   4.904   5.239  12.410  1.0355  2.4484  2.4830
14188TIP3   OH263978   1.019   6.391  11.693 -0.4292 -0.0245  0.2963
14188TIP3    H163979   0.944   6.335  11.678  0.1450 -0.7905  0.2084
14188TIP3    H263980   1.000   6.471  11.643 -1.4801  0.0727  0.8306
14189TIP3   OH263981   4.358   4.463   0.337 -0.3287 -0.4065  0.0581
14189TIP3    H163982   4.427   4.418   0.289 -0.0322 -0.4474  0.5127
14189TIP3    H263983   4.286   4.472   0.274 -1.4474 -3.8211  0.6007
14190TIP3   OH263984   1.763   3.605   1.558  0.3884  0.6386  0.0430
14190TIP3    H163985   1.745   3.583   1.467  0.5502 -1.2799  0.4335
14190TIP3    H263986   1.728   3.531   1.608  0.3822  1.6096  1.5456
14191TIP3   OH263987   1.503   1.250   4.584 -0.3007  0.2059  0.1615
14191TIP3    H163988   1.446   1.197   4.639  0.4398 -0.5555  0.2165
14191TIP3    H263989   1.592   1.231   4.615  0.1437 -0.3243 -1.3471
14192TIP3   OH263990   6.323   5.994  12.155 -0.3353  0.5335  0.0333
14192TIP3    H163991   6.363   6.041  12.082 -0.6325  2.2788  0.9332
14192TIP3    H263992   6.236   5.971  12.124  0.3807 -0.9940 -1.0081
14193TIP3   OH263993   0.701   3.224   2.045 -0.1870  0.3398  0.0981
14193TIP3    H163994   0.756   3.153   2.012 -0.4873 -0.5963  1.4966
14193TIP3    H263995   0.727   3.301   1.995 -0.7501 -1.0007 -2.3933
14194TIP3   OH263996   4.399   3.998  14.356  0.2643  0.3568  0.0759
14194TIP3    H163997   4.384   4.073  14.298  1.6835  0.1375 -0.6322
14194TIP3    H263998   4.450   4.033  14.429 -0.6067  0.4222  0.6608
14195TIP3   OH263999   3.361   3.933   1.610 -0.1132  0.0962  0.0040
14195TIP3    H164000   3.385   3.981   1.530  0.2568  0.2835  0.2270
14195TIP3    H264001   3.289   3.876   1.582 -0.4089  0.6150 -0.3197
14196TIP3   OH264002   3.705   4.134  14.418 -0.2673  0.1326 -0.4522
14196TIP3    H164003   3.790   4.099  14.444 -0.5772 -0.6375 -0.4632
14196TIP3    H264004   3.642   4.073  14.456 -0.8666  1.3587  0.6083
14197TIP3   OH264005   2.465   2.702   5.664 -0.4178 -0.1411  0.2067
14197TIP3    H164006   2.539   2.642   5.656 -1.2127 -1.1250  0.0666
14197TIP3    H264007   2.403   2.655   5.719 -0.0938  1.5243  2.1235
14198TIP3   OH264008   5.708   1.543   6.413  0.1510  0.9256 -0.0067
14198TIP3    H164009   5.759   1.590   6.479  1.7542 -0.9887  0.2498
14198TIP3    H264010   5.768   1.475   6.381 -2.0545 -1.1557 -0.0743
14199TIP3   OH264011   0.776   0.908  12.946 -0.4525 -0.3553  0.3987
14199TIP3    H164012   0.797   0.857  13.025 -1.1979  1.1949  1.6365
14199TIP3    H264013   0.682   0.898  12.936 -0.5561  0.4930  0.4662
14200TIP3   OH264014   6.405   5.194  16.601 -0.4346  0.6923 -0.5807
14200TIP3    H164015   6.415   5.242  16.683 -2.7336 -2.1118  1.5500
14200TIP3    H264016   6.312   5.199  16.582 -0.0195  0.8911 -2.8820
14201TIP3   OH264017   1.518   3.720   2.780  0.5484 -0.0990 -1.3084
14201TIP3    H164018   1.428   3.689   2.794  0.4304 -0.2271 -2.3052
14201TIP3    H264019   1.552   3.734   2.868 -1.1191  1.9399 -0.9011
14202TIP3   OH264020   4.181   0.321  14.597 -0.3935 -0.1159  0.3412
14202TIP3    H164021   4.156   0.391  14.658  1.6811  0.2297  0.8709
14202TIP3    H264022   4.247   0.361  14.540  0.8027 -1.5934  0.6204
14203TIP3   OH264023   1.654   4.008   4.382 -0.3587  0.0430  0.3211
14203TIP3    H164024   1.719   3.985   4.449 -0.4958 -0.4292  0.2938
14203TIP3    H264025   1.623   3.924   4.349 -0.5381  0.2734 -0.1006
14204TIP3   OH264026   3.010   4.540  11.405 -0.4270  0.2769  0.7480
14204TIP3    H164027   3.059   4.577  11.331 -1.1352  1.7704  0.9882
14204TIP3    H264028   3.047   4.582  11.482  0.1259 -1.0808  1.2471
14205TIP3   OH264029   1.005   1.795  15.106  0.3304  0.5403  0.1792
14205TIP3    H164030   0.985   1.756  15.021  1.7745 -1.1050  0.5399
14205TIP3    H264031   0.942   1.754  15.166 -2.3621  3.4967 -0.3669
14206TIP3   OH264032   6.182   0.544   0.701 -0.0593  0.1287 -0.2036
14206TIP3    H164033   6.238   0.472   0.729 -1.6237 -0.7651  0.7816
14206TIP3    H264034   6.223   0.622   0.739  0.8694 -0.4059 -0.0824
14207TIP3   OH264035   4.605   0.972  12.040  0.3600  0.5934 -0.1847
14207TIP3    H164036   4.697   0.958  12.063  0.3159  0.9353  0.1904
14207TIP3    H264037   4.577   1.045  12.094  0.3475  1.6244 -1.5283
14208TIP3   OH264038   6.458   6.477   5.130 -0.1207  0.1890 -0.2050
14208TIP3    H164039   6.529   6.490   5.193 -1.0690  0.8013  0.7873
14208TIP3    H264040   6.390   6.431   5.180 -1.2979  1.5876 -0.4535
14209TIP3   OH264041   4.495   5.460   5.703 -0.2046  0.3168  0.1469
14209TIP3    H164042   4.455   5.426   5.783 -1.6255 -0.6852 -0.9384
14209TIP3    H264043   4.460   5.405   5.633  0.9501  1.1986 -1.1871
14210TIP3   OH264044   0.924   0.093  14.919 -0.2805 -0.3195 -0.0834
14210TIP3    H164045   0.981   0.018  14.903 -1.7778 -1.0960 -2.0748
14210TIP3    H264046   0.836   0.056  14.925 -0.9760  1.2035 -0.4534
14211TIP3   OH264047   4.431   0.044   3.086  0.0435  0.2845  0.1061
14211TIP3    H164048   4.497  -0.022   3.108  0.4349  0.5936 -0.1327
14211TIP3    H264049   4.355   0.019   3.138 -0.2601 -1.1343 -0.9430
14212TIP3   OH264050   4.367   1.374   4.235  0.1960  0.0837 -0.1122
14212TIP3    H164051   4.384   1.456   4.282  0.8435  0.2022 -0.5407
14212TIP3    H264052   4.359   1.400   4.143  1.0894 -0.4141 -0.3368
14213TIP3   OH264053   6.728   0.002   1.070 -0.1613 -0.3322 -0.1923
14213TIP3    H164054   6.691  -0.030   0.987  1.2289  0.5228 -1.1768
14213TIP3    H264055   6.777  -0.072   1.104  0.3972 -0.2710 -0.8416
14214TIP3   OH264056   0.961   4.735  16.900 -0.7471  0.3873  0.2565
14214TIP3    H164057   0.893   4.737  16.967 -0.2714 -1.0862  0.8105
14214TIP3    H264058   1.030   4.793  16.934 -0.3030 -0.7093  1.3087
14215TIP3   OH264059   1.188   1.292  15.167  0.5089  0.1560  0.7102
14215TIP3    H164060   1.115   1.321  15.113 -1.4170 -0.9319  2.5555
14215TIP3    H264061   1.193   1.358  15.237 -0.2296 -0.9317  1.8246
14216TIP3   OH264062   3.711   3.962   2.780 -0.3217  0.1710  0.4275
14216TIP3    H164063   3.671   3.954   2.693  1.9279  0.0371 -0.6459
14216TIP3    H264064   3.710   4.056   2.798 -0.2928  0.2528  0.0141
14217TIP3   OH264065   5.795   6.729  11.375 -0.3971 -0.5555  0.0879
14217TIP3    H164066   5.731   6.673  11.331 -2.1351 -1.4108  3.3871
14217TIP3    H264067   5.741   6.790  11.426  1.4349 -0.4479  1.9860
14218TIP3   OH264068   3.686   4.758  15.518 -0.0629 -0.1105  0.1365
14218TIP3    H164069   3.685   4.707  15.599  0.7965  1.3415  1.0946
14218TIP3    H264070   3.755   4.823  15.530  0.5287 -0.2360 -2.0275
14219TIP3   OH264071   3.474   3.131  16.925  0.3058  0.0518  0.7175
14219TIP3    H164072   3.399   3.109  16.981  2.7189 -0.0466  4.2641
14219TIP3    H264073   3.491   3.051  16.875 -1.8375  0.0621 -0.0953
14220TIP3   OH264074   5.717   1.425   6.786  0.0621  0.4555 -0.3082
14220TIP3    H164075   5.799   1.475   6.791 -0.7960  1.9388 -0.6208
14220TIP3    H264076   5.717   1.389   6.697 -1.3934  3.7480 -1.8187
14221TIP3   OH264077   1.242   3.192  14.295 -0.4317  0.2893 -0.4707
14221TIP3    H164078   1.157   3.197  14.338 -0.5695 -1.7569 -0.4366
14221TIP3    H264079   1.305   3.206  14.365 -0.6107  4.6327 -0.8791
14222TIP3   OH264080   2.969   2.753   3.632  0.0517  0.0387  0.7386
14222TIP3    H164081   2.944   2.718   3.717 -3.1242  1.9298  0.7424
14222TIP3    H264082   3.029   2.825   3.652 -2.0043  1.5992  1.6184
14223TIP3   OH264083   1.840   0.408  13.665 -0.0999  0.2387 -0.0559
14223TIP3    H164084   1.824   0.345  13.736 -0.0930  1.5010  1.1105
14223TIP3    H264085   1.851   0.354  13.587 -1.3809 -1.1315  0.6606
14224TIP3   OH264086   3.560   5.626  14.125 -0.6333  0.1996  0.7963
14224TIP3    H164087   3.651   5.598  14.115 -1.0864 -2.0193  2.0541
14224TIP3    H264088   3.565   5.715  14.160  0.9331  1.6436 -2.6658
14225TIP3   OH264089   6.119   3.955  12.241 -0.0366 -0.0109 -1.0066
14225TIP3    H164090   6.097   3.937  12.333  0.0548 -1.3750 -1.2426
14225TIP3    H264091   6.187   4.022  12.246  0.6390 -0.7439 -0.0361
14226TIP3   OH264092   4.216   1.508   4.935  0.5669  0.0207  0.0052
14226TIP3    H164093   4.201   1.489   4.843 -0.0765  1.0130 -0.1118
14226TIP3    H264094   4.201   1.602   4.943 -0.1179 -0.1625  1.2568
14227TIP3   OH264095   3.319   0.838  14.522 -0.1724  0.1347  0.5344
14227TIP3    H164096   3.331   0.929  14.547  0.1663  0.3915 -0.4947
14227TIP3    H264097   3.335   0.788  14.602  1.2010  0.8794  0.7516
14228TIP3   OH264098   5.672   0.723   1.882  0.5021  0.2132  0.3830
14228TIP3    H164099   5.656   0.681   1.798  2.3116 -0.7242  0.4506
14228TIP3    H264100   5.609   0.684   1.941 -1.1488  1.2603 -0.6056
14229TIP3   OH264101   3.162   2.852  15.840  0.1716  0.6054  0.1024
14229TIP3    H164102   3.257   2.841  15.839  0.1607  0.3014  1.3266
14229TIP3    H264103   3.138   2.860  15.747  1.5794  2.4235 -0.1788
14230TIP3   OH264104   4.122   3.772   2.140 -0.2317 -0.6077 -0.5684
14230TIP3    H164105   4.067   3.842   2.105  0.1920  0.0357  0.0303
14230TIP3    H264106   4.107   3.774   2.235  1.2118 -0.0428 -0.3121
14231TIP3   OH264107   6.204   3.418   5.166 -0.5892  0.0929  0.5822
14231TIP3    H164108   6.298   3.406   5.178 -0.5711  1.2926  1.8478
14231TIP3    H264109   6.191   3.411   5.071  0.8118  0.2493  0.3587
14232TIP3   OH264110   4.898   3.612   1.406 -0.9715 -0.0172 -0.5321
14232TIP3    H164111   4.990   3.619   1.378 -0.9635 -1.0027 -0.7787
14232TIP3    H264112   4.900   3.630   1.500 -0.4250 -0.7114 -0.4061
14233TIP3   OH264113   0.425   6.360  15.442 -0.1848 -0.4148 -0.2528
14233TIP3    H164114   0.464   6.404  15.367 -0.3590  0.8381  0.3645
14233TIP3    H264115   0.497   6.348  15.504 -0.3348 -0.1108 -0.0182
14234TIP3   OH264116   1.865   2.612   1.346 -0.1071 -0.2545  0.0595
14234TIP3    H164117   1.813   2.567   1.413  2.9174 -1.0271  2.1246
14234TIP3    H264118   1.951   2.622   1.386  1.2827  1.2296 -2.9876
14235TIP3   OH264119   3.271   4.669   5.365  0.0602 -0.8156  0.4228
14235TIP3    H164120   3.307   4.605   5.303 -0.5601 -1.8932  1.1243
14235TIP3    H264121   3.185   4.634   5.386  0.6950 -1.1270  2.7518
14236TIP3   OH264122   0.228   2.763  11.887 -0.1275  0.5585  0.0045
14236TIP3    H164123   0.157   2.699  11.879  1.7632 -1.4785 -2.3525
14236TIP3    H264124   0.189   2.847  11.864 -1.9630 -0.3401 -0.3117
14237TIP3   OH264125   4.091   2.897   5.453  0.0854  0.0172 -0.0698
14237TIP3    H164126   4.166   2.838   5.445  0.5532  0.4824  0.8310
14237TIP3    H264127   4.019   2.841   5.482  0.4116 -0.1942  0.3318
14238TIP3   OH264128   5.729   3.498   3.423  0.3108 -0.1079 -0.3631
14238TIP3    H164129   5.638   3.514   3.396 -0.1622 -0.6094  0.8689
14238TIP3    H264130   5.777   3.573   3.388 -0.9801  1.3896  0.9265
14239TIP3   OH264131   4.396   3.015  13.240 -0.1800  0.5343  0.0145
14239TIP3    H164132   4.425   3.077  13.173  3.6924  1.1474  1.9798
14239TIP3    H264133   4.451   2.938  13.227 -2.6383 -1.3021 -0.3065
14240TIP3   OH264134   1.119   6.370   2.532 -0.6721 -0.2690  0.4286
14240TIP3    H164135   1.040   6.358   2.478  0.1627  1.2634 -1.2258
14240TIP3    H264136   1.119   6.463   2.554  2.1294  0.5036 -2.1301
14241TIP3   OH264137   5.413   3.280   5.729 -0.3062  0.2512  0.0149
14241TIP3    H164138   5.455   3.263   5.813 -0.7073 -0.2786  0.1132
14241TIP3    H264139   5.447   3.366   5.702  0.7874 -0.1377  0.1113
14242TIP3   OH264140   6.247   0.821  15.921 -0.0275 -0.4942 -0.4988
14242TIP3    H164141   6.287   0.788  16.001 -3.2433 -2.1106  0.6301
14242TIP3    H264142   6.285   0.769  15.851  1.7211 -0.1035  0.1247
14243TIP3   OH264143   1.009   5.857  14.120  0.5309 -0.1763 -0.1557
14243TIP3    H164144   1.088   5.850  14.066  0.6343  0.0701 -0.0383
14243TIP3    H264145   0.939   5.880  14.059  0.3820 -1.2107 -0.3932
14244TIP3   OH264146   4.395   1.603  11.225  0.1773 -0.2281  0.2437
14244TIP3    H164147   4.369   1.695  11.222  1.4900  0.1872  0.8440
14244TIP3    H264148   4.490   1.604  11.210 -0.0222 -1.6395 -1.3910
14245TIP3   OH264149   1.326   3.284   5.123  0.5013  0.5807 -0.1651
14245TIP3    H164150   1.267   3.320   5.189  0.9352  0.3759  0.3432
14245TIP3    H264151   1.353   3.360   5.071 -2.1049  0.3604 -1.9885
14246TIP3   OH264152   5.243   3.800   5.874  0.3514 -0.0920  0.1287
14246TIP3    H164153   5.246   3.857   5.951  1.8915 -1.5991  1.2620
14246TIP3    H264154   5.327   3.816   5.830 -0.8517  1.3834 -1.7927
14247TIP3   OH264155   0.253   2.084   0.996  0.2597  0.7630 -0.2114
14247TIP3    H164156   0.334   2.064   1.043 -0.6759  0.0716  1.1659
14247TIP3    H264157   0.282   2.100   0.906  1.7289 -1.4084 -0.2169
14248TIP3   OH264158   5.047   1.801  13.360  0.1801  0.4622 -0.2719
14248TIP3    H164159   4.978   1.735  13.368  2.1189 -1.7071 -0.5201
14248TIP3    H264160   5.044   1.827  13.268 -1.8763  2.3245  0.2239
14249TIP3   OH264161   0.183   2.082  13.704 -0.4609  0.1931  0.1140
14249TIP3    H164162   0.095   2.045  13.711 -0.6211  0.0682 -1.8556
14249TIP3    H264163   0.175   2.147  13.634  1.4945 -1.4886 -1.8052
14250TIP3   OH264164   0.561   1.820  11.641 -0.0046  0.8256  0.5629
14250TIP3    H164165   0.472   1.836  11.671  0.1677 -0.2921  1.7455
14250TIP3    H264166   0.617   1.851  11.712  0.4880 -0.1025  0.5983
14251TIP3   OH264167   5.192   0.430   5.828  0.1091 -0.1329 -0.0391
14251TIP3    H164168   5.134   0.374   5.776  1.2180 -2.0058  0.6629
14251TIP3    H264169   5.272   0.437   5.776  0.7222 -0.8964  0.7704
14252TIP3   OH264170   2.413   0.550   5.399  0.4995 -0.0719 -0.5459
14252TIP3    H164171   2.356   0.508   5.463  0.7090 -0.1987 -0.4413
14252TIP3    H264172   2.455   0.622   5.446  0.4673 -0.0127 -0.6070
14253TIP3   OH264173   4.354   1.704   0.648  0.4591 -0.2426  0.2299
14253TIP3    H164174   4.358   1.750   0.732  1.1959 -1.6979  1.0338
14253TIP3    H264175   4.445   1.697   0.619  0.2302  0.0560 -0.5990
14254TIP3   OH264176   1.239   4.055   4.758  0.2679  0.3601  0.1219
14254TIP3    H164177   1.272   4.111   4.688  1.5883 -1.0344 -0.4346
14254TIP3    H264178   1.237   4.111   4.835  1.5041  1.1942 -0.4243
14255TIP3   OH264179   5.551   2.806  15.785  0.1159 -0.8572 -0.1816
14255TIP3    H164180   5.533   2.876  15.723 -0.4460 -0.3900  0.4915
14255TIP3    H264181   5.644   2.787  15.774 -0.0661 -1.1110 -1.4838
14256TIP3   OH264182   1.895   1.771  12.745 -0.0240  0.1342  0.3890
14256TIP3    H164183   1.873   1.768  12.838 -0.1951 -2.7130  0.3419
14256TIP3    H264184   1.811   1.781  12.700 -0.2481 -1.1490  0.4935
14257TIP3   OH264185   3.502   1.027   3.441  0.2020  0.5436  0.1503
14257TIP3    H164186   3.486   0.945   3.395  1.8805  0.9604 -1.2854
14257TIP3    H264187   3.445   1.091   3.397  0.8885  0.6830 -0.5603
14258TIP3   OH264188   2.028   5.574   5.052 -0.4259 -0.0900 -0.1826
14258TIP3    H164189   2.090   5.596   5.122 -3.0122  0.6101  2.0480
14258TIP3    H264190   1.957   5.528   5.096 -2.7385  1.3773 -2.1107
14259TIP3   OH264191   0.948   4.073  15.356  0.0410 -0.1860  0.4260
14259TIP3    H164192   0.883   4.059  15.424 -3.8664  0.2469 -2.7975
14259TIP3    H264193   0.913   4.027  15.279  3.8785 -0.3259 -1.5187
14260TIP3   OH264194   4.682   2.398  15.003 -0.2300  0.8874  0.5649
14260TIP3    H164195   4.743   2.430  15.069  0.5824  0.0196  0.2785
14260TIP3    H264196   4.643   2.320  15.042  1.2203 -0.3891 -0.4173
14261TIP3   OH264197   4.004   2.124   2.952 -0.0721  0.6932  0.8760
14261TIP3    H164198   3.968   2.195   3.006 -1.7389  1.4345 -1.0689
14261TIP3    H264199   3.947   2.049   2.971 -1.9076  1.4779 -1.1475
14262TIP3   OH264200   6.567   4.285   0.899  0.1243  0.4422  0.0738
14262TIP3    H164201   6.561   4.355   0.834 -0.0956 -0.4736 -0.9158
14262TIP3    H264202   6.646   4.305   0.949  1.2960  0.2141 -1.6218
14263TIP3   OH264203   5.744   5.394  13.054 -0.1809  0.1065  0.0398
14263TIP3    H164204   5.793   5.343  12.989  1.2734 -0.8864  1.8191
14263TIP3    H264205   5.699   5.329  13.107  1.5962  0.5746  2.2689
14264TIP3   OH264206   4.164   3.264  17.372  0.3497 -0.1212 -0.4342
14264TIP3    H164207   4.131   3.295  17.457  0.2064  1.7034 -1.1049
14264TIP3    H264208   4.108   3.306  17.308 -0.0278 -2.0938 -1.4530
14265TIP3   OH264209   4.466   3.213   0.719  0.0638 -0.4272  0.1080
14265TIP3    H164210   4.557   3.205   0.693 -0.1282  1.4328 -1.3760
14265TIP3    H264211   4.416   3.186   0.641 -0.6411 -0.9977  0.7447
14266TIP3   OH264212   4.507   4.143   2.422 -0.0723  0.0761 -0.0425
14266TIP3    H164213   4.597   4.176   2.418 -0.5275  1.5336  1.0956
14266TIP3    H264214   4.513   4.064   2.477  0.5521 -0.0200 -0.2432
14267TIP3   OH264215   3.990   1.244  13.786  0.2654 -0.5907 -0.5624
14267TIP3    H164216   4.012   1.151  13.791  1.0277 -0.3932  0.0629
14267TIP3    H264217   4.074   1.288  13.780 -0.0570  0.0874 -0.2386
14268TIP3   OH264218   3.894   2.677   0.297  0.1932 -0.7284 -0.1461
14268TIP3    H164219   3.883   2.734   0.221 -1.8880 -0.5626  0.2371
14268TIP3    H264220   3.836   2.713   0.364  0.5808 -1.9520  0.9060
14269TIP3   OH264221   3.659   2.942   2.827 -0.0635  0.0141  0.1929
14269TIP3    H164222   3.728   2.949   2.761  0.2534  1.8979  0.6559
14269TIP3    H264223   3.704   2.910   2.905 -0.3833 -1.9328 -0.3747
14270TIP3   OH264224   3.898   3.275  13.827  0.0911  0.5928 -0.1071
14270TIP3    H164225   3.862   3.316  13.748  1.1955  3.5618  0.7760
14270TIP3    H264226   3.957   3.341  13.863  0.2668 -0.9777  2.7766
14271TIP3   OH264227   2.649   2.326   4.339  0.4158 -0.7919 -0.0375
14271TIP3    H164228   2.723   2.268   4.359  0.2997 -0.2971  2.0239
14271TIP3    H264229   2.686   2.391   4.279  1.5318 -0.8504  0.5534
14272TIP3   OH264230   2.041   2.397   3.799  0.2840  0.1991  0.6337
14272TIP3    H164231   1.963   2.395   3.855  0.7121  1.3968  1.3132
14272TIP3    H264232   2.057   2.490   3.784  0.5259 -0.0867 -1.0268
14273TIP3   OH264233   4.558   4.172   1.998  0.0726  0.1822 -0.1471
14273TIP3    H164234   4.586   4.214   1.917  1.4094 -0.2106  0.0770
14273TIP3    H264235   4.635   4.177   2.055  0.1541 -2.1529  0.0313
14274TIP3   OH264236   3.577   4.594   1.916 -0.4087 -0.0442  0.0931
14274TIP3    H164237   3.662   4.583   1.874 -1.4186  0.8227 -2.3837
14274TIP3    H264238   3.533   4.510   1.905 -0.6021  0.1252 -0.4706
14275TIP3   OH264239   0.242   3.416   4.716 -0.1683  0.6985 -0.3525
14275TIP3    H164240   0.304   3.374   4.657  0.8049 -0.2243  1.2507
14275TIP3    H264241   0.217   3.347   4.778 -2.9368  0.9962 -0.9857
14276TIP3   OH264242   2.644   1.196   4.681  0.3627  0.4057  0.0842
14276TIP3    H164243   2.629   1.276   4.632 -0.0853 -0.1610 -0.7253
14276TIP3    H264244   2.661   1.225   4.771  0.8452  1.4340 -0.3300
14277TIP3   OH264245   4.722   3.986   0.948 -0.2732 -0.0229 -0.0486
14277TIP3    H164246   4.695   3.895   0.965  0.9549 -0.4972 -0.5618
14277TIP3    H264247   4.808   3.979   0.907 -0.9752  1.3038 -1.8647
14278TIP3   OH264248   0.847   3.085  15.146 -0.2196 -0.1911 -0.5003
14278TIP3    H164249   0.862   3.032  15.225 -0.1975 -0.7489 -0.8716
14278TIP3    H264250   0.929   3.081  15.098  0.1155  1.0164 -0.0623
14279TIP3   OH264251   1.649   5.574   0.040  0.4384  0.1564  0.2530
14279TIP3    H164252   1.631   5.522  -0.038 -0.9471 -0.1117  0.7388
14279TIP3    H264253   1.567   5.620   0.058  0.4703 -0.4355  2.0390
14280TIP3   OH264254   0.813   2.265   1.727  0.1724 -0.5198 -0.0339
14280TIP3    H164255   0.866   2.235   1.802  1.0407 -1.0983 -0.8585
14280TIP3    H264256   0.723   2.260   1.759  0.6213  2.2991  2.0527
14281TIP3   OH264257   5.397   4.917   0.378 -0.5742  0.3069 -0.0103
14281TIP3    H164258   5.429   4.862   0.450 -0.6965  1.0955  0.6617
14281TIP3    H264259   5.302   4.905   0.380 -0.5388 -0.0516 -0.3632
14282TIP3   OH264260   5.261   1.011  11.548  0.1859 -0.1512 -0.0497
14282TIP3    H164261   5.229   1.093  11.586 -1.7492 -1.4347  1.2888
14282TIP3    H264262   5.263   0.950  11.622  0.7299 -1.5445 -1.1762
14283TIP3   OH264263   6.642   2.764   5.355 -0.0139 -0.0287 -0.0849
14283TIP3    H164264   6.697   2.691   5.328  0.2155  0.1317 -0.0573
14283TIP3    H264265   6.626   2.813   5.275  0.7931  0.5310  0.0853
14284TIP3   OH264266   6.486   2.613  14.114 -0.4861 -0.4481 -0.0120
14284TIP3    H164267   6.484   2.664  14.195 -0.7044 -0.9798  0.3271
14284TIP3    H264268   6.501   2.523  14.143 -1.1924 -0.7404 -0.5052
14285TIP3   OH264269   0.337   3.517   0.710 -0.2756  0.3696 -0.2697
14285TIP3    H164270   0.289   3.435   0.699 -3.8061  2.1217  0.6594
14285TIP3    H264271   0.321   3.566   0.630 -0.8577  1.3319  0.4119
14286TIP3   OH264272   2.609   0.481   3.945  0.6914  0.5913  0.0988
14286TIP3    H164273   2.635   0.558   3.994  0.9968  0.5665 -0.0165
14286TIP3    H264274   2.668   0.412   3.976  0.3146  0.3650  0.3173
14287TIP3   OH264275   4.088   6.711   2.228  0.2054 -0.1318 -0.6399
14287TIP3    H164276   4.154   6.778   2.212  0.9324 -0.9048 -1.0084
14287TIP3    H264277   4.040   6.742   2.305 -0.4270  1.4840 -1.6365
14288TIP3   OH264278   3.711   4.950   2.430 -0.0767 -0.1571 -0.1533
14288TIP3    H164279   3.648   5.017   2.405 -0.3185 -0.3766 -0.1356
14288TIP3    H264280   3.686   4.873   2.379  0.9267  0.1036 -1.0824
14289TIP3   OH264281   2.470   2.215   2.390  0.1024 -0.2778  0.0511
14289TIP3    H164282   2.419   2.185   2.315  0.0953 -1.5906  0.5552
14289TIP3    H264283   2.414   2.201   2.465  0.1489  0.9414  0.3331
14290TIP3   OH264284   2.904   6.386   0.572 -0.2906 -0.2445  0.1983
14290TIP3    H164285   2.875   6.462   0.622  0.1822  1.3412 -1.7978
14290TIP3    H264286   2.832   6.324   0.579 -1.1981  0.8395  0.9349
14291TIP3   OH264287   6.042   1.613  16.057 -0.2695  0.0763  0.7187
14291TIP3    H164288   6.011   1.536  16.105  1.7130 -0.5324  1.1130
14291TIP3    H264289   5.993   1.611  15.975  1.8679 -3.5351 -0.7254
14292TIP3   OH264290   2.726   1.756   4.513  0.1919  0.3671 -0.5268
14292TIP3    H164291   2.680   1.699   4.575  0.2277 -1.5549 -2.1486
14292TIP3    H264292   2.660   1.817   4.482 -0.5563 -0.4827 -0.6453
14293TIP3   OH264293   2.563   2.956   5.730 -0.4090  0.0013  0.1172
14293TIP3    H164294   2.542   2.987   5.818 -0.7516 -0.7079  0.2925
14293TIP3    H264295   2.524   2.868   5.725 -1.9944  0.7262 -1.3621
14294TIP3   OH264296   3.646   6.096   3.907 -0.3806  0.1315 -0.1853
14294TIP3    H164297   3.635   6.123   3.998  2.8018  0.5948  0.1736
14294TIP3    H264298   3.570   6.040   3.889 -1.5815  0.7849  2.4166
14295TIP3   OH264299   6.708   2.762   5.033 -0.1920 -0.4039  0.1157
14295TIP3    H164300   6.786   2.765   5.088  0.1633 -0.1692 -0.3841
14295TIP3    H264301   6.739   2.725   4.950 -0.6091 -0.2882 -0.0940
14296TIP3   OH264302   3.236   5.749   3.582  0.6124 -0.1139  0.5492
14296TIP3    H164303   3.160   5.806   3.593 -0.1857 -1.2527  1.1142
14296TIP3    H264304   3.262   5.760   3.491  1.1647  1.9677  0.9026
14297TIP3   OH264305   5.809   4.130   2.497 -0.0754 -0.0779  0.4434
14297TIP3    H164306   5.834   4.194   2.430 -2.2017  0.4361  0.0793
14297TIP3    H264307   5.818   4.178   2.580  2.8235 -0.7974  0.6584
14298TIP3   OH264308   3.707   4.841   5.228  0.0427  0.3012  0.1391
14298TIP3    H164309   3.720   4.816   5.136 -0.0912 -0.1438  0.2367
14298TIP3    H264310   3.612   4.849   5.238  0.0620  0.4306  0.2195
14299TIP3   OH264311   6.665   6.330   1.349  0.1651  0.0145  0.8954
14299TIP3    H164312   6.654   6.365   1.260  1.4919 -0.8656  0.3549
14299TIP3    H264313   6.581   6.290   1.370 -0.6921  1.6433  0.6902
14300TIP3   OH264314   1.787   6.750  15.915  0.4148 -0.2434 -0.0590
14300TIP3    H164315   1.819   6.836  15.886 -0.9669  1.0130  1.9359
14300TIP3    H264316   1.716   6.728  15.854  1.7705 -0.7727 -1.5269
14301TIP3   OH264317   6.168   2.795  12.962 -0.4650  0.3802 -0.1151
14301TIP3    H164318   6.199   2.882  12.984 -1.0840  0.6463 -0.2751
14301TIP3    H264319   6.157   2.796  12.867 -1.3474  0.4285 -0.0229
14302TIP3   OH264320   0.992   5.477   5.736 -0.4353  0.0887  0.4173
14302TIP3    H164321   1.007   5.418   5.810  2.5641  0.2968  0.1106
14302TIP3    H264322   1.029   5.560   5.764 -0.0415  0.4138 -0.9692
14303TIP3   OH264323   5.089   6.208  15.349 -0.7175 -0.2791 -0.1257
14303TIP3    H164324   5.067   6.168  15.265  2.5380 -1.5851 -0.4999
14303TIP3    H264325   5.108   6.300  15.327 -1.8171 -0.1115 -0.4268
14304TIP3   OH264326   5.614   2.852  13.301  0.1378  0.2640  0.4427
14304TIP3    H164327   5.528   2.830  13.265 -0.3277  1.3745  0.8093
14304TIP3    H264328   5.670   2.862  13.224 -0.5668  1.5051  0.0548
14305TIP3   OH264329   2.678   5.295  16.865 -0.0543  0.4850 -0.9450
14305TIP3    H164330   2.601   5.250  16.901  0.2343 -0.4294 -1.4254
14305TIP3    H264331   2.666   5.386  16.889 -0.1770  0.0188  0.9291
14306TIP3   OH264332   6.316   6.185   6.243 -0.6921 -0.3825 -0.0655
14306TIP3    H164333   6.355   6.272   6.237 -1.0647 -0.1664  0.5325
14306TIP3    H264334   6.387   6.129   6.274 -0.7837 -0.0330  0.8084
14307TIP3   OH264335   6.510   0.201  14.428 -0.0157 -0.4479  0.2084
14307TIP3    H164336   6.528   0.224  14.337 -0.4220 -2.1112 -0.3221
14307TIP3    H264337   6.596   0.198  14.469  0.3626 -1.5526 -0.6066
14308TIP3   OH264338   1.962   3.115   5.429 -0.4029 -0.0956  0.0727
14308TIP3    H164339   1.889   3.116   5.367  0.1806  0.9339 -0.6288
14308TIP3    H264340   1.935   3.054   5.497 -1.2996 -0.8432 -0.9162
14309TIP3   OH264341   2.473   4.258  16.328  0.0852 -0.3257 -0.8284
14309TIP3    H164342   2.451   4.308  16.249 -0.2732 -1.5697 -1.5306
14309TIP3    H264343   2.496   4.171  16.297 -0.9442 -1.1232  0.5084
14310TIP3   OH264344   3.781   1.436   0.195  0.4610  0.2977 -0.0634
14310TIP3    H164345   3.699   1.478   0.220 -0.1741  0.5028 -2.3317
14310TIP3    H264346   3.814   1.487   0.122  2.8721  0.4585  1.0168
14311TIP3   OH264347   3.562   2.601   0.245  0.2962  0.0113  0.7396
14311TIP3    H164348   3.615   2.565   0.174 -1.4012 -2.4097  0.5622
14311TIP3    H264349   3.615   2.672   0.281  2.4003 -0.4694 -1.1616
14312TIP3   OH264350   1.304   2.704  14.404  0.0293  0.4776 -0.0059
14312TIP3    H164351   1.337   2.654  14.478  1.6720  1.3531 -0.1024
14312TIP3    H264352   1.360   2.782  14.400  0.5844  0.0529 -2.6528
14313TIP3   OH264353   4.116   0.719  13.433 -0.2368  0.0952  0.0608
14313TIP3    H164354   4.146   0.634  13.467  1.3228  0.8491  0.6647
14313TIP3    H264355   4.053   0.750  13.497  4.7190  2.8732  4.3889
14314TIP3   OH264356   3.240   0.020  15.856 -0.3682  0.2567  0.2209
14314TIP3    H164357   3.270  -0.043  15.922  0.0971  0.5765  0.3149
14314TIP3    H264358   3.229  -0.033  15.777  0.2132  0.0899  0.2451
14315TIP3   OH264359   6.217   1.335  14.171  0.1009 -0.6962 -0.6730
14315TIP3    H164360   6.148   1.401  14.174  1.2365  0.5337 -0.7945
14315TIP3    H264361   6.172   1.252  14.189 -1.0352  0.3332  1.7385
14316TIP3   OH264362   3.126   3.413   1.179 -0.3160  0.2013  0.7213
14316TIP3    H164363   3.060   3.384   1.242 -0.5003 -0.0382  0.4182
14316TIP3    H264364   3.181   3.474   1.229 -1.1700  0.9365  0.7946
14317TIP3   OH264365   0.626   1.239  12.306 -0.0623 -0.2574  0.2206
14317TIP3    H164366   0.543   1.257  12.262 -1.2374 -0.7151  2.1500
14317TIP3    H264367   0.612   1.157  12.352  0.2667  1.2265  3.2216
14318TIP3   OH264368   0.510   4.075  11.236 -0.2409  0.1047 -0.1662
14318TIP3    H164369   0.572   4.023  11.185 -1.1279 -0.7491 -0.4041
14318TIP3    H264370   0.545   4.073  11.325  0.6848  0.6060 -0.5138
14319TIP3   OH264371   3.463   0.331  14.563  0.6069  0.6019 -0.0519
14319TIP3    H164372   3.512   0.256  14.596  2.0479  1.1505 -0.8725
14319TIP3    H264373   3.406   0.294  14.496 -0.0269 -0.0138  0.7974
14320TIP3   OH264374   0.039   6.011  15.653  0.2324  0.5115 -0.0602
14320TIP3    H164375   0.063   6.104  15.654  1.9102  0.0926  0.5552
14320TIP3    H264376  -0.057   6.012  15.661  0.1548  2.1895 -0.6310
14321TIP3   OH264377   0.018   3.516   3.969  0.4670  0.1047 -0.6552
14321TIP3    H164378   0.019   3.573   3.892 -0.7781  1.0808  0.0160
14321TIP3    H264379   0.063   3.566   4.037 -1.8207  0.9638  0.3359
14322TIP3   OH264380   0.788   6.172   4.069 -0.3893  0.6282 -0.3905
14322TIP3    H164381   0.784   6.198   3.977  2.9903  0.6684 -0.6277
14322TIP3    H264382   0.697   6.154   4.092 -1.1513 -2.2392 -4.5587
14323TIP3   OH264383   3.617   4.811  12.329 -0.3341 -0.0236  0.3133
14323TIP3    H164384   3.573   4.788  12.410  0.7162 -1.1311  0.5955
14323TIP3    H264385   3.671   4.887  12.352  0.7446 -0.9476  0.9533
14324TIP3   OH264386   3.740   5.655   0.546  0.1151  0.4027 -0.4106
14324TIP3    H164387   3.684   5.578   0.561 -0.9611  1.0421 -0.9772
14324TIP3    H264388   3.818   5.620   0.504  0.3430 -0.5735  0.7810
14325TIP3   OH264389   5.288   2.760  14.267  0.3448  0.7084  0.2249
14325TIP3    H164390   5.383   2.770  14.273  0.1079  2.4168  2.1068
14325TIP3    H264391   5.271   2.757  14.173  2.2509  0.3391 -0.1548
14326TIP3   OH264392   5.223   2.139   0.767  0.2926 -0.6971  0.0566
14326TIP3    H164393   5.285   2.075   0.801  0.0022 -1.6155 -1.0623
14326TIP3    H264394   5.168   2.089   0.706 -0.1184  0.5585 -0.6484
14327TIP3   OH264395   2.483   5.773  12.953 -0.4161  0.0789 -0.7533
14327TIP3    H164396   2.554   5.804  12.897 -0.8271  0.4161 -1.0992
14327TIP3    H264397   2.412   5.754  12.892 -1.5898  2.3981 -0.1985
14328TIP3   OH264398   3.428   5.474  16.525  0.1223 -0.3103  0.0911
14328TIP3    H164399   3.474   5.395  16.553  0.8695 -0.5240 -1.6271
14328TIP3    H264400   3.343   5.468  16.569  0.8694 -1.0549  1.5370
14329TIP3   OH264401   5.887   1.133   1.387  0.5117  0.2823 -0.1234
14329TIP3    H164402   5.857   1.042   1.384  0.8065  0.1052  1.4790
14329TIP3    H264403   5.973   1.128   1.427  0.6420  1.2586 -0.2735
14330TIP3   OH264404   1.996   1.480   4.636 -0.3362  0.1939  0.3667
14330TIP3    H164405   1.972   1.397   4.678 -0.0594 -0.5027 -0.7902
14330TIP3    H264406   2.072   1.458   4.582 -0.2419  1.2140  0.0649
14331TIP3   OH264407   6.514   1.528   0.037  0.4919 -0.0762  0.3399
14331TIP3    H164408   6.543   1.535  -0.054 -0.8593 -1.3327 -0.2096
14331TIP3    H264409   6.501   1.619   0.065 -0.2695  0.2800 -1.1216
14332TIP3   OH264410   4.154   2.544   0.749  0.5445  0.3037 -0.2400
14332TIP3    H164411   4.135   2.452   0.764 -0.6027  0.8038  1.8040
14332TIP3    H264412   4.250   2.550   0.755  0.6247 -0.7385 -0.3538
14333TIP3   OH264413   1.767   4.275  16.394 -0.4615  0.1289  0.2393
14333TIP3    H164414   1.684   4.229  16.407 -0.8035  0.5080 -0.5083
14333TIP3    H264415   1.772   4.288  16.299  0.3411  0.3195  0.3014
14334TIP3   OH264416   6.001   5.585   5.123 -0.3286  0.0219  0.4011
14334TIP3    H164417   6.021   5.653   5.187 -1.8056 -0.2193  1.1588
14334TIP3    H264418   5.986   5.506   5.176  1.9029 -1.0861 -0.4863
14335TIP3   OH264419   6.390   5.862  16.839  0.1127  0.2050 -0.3512
14335TIP3    H164420   6.412   5.951  16.867 -1.3793  0.1316  1.2240
14335TIP3    H264421   6.436   5.851  16.756 -1.1624  3.1155 -1.5646
14336TIP3   OH264422   4.804   0.369  11.920  0.1201 -0.3436 -0.6184
14336TIP3    H164423   4.740   0.301  11.900  0.3027 -0.7003 -0.0061
14336TIP3    H264424   4.851   0.383  11.838 -2.6648  2.0394 -2.0341
14337TIP3   OH264425   3.094   2.008   5.990 -0.0992  0.5010  0.0051
14337TIP3    H164426   3.169   1.964   6.031  1.3332  0.2716 -2.6596
14337TIP3    H264427   3.030   1.938   5.977 -0.3478  0.4683  1.2455
14338TIP3   OH264428   3.978   0.484   2.249  0.5512 -0.0982 -0.4190
14338TIP3    H164429   3.913   0.505   2.182  1.0039 -1.6579 -1.3849
14338TIP3    H264430   3.981   0.562   2.304  0.5513  1.4762 -2.5100
14339TIP3   OH264431   5.622   5.800   4.272  0.1893  0.2264  0.8083
14339TIP3    H164432   5.582   5.714   4.289 -0.4661  0.3818  0.1147
14339TIP3    H264433   5.579   5.831   4.193  2.9430 -0.3954 -1.0704
14340TIP3   OH264434   4.670   6.335  16.826  0.4131  0.1061  0.5206
14340TIP3    H164435   4.588   6.323  16.778  0.9440  3.0746 -1.3754
14340TIP3    H264436   4.645   6.385  16.904  0.2491 -0.1417  0.6279
14341TIP3   OH264437   0.966   5.145   2.064 -0.4637  0.0355 -0.1904
14341TIP3    H164438   0.894   5.201   2.033  0.2706  0.8013 -0.5782
14341TIP3    H264439   1.001   5.191   2.140  1.9274  1.6611 -2.1109
14342TIP3   OH264440   5.835   1.062   4.172  0.0343  0.2115  0.4791
14342TIP3    H164441   5.741   1.078   4.158  0.0072 -0.2854  0.0022
14342TIP3    H264442   5.841   1.030   4.262 -0.4286 -0.8854  0.1485
14343TIP3   OH264443   1.789   6.277  12.789 -0.2275 -0.1099 -0.0223
14343TIP3    H164444   1.751   6.255  12.704 -0.5886  2.6912 -0.6943
14343TIP3    H264445   1.714   6.276  12.849 -0.4350  0.2917 -0.2673
14344TIP3   OH264446   4.821   0.815  12.450 -0.0553  0.0278 -0.0460
14344TIP3    H164447   4.817   0.719  12.456  0.8323  0.0308  0.7456
14344TIP3    H264448   4.799   0.845  12.538 -0.7160  0.5719 -0.3908
14345TIP3   OH264449   4.743   2.919  12.338  0.2990  0.1998  0.3055
14345TIP3    H164450   4.681   2.953  12.402  0.2061 -0.5268  0.6197
14345TIP3    H264451   4.828   2.929  12.379  0.5838  2.6142 -0.7515
14346TIP3   OH264452   0.203   6.467   0.867  0.3596  0.1203 -0.2764
14346TIP3    H164453   0.110   6.488   0.853  0.8691  1.7327 -1.5853
14346TIP3    H264454   0.202   6.381   0.909 -1.6803 -0.6435 -1.7054
14347TIP3   OH264455   4.356   3.279   3.077 -0.1020 -0.6103  0.3332
14347TIP3    H164456   4.345   3.244   3.166  1.1618 -1.6554  0.1044
14347TIP3    H264457   4.340   3.204   3.020 -2.9229  0.4636 -0.4958
14348TIP3   OH264458   2.176   2.024  12.553  0.3469 -0.4289  0.3922
14348TIP3    H164459   2.242   2.060  12.493  0.1067  1.6636  1.2738
14348TIP3    H264460   2.100   2.006  12.498  1.3939 -2.2507 -0.5252
14349TIP3   OH264461   4.602   0.645   4.726 -0.1199  0.2262 -0.1586
14349TIP3    H164462   4.612   0.571   4.667 -2.8429  1.1631 -1.9811
14349TIP3    H264463   4.686   0.691   4.722  0.8508 -1.5204 -0.6889
14350TIP3   OH264464   1.938   0.876  14.067 -0.2663  0.0295  0.0483
14350TIP3    H164465   2.003   0.912  14.127  0.9818 -0.5293 -0.9224
14350TIP3    H264466   1.855   0.915  14.095  0.5120  0.9557  1.1571
14351TIP3   OH264467   1.258   0.959   4.875  0.4166  0.1724  0.1353
14351TIP3    H164468   1.229   1.019   4.807 -0.3347 -1.0782 -0.7067
14351TIP3    H264469   1.245   0.872   4.836 -1.7767 -0.6788  2.4988
14352TIP3   OH264470   2.077   0.337   5.796 -0.6060 -0.0563 -0.1523
14352TIP3    H164471   2.059   0.260   5.851  1.7122 -1.0829 -0.7075
14352TIP3    H264472   2.113   0.402   5.856  0.8783 -0.7779 -0.2094
14353TIP3   OH264473   3.598   6.433  16.858 -0.1284  0.3969  0.5600
14353TIP3    H164474   3.613   6.526  16.839 -0.6448  0.4964  0.6251
14353TIP3    H264475   3.627   6.388  16.779 -0.5995  0.6765  0.2215
14354TIP3   OH264476   2.804   4.366   1.947 -0.4897 -0.0182  0.4146
14354TIP3    H164477   2.870   4.298   1.959  0.9919  1.2592 -0.0693
14354TIP3    H264478   2.804   4.383   1.852 -0.5809  0.8630  0.5638
14355TIP3   OH264479   6.165   3.181  16.571  0.1291  0.6402 -0.4085
14355TIP3    H164480   6.083   3.136  16.595  1.0454  0.0523  1.9466
14355TIP3    H264481   6.142   3.274  16.570 -0.1850  0.7131  2.6077
14356TIP3   OH264482   0.913   0.852   3.716  0.0191  0.2698 -0.3385
14356TIP3    H164483   0.879   0.771   3.755  1.8150  0.5119  1.9682
14356TIP3    H264484   1.007   0.849   3.734  0.4292  1.9956 -1.9153
14357TIP3   OH264485   4.749   2.783   4.709 -0.0433 -0.4669  0.1046
14357TIP3    H164486   4.791   2.815   4.630 -2.2856  2.2795 -0.1213
14357TIP3    H264487   4.777   2.843   4.778 -2.8751  1.0586  0.0712
14358TIP3   OH264488   4.877   2.086   1.723 -0.1839  0.4471  0.1884
14358TIP3    H164489   4.816   2.073   1.796  0.4182  1.1354  0.8339
14358TIP3    H264490   4.942   2.148   1.757 -0.1053  1.0886 -1.0595
14359TIP3   OH264491   5.042   0.643   0.978 -0.2817 -0.3139 -0.4418
14359TIP3    H164492   4.973   0.646   0.912 -1.5987  0.5580  0.9207
14359TIP3    H264493   5.121   0.618   0.929 -1.5494 -1.4205 -2.0141
14360TIP3   OH264494   4.014   1.799   0.716 -0.4017  0.2016 -0.3512
14360TIP3    H164495   4.057   1.742   0.652  0.2801 -0.2033  0.4583
14360TIP3    H264496   4.075   1.805   0.789 -1.8885 -0.7245  1.0236
14361TIP3   OH264497   1.389   5.902  13.088 -0.1326 -0.0639 -0.1171
14361TIP3    H164498   1.443   5.879  13.163  0.5952 -1.8254 -1.1269
14361TIP3    H264499   1.373   5.819  13.043 -1.7039  0.7559 -1.1591
14362TIP3   OH264500   0.252   1.243  11.746 -0.1888  0.1584  0.6280
14362TIP3    H164501   0.256   1.218  11.654  0.0615  0.9630  0.4107
14362TIP3    H264502   0.321   1.192  11.788 -0.1060  0.0079  0.3130
14363TIP3   OH264503   6.217   5.575  15.968  0.1154  0.2827 -0.2439
14363TIP3    H164504   6.158   5.634  16.016  1.6318  2.0090 -0.3866
14363TIP3    H264505   6.299   5.580  16.017  0.8148 -0.2780 -1.3374
14364TIP3   OH264506   3.384   2.100  14.829 -0.7096  0.0346 -0.2335
14364TIP3    H164507   3.436   2.166  14.783 -0.0001 -0.4110 -0.1053
14364TIP3    H264508   3.293   2.126  14.816 -0.4989  0.2394 -1.3922
14365TIP3   OH264509   1.675   4.876  13.308 -0.4232 -0.0450 -0.0341
14365TIP3    H164510   1.693   4.794  13.263 -3.3246 -1.3186  0.8738
14365TIP3    H264511   1.752   4.892  13.362  0.1978 -2.1999 -0.1996
14366TIP3   OH264512   0.485   2.455  14.917 -0.0904 -0.3083 -0.4371
14366TIP3    H164513   0.454   2.533  14.872  1.5203  0.4721 -0.2399
14366TIP3    H264514   0.573   2.477  14.947 -0.5072 -1.3204  1.7740
14367TIP3   OH264515   6.228   0.612  11.810 -0.1933  0.2499  0.5071
14367TIP3    H164516   6.163   0.573  11.751  1.7790 -1.1420 -0.8559
14367TIP3    H264517   6.244   0.545  11.876  0.0829  0.4594  0.6548
14368TIP3   OH264518   2.536   3.591   4.887 -0.4403  0.0195 -0.0782
14368TIP3    H164519   2.597   3.620   4.819 -1.0320 -1.4881 -1.3086
14368TIP3    H264520   2.566   3.504   4.911  0.5047  0.9686  2.5808
14369TIP3   OH264521   4.659   2.549  13.149  0.2164  0.3927  0.0580
14369TIP3    H164522   4.707   2.526  13.069  0.5590  0.3461  0.2774
14369TIP3    H264523   4.700   2.497  13.218  0.6153  1.2108  0.4510
14370TIP3   OH264524   1.295   2.579  13.036  0.4608  0.2216  0.0071
14370TIP3    H164525   1.376   2.630  13.029 -0.5039  1.6634 -1.1410
14370TIP3    H264526   1.263   2.572  12.946 -0.3978 -0.8531  0.3752
14371TIP3   OH264527   0.619   0.812   1.711 -0.1243 -0.1120 -0.6979
14371TIP3    H164528   0.585   0.728   1.741 -0.4945  0.6260  1.0768
14371TIP3    H264529   0.714   0.802   1.715 -0.1663 -0.5276 -0.7507
14372TIP3   OH264530   2.998   3.147  13.919  0.0120  0.0261  0.4043
14372TIP3    H164531   2.959   3.061  13.932  1.6286 -0.6029  1.2362
14372TIP3    H264532   3.077   3.147  13.972  0.6826  1.5968 -0.5161
14373TIP3   OH264533   3.991   2.841  12.623 -0.1220  0.2323  0.3840
14373TIP3    H164534   3.941   2.847  12.704 -0.2410  0.0808  0.3217
14373TIP3    H264535   4.036   2.756  12.629  0.1299  0.3688  0.4419
14374TIP3   OH264536   0.710   0.587   0.574 -0.1703 -0.2167 -0.2536
14374TIP3    H164537   0.695   0.601   0.667  0.6559  1.1440 -0.3018
14374TIP3    H264538   0.734   0.494   0.567  1.4760  0.0564  1.1232
14375TIP3   OH264539   5.725   3.354  13.483 -0.0898 -0.0028  0.2295
14375TIP3    H164540   5.807   3.399  13.504  0.6177 -1.7376  1.4211
14375TIP3    H264541   5.753   3.268  13.451 -1.3790  0.5205 -2.4849
14376TIP3   OH264542   3.022   5.555   6.019  0.0593  0.0955 -0.0846
14376TIP3    H164543   3.069   5.498   5.959 -0.3022 -0.2079 -0.0784
14376TIP3    H264544   3.011   5.503   6.098 -0.9173 -0.0895 -0.3357
14377TIP3   OH264545   6.322   3.197   3.121  0.6250 -0.0446  0.3486
14377TIP3    H164546   6.272   3.256   3.177  1.4080  2.4007 -1.3157
14377TIP3    H264547   6.371   3.142   3.181 -0.1665  0.9901  2.0210
14378TIP3   OH264548   1.497   5.185  13.938 -0.1501 -0.3708 -0.0741
14378TIP3    H164549   1.416   5.140  13.964  0.9701 -0.9747  2.8162
14378TIP3    H264550   1.566   5.121  13.955  1.2694  1.5095  1.7045
14379TIP3   OH264551   2.411   6.643   3.986  0.1109 -0.2229 -0.5096
14379TIP3    H164552   2.468   6.573   4.018 -0.7551 -0.3233  0.9146
14379TIP3    H264553   2.366   6.606   3.910 -0.2958 -1.2074  0.1979
14380TIP3   OH264554   4.608   5.765   3.884 -0.0795  0.8857 -0.5365
14380TIP3    H164555   4.597   5.845   3.936 -1.7646  0.1655  0.2956
14380TIP3    H264556   4.640   5.701   3.947  0.8914  0.7806 -1.1160
14381TIP3   OH264557   0.208   4.863  15.727  0.1258  0.1636  0.1859
14381TIP3    H164558   0.257   4.820  15.657  0.2235  1.1391 -0.3642
14381TIP3    H264559   0.260   4.846  15.806 -1.0083 -2.6431  0.4287
14382TIP3   OH264560   5.410   0.661   5.220 -0.3737  0.2589  0.0345
14382TIP3    H164561   5.430   0.741   5.172  0.0973  1.5282  2.2179
14382TIP3    H264562   5.324   0.677   5.260 -2.0973 -1.8573 -2.4359
14383TIP3   OH264563   5.895   5.505   3.357  0.2463  0.4338  0.0062
14383TIP3    H164564   5.821   5.542   3.309  0.8775 -0.0637 -1.4329
14383TIP3    H264565   5.969   5.562   3.336  0.9409 -0.8343 -1.1876
14384TIP3   OH264566   6.600   2.912   4.646  0.0505 -0.3938 -0.0442
14384TIP3    H164567   6.507   2.901   4.630 -0.3874  1.8337  0.6348
14384TIP3    H264568   6.643   2.872   4.571 -1.4426 -1.3135 -0.4413
14385TIP3   OH264569   1.309   4.627  12.125 -0.2555 -0.2988  0.1800
14385TIP3    H164570   1.368   4.702  12.133 -1.0000  0.5204 -1.5361
14385TIP3    H264571   1.264   4.624  12.210  1.2861 -0.1520  1.0523
14386TIP3   OH264572   2.416   1.905  12.270 -0.2920 -0.1265  0.1153
14386TIP3    H164573   2.487   1.877  12.328 -0.1592  1.7800  0.9416
14386TIP3    H264574   2.374   1.978  12.316 -0.1000  1.5548 -2.1818
14387TIP3   OH264575   4.541   2.132  11.056 -0.0293 -0.8677  0.0939
14387TIP3    H164576   4.479   2.062  11.034  1.3897 -2.3445  0.5722
14387TIP3    H264577   4.620   2.085  11.083  0.5603  0.9292  1.6403
14388TIP3   OH264578   4.986   2.914   2.320  0.4333 -0.5094  0.1048
14388TIP3    H164579   5.026   2.865   2.248 -0.8065 -0.7072 -0.4993
14388TIP3    H264580   5.010   2.866   2.399  1.5512 -0.4779 -0.2024
14389TIP3   OH264581   5.347   6.174  14.480 -0.3680  0.2234 -0.3110
14389TIP3    H164582   5.368   6.255  14.433 -0.8350  0.0097 -0.8967
14389TIP3    H264583   5.376   6.104  14.422  1.8816 -0.0588  1.0364
14390TIP3   OH264584   0.824   6.511   2.974  0.6905 -0.0206  0.1031
14390TIP3    H164585   0.874   6.578   2.928 -0.4986  1.0209  0.2529
14390TIP3    H264586   0.740   6.553   2.993  0.7000 -0.7909  2.1963
14391TIP3   OH264587   6.650   3.458   0.651  0.4449 -0.1987 -0.0252
14391TIP3    H164588   6.711   3.490   0.585 -1.0694  3.0003 -0.0793
14391TIP3    H264589   6.564   3.462   0.608 -0.3989  0.5236  1.6424
14392TIP3   OH264590   3.411   4.207  16.543 -0.2710  0.2711 -0.6443
14392TIP3    H164591   3.401   4.153  16.622 -0.4224 -0.3920 -1.1067
14392TIP3    H264592   3.455   4.286  16.574 -2.2587  0.9958  0.5230
14393TIP3   OH264593   5.475   4.834   6.254  0.3722 -0.4905  0.1020
14393TIP3    H164594   5.446   4.778   6.326  0.8150 -0.9079 -0.0375
14393TIP3    H264595   5.426   4.915   6.266 -0.6733 -1.0790  0.0180
14394TIP3   OH264596   1.651   0.251   1.941  0.1079 -0.1808  0.2905
14394TIP3    H164597   1.728   0.195   1.930  0.1774  0.2387 -1.7682
14394TIP3    H264598   1.633   0.285   1.853 -0.8163  1.8619  1.1922
14395TIP3   OH264599   2.416   1.812   1.705 -0.2389  0.2865  0.4434
14395TIP3    H164600   2.438   1.731   1.660 -0.0351 -0.8079  2.4173
14395TIP3    H264601   2.326   1.831   1.679 -0.4328 -0.8093  0.2848
14396TIP3   OH264602   5.748   2.734   2.089 -0.3580  0.1303  0.1189
14396TIP3    H164603   5.714   2.769   2.171  0.3733 -0.2683  0.6028
14396TIP3    H264604   5.712   2.792   2.021 -0.2315  1.0239  0.7950
14397TIP3   OH264605   1.336   0.406   1.753  0.0349  0.0116  0.2220
14397TIP3    H164606   1.406   0.438   1.810 -0.3419 -0.3556  0.9050
14397TIP3    H264607   1.267   0.471   1.763  0.1389  0.1802 -0.1645
14398TIP3   OH264608   0.227   1.703   0.914  0.3896  0.6675  0.1412
14398TIP3    H164609   0.269   1.758   0.847 -0.2689 -0.3903 -1.1833
14398TIP3    H264610   0.271   1.618   0.907  0.2938  0.5263  1.0592
14399TIP3   OH264611   0.894   0.827   5.209 -0.6710  0.2881  0.1096
14399TIP3    H164612   0.960   0.862   5.268  0.4515  1.9876 -1.9837
14399TIP3    H264613   0.855   0.904   5.168 -3.3149 -0.7084  0.5381
14400TIP3   OH264614   5.966   5.176  16.125 -0.3590  0.1064  0.8838
14400TIP3    H164615   5.884   5.128  16.134 -0.9882  0.6464 -1.3158
14400TIP3    H264616   5.946   5.245  16.063  0.8733  2.4682  2.9493
14401TIP3   OH264617   1.238   4.523  11.600 -0.4657 -0.3792  0.1485
14401TIP3    H164618   1.230   4.436  11.640  0.8028 -1.1807 -1.2343
14401TIP3    H264619   1.149   4.559  11.604 -0.7976 -1.2505  1.7572
14402TIP3   OH264620   0.030   0.239  13.918 -0.4953  0.4222 -0.0320
14402TIP3    H164621   0.107   0.296  13.922  0.8290 -1.1011 -1.6762
14402TIP3    H264622   0.060   0.163  13.867 -2.4600 -1.2654  1.1736
14403TIP3   OH264623   0.811   6.484   1.649 -0.7551 -0.1352 -0.1975
14403TIP3    H164624   0.789   6.535   1.571  1.0566  0.5885 -0.2783
14403TIP3    H264625   0.786   6.394   1.627  1.8732 -0.4170 -2.6187
14404TIP3   OH264626   6.078   3.847  11.963  0.3059  1.1254  0.0180
14404TIP3    H164627   6.069   3.940  11.943  2.8053  1.3553 -0.3986
14404TIP3    H264628   6.112   3.844  12.052  1.6483  0.7278 -0.4737
14405TIP3   OH264629   1.135   4.228   0.056 -0.3140 -0.4001  0.3300
14405TIP3    H164630   1.046   4.256   0.079 -0.9709 -1.6602 -0.5741
14405TIP3    H264631   1.133   4.216  -0.039  1.0576  0.2771  0.1804
14406TIP3   OH264632   5.060   3.723  12.114  0.0451 -0.5276  0.2294
14406TIP3    H164633   5.102   3.639  12.128  0.3289 -0.2043  1.4548
14406TIP3    H264634   4.967   3.706  12.129 -0.1371 -0.9616 -1.2049
14407TIP3   OH264635   1.007   3.039   0.955 -0.4856  0.6056  0.0469
14407TIP3    H164636   1.055   3.038   1.037  0.9446  1.5284 -0.7430
14407TIP3    H264637   0.979   2.948   0.942  1.6731 -0.1238  0.1895
14408TIP3   OH264638   3.833   4.221   6.308 -0.0202 -0.5883 -0.9327
14408TIP3    H164639   3.847   4.178   6.392 -1.2716 -0.8211 -0.8343
14408TIP3    H264640   3.739   4.219   6.295  0.0580  0.4643 -1.8115
14409TIP3   OH264641   2.925   4.224   6.129 -0.6634 -0.4695 -0.3453
14409TIP3    H164642   2.885   4.146   6.168 -1.4510 -1.0562 -2.2112
14409TIP3    H264643   2.882   4.298   6.174 -0.6785 -1.0903  0.6987
14410TIP3   OH264644   6.584   2.710  13.342 -0.3608 -0.1100 -0.9130
14410TIP3    H164645   6.542   2.627  13.364 -0.7528  0.9326  2.9820
14410TIP3    H264646   6.672   2.704  13.379  0.3280  0.5304 -2.3597
14411TIP3   OH264647   0.806   6.140   3.417 -0.9425 -0.3337  0.2570
14411TIP3    H164648   0.868   6.183   3.476 -0.1232 -1.7628  0.4880
14411TIP3    H264649   0.856   6.128   3.336 -1.3122 -0.4391  0.0461
14412TIP3   OH264650   2.978   3.926  16.991 -0.0233 -0.1116  0.5848
14412TIP3    H164651   3.003   3.939  16.899  1.6006 -0.0432  1.0089
14412TIP3    H264652   2.905   3.864  16.987  1.3768 -1.7702 -0.6459
14413TIP3   OH264653   4.807   1.089   6.054  0.7643 -0.1015 -0.0797
14413TIP3    H164654   4.878   1.103   6.117  0.5959  0.3681  0.0064
14413TIP3    H264655   4.848   1.102   5.968  1.0023 -0.7781 -0.0766
14414TIP3   OH264656   3.040   5.383  11.650  0.5436  0.1057 -0.5152
14414TIP3    H164657   3.003   5.306  11.606  0.9719 -0.3403 -0.1173
14414TIP3    H264658   3.057   5.353  11.740 -1.3970  1.3340  0.3316
14415TIP3   OH264659   5.654   1.017  17.094 -0.0446  0.2241  0.5250
14415TIP3    H164660   5.580   1.026  17.155 -0.8911  0.6076 -0.5255
14415TIP3    H264661   5.673   0.923  17.094 -0.1626  0.1918  1.2152
14416TIP3   OH264662   2.041   4.578  12.661 -0.3917 -0.8693 -0.1608
14416TIP3    H164663   2.083   4.663  12.676  0.2129 -1.0454 -0.7972
14416TIP3    H264664   2.082   4.546  12.580 -0.4440 -1.8689  0.2066
14417TIP3   OH264665   4.477   1.142  12.222  0.4932  0.5174 -0.2004
14417TIP3    H164666   4.512   1.222  12.263  0.6453  0.6551 -0.5997
14417TIP3    H264667   4.498   1.073  12.285  2.0197  0.4996 -0.6810
14418TIP3   OH264668   5.717   6.004   1.065  0.3509  0.1833 -0.6964
14418TIP3    H164669   5.667   5.951   1.003 -0.7630  3.2475 -2.6228
14418TIP3    H264670   5.657   6.017   1.139 -0.2453  0.5706 -1.2358
14419TIP3   OH264671   0.358   1.089  13.582 -0.2982 -0.2316  0.9652
14419TIP3    H164672   0.379   1.150  13.653 -1.7942  0.5363  0.7972
14419TIP3    H264673   0.395   1.129  13.503 -0.3788 -0.0627  1.0134
14420TIP3   OH264674   4.456   2.523  12.294  0.0643 -0.5111 -0.1617
14420TIP3    H164675   4.368   2.499  12.267 -0.7044 -0.8449  2.3848
14420TIP3    H264676   4.473   2.607  12.251 -0.4229 -1.6129 -2.7074
14421TIP3   OH264677   4.542   1.392  15.266  0.3791  0.1115  0.4667
14421TIP3    H164678   4.479   1.451  15.308  2.0072  2.3529 -0.0105
14421TIP3    H264679   4.608   1.377  15.333  1.0459  0.6051 -0.0597
14422TIP3   OH264680   5.200   1.378  16.696  0.1493  0.7574 -0.0115
14422TIP3    H164681   5.283   1.331  16.702 -0.7581 -0.7444  3.2762
14422TIP3    H264682   5.136   1.312  16.668 -0.6434  0.6476  1.8854
14423TIP3   OH264683   5.999   1.492  14.134 -0.4242 -0.1894 -0.0516
14423TIP3    H164684   5.924   1.436  14.118  0.6778 -1.6117 -0.4632
14423TIP3    H264685   5.997   1.557  14.064 -0.7825 -0.7459 -0.5555
14424TIP3   OH264686   5.988   2.399   3.927  0.6511  0.7934  0.4759
14424TIP3    H164687   5.943   2.372   4.007  1.0479  1.5781  0.9700
14424TIP3    H264688   6.064   2.448   3.957  1.8234 -0.4345 -0.3424
14425TIP3   OH264689   0.665   0.041   4.135  0.0905  0.3457 -0.3082
14425TIP3    H164690   0.747   0.090   4.148  0.0554  0.1417  0.7667
14425TIP3    H264691   0.688  -0.050   4.154 -0.0885  0.0808 -1.2957
14426TIP3   OH264692   2.334   3.467  12.643  0.1563  0.0600  0.4245
14426TIP3    H164693   2.278   3.466  12.721  0.8750  3.3137  1.1550
14426TIP3    H264694   2.277   3.502  12.574  0.0487 -1.0055 -0.0352
14427TIP3   OH264695   0.462   4.912   3.405 -0.3039 -0.3939  0.2451
14427TIP3    H164696   0.511   4.837   3.439  0.0680  0.8831  2.7564
14427TIP3    H264697   0.530   4.972   3.371 -0.3565  0.0065  0.8323
14428TIP3   OH264698   0.298   0.217  12.812 -0.3803  0.4855 -0.2908
14428TIP3    H164699   0.299   0.232  12.717  1.5660  0.7802 -0.2727
14428TIP3    H264700   0.351   0.139  12.824 -1.5405 -0.2061  0.5021
14429TIP3   OH264701   4.122   0.251  15.061  0.1725  0.8476 -0.0998
14429TIP3    H164702   4.124   0.304  14.981  0.8739 -0.4164 -0.9609
14429TIP3    H264703   4.166   0.170  15.036  0.6174  0.5190  1.6531
14430TIP3   OH264704   3.252   1.713  16.537  0.1696 -0.4293 -0.0826
14430TIP3    H164705   3.192   1.675  16.602  1.3721 -0.3122  1.1417
14430TIP3    H264706   3.195   1.764  16.480 -0.7994  0.7611  1.8190
14431TIP3   OH264707   5.208   2.301  11.330 -0.0753 -0.2422  0.4288
14431TIP3    H164708   5.182   2.287  11.421 -1.8825 -0.7526 -0.1162
14431TIP3    H264709   5.161   2.234  11.281 -1.7779  2.0167 -1.2384
14432TIP3   OH264710   5.883   5.075  13.925 -0.3347 -0.1316 -0.3166
14432TIP3    H164711   5.828   5.149  13.901 -0.2850  0.7680  2.1201
14432TIP3    H264712   5.972   5.109  13.925 -0.2391 -0.3715  0.1564
14433TIP3   OH264713   2.370   5.595  15.756 -0.1207  0.3687  0.3373
14433TIP3    H164714   2.391   5.604  15.849 -0.5660  0.7821  0.4008
14433TIP3    H264715   2.446   5.632  15.711  0.5326 -0.7166  0.5109
14434TIP3   OH264716   1.857   4.411   6.129 -0.2193  0.0813 -0.3751
14434TIP3    H164717   1.768   4.413   6.095  0.5458  1.1991 -2.5066
14434TIP3    H264718   1.901   4.485   6.086  2.1016 -1.2462 -0.4757
14435TIP3   OH264719   3.556   0.451   1.973 -0.2791  0.2371  0.4696
14435TIP3    H164720   3.528   0.442   2.064  1.1200  0.9424  0.9971
14435TIP3    H264721   3.490   0.403   1.923 -1.2887  0.1632  1.8110
14436TIP3   OH264722   4.552   2.387   0.354  0.1431 -0.4285 -0.2985
14436TIP3    H164723   4.527   2.301   0.387  0.4269  0.2593  1.8689
14436TIP3    H264724   4.471   2.439   0.359  0.1514 -0.3658 -0.8450
14437TIP3   OH264725   5.721   3.528  16.788 -0.8096 -0.0563 -0.6071
14437TIP3    H164726   5.780   3.595  16.821 -1.5915  0.1592  0.4107
14437TIP3    H264727   5.712   3.466  16.861 -0.2662 -1.1604 -1.4586
14438TIP3   OH264728   0.337   2.351  11.624  0.4802  0.3062  0.3392
14438TIP3    H164729   0.419   2.398  11.610  0.9245 -0.4851  0.2328
14438TIP3    H264730   0.328   2.346  11.719  0.9562 -0.2782  0.3590
14439TIP3   OH264731   4.006   3.681  14.073  0.1473 -0.2573  0.1737
14439TIP3    H164732   3.990   3.752  14.134 -1.7294 -1.5561  1.3131
14439TIP3    H264733   4.093   3.648  14.096 -0.5084 -0.7044  2.2204
14440TIP3   OH264734   4.562   5.860  16.803 -0.8585  0.2744 -0.1223
14440TIP3    H164735   4.657   5.848  16.792 -1.1034 -0.6699 -1.5646
14440TIP3    H264736   4.553   5.902  16.888  0.7537 -1.2667  0.8940
14441TIP3   OH264737   0.406   1.916  16.943 -0.5590 -0.1723  0.6133
14441TIP3    H164738   0.419   1.986  17.006 -0.5716  0.1588  0.2525
14441TIP3    H264739   0.493   1.897  16.909 -0.6722  0.3149  0.0311
14442TIP3   OH264740   2.925   0.587  15.884  0.1169  0.3993 -0.1551
14442TIP3    H164741   2.837   0.562  15.855  0.3760 -0.1275 -0.5135
14442TIP3    H264742   2.912   0.664  15.938 -0.7433 -0.5629  1.0662
14443TIP3   OH264743   1.751   3.424  13.492 -0.0096 -0.5842  0.1885
14443TIP3    H164744   1.835   3.468  13.482  0.0382 -0.7975 -0.3661
14443TIP3    H264745   1.686   3.493  13.483  0.0651 -0.6279 -0.6991
14444TIP3   OH264746   2.726   1.465   2.167  0.4609  0.1956  0.5728
14444TIP3    H164747   2.661   1.452   2.235 -0.0633  0.6810  0.1745
14444TIP3    H264748   2.685   1.429   2.088  0.0621  1.8320  0.0093
14445TIP3   OH264749   6.568   0.935  13.481  0.1190 -0.0462  0.2760
14445TIP3    H164750   6.565   0.882  13.561 -0.9901 -0.2016  0.1541
14445TIP3    H264751   6.536   1.021  13.508  2.6948  0.8803  0.6576
14446TIP3   OH264752   3.683   1.799  17.358  0.3113 -0.4431  0.5762
14446TIP3    H164753   3.591   1.773  17.356  0.0109  0.6436 -0.7515
14446TIP3    H264754   3.699   1.841  17.274  2.3294 -1.5968  0.3029
14447TIP3   OH264755   1.225   4.959   1.064 -0.0778 -0.0582 -0.1098
14447TIP3    H164756   1.208   5.038   1.115 -0.6171  0.7501 -1.4737
14447TIP3    H264757   1.319   4.961   1.046  0.4180 -1.1403  2.0389
14448TIP3   OH264758   3.070   5.788  11.217 -0.6501 -0.1389  0.3306
14448TIP3    H164759   3.111   5.775  11.132  0.8082 -0.7802  1.0722
14448TIP3    H264760   2.979   5.760  11.206 -0.0517 -1.8689 -0.6045
14449TIP3   OH264761   1.028   0.459  11.746  0.0322  0.4122  0.2975
14449TIP3    H164762   1.011   0.368  11.721 -1.1058  0.7077 -0.0461
14449TIP3    H264763   1.096   0.488  11.684 -2.1963  0.8987 -2.0877
14450TIP3   OH264764   6.619   0.571  12.041  0.3684  0.3705 -0.1240
14450TIP3    H164765   6.604   0.620  11.960  1.5363  1.9151  0.5392
14450TIP3    H264766   6.703   0.603  12.073 -0.8737  1.2187  2.6265
14451TIP3   OH264767   3.659   3.613  17.086  0.1266  0.0131 -0.4118
14451TIP3    H164768   3.728   3.651  17.031  0.1695 -3.4749 -3.0902
14451TIP3    H264769   3.659   3.520  17.064 -1.8816 -1.1298  3.5017
14452TIP3   OH264770   3.489   3.370   4.572 -0.2509  0.4794 -0.8438
14452TIP3    H164771   3.493   3.432   4.499 -2.1936  0.7502 -0.7600
14452TIP3    H264772   3.403   3.328   4.564 -0.2833  0.1038  0.9490
14453TIP3   OH264773   3.666   6.337  14.887  0.2254  0.0055  0.5297
14453TIP3    H164774   3.639   6.424  14.858  0.8405  0.7694  2.1333
14453TIP3    H264775   3.655   6.282  14.810 -2.0978  1.0598  0.0011
14454TIP3   OH264776   0.736   1.161   2.558  0.8939  0.0051 -0.3636
14454TIP3    H164777   0.726   1.066   2.556  2.6198 -0.2421  0.8040
14454TIP3    H264778   0.780   1.182   2.475  2.8921 -0.5796  0.4934
14455TIP3   OH264779   0.769   0.092  16.272  0.0368 -0.6914  0.0841
14455TIP3    H164780   0.808   0.080  16.186  0.0829 -1.8730  0.2500
14455TIP3    H264781   0.824   0.158  16.315  1.1091 -1.4191 -0.1402
14456TIP3   OH264782   1.799   2.772   1.140 -0.1540 -0.0648  0.2810
14456TIP3    H164783   1.794   2.719   1.220 -1.3164 -0.9762 -0.3495
14456TIP3    H264784   1.728   2.835   1.149  0.5919  0.7489  0.5733
14457TIP3   OH264785   5.785   0.765  11.655 -0.0272 -0.0520  0.2453
14457TIP3    H164786   5.756   0.823  11.584 -0.5425 -0.9608 -0.2986
14457TIP3    H264787   5.812   0.685  11.610 -0.0707 -0.5261  1.0638
14458TIP3   OH264788   1.435   0.527   0.077 -0.3175  0.2657 -0.3917
14458TIP3    H164789   1.426   0.544  -0.017  0.2986  0.2629 -0.4552
14458TIP3    H264790   1.359   0.474   0.099 -0.6841  0.6075 -0.8047
14459TIP3   OH264791   4.466   2.863  14.808 -0.2899 -0.1836  0.5561
14459TIP3    H164792   4.502   2.845  14.722  0.3952  0.5490  0.6788
14459TIP3    H264793   4.374   2.882  14.792  0.3558  2.5854 -0.3963
14460TIP3   OH264794   0.111   1.741   2.989  0.1689 -0.6037  0.0852
14460TIP3    H164795   0.194   1.784   3.007 -0.7816  1.2557  0.2436
14460TIP3    H264796   0.134   1.649   2.975  2.3719  0.0642 -1.0337
14461TIP3   OH264797   4.790   3.236   5.601 -0.4662 -0.0695 -0.3287
14461TIP3    H164798   4.696   3.249   5.587 -0.5437 -1.0933 -0.9073
14461TIP3    H264799   4.832   3.300   5.544 -0.7837  1.7186  1.3674
14462TIP3   OH264800   2.705   4.959  15.839 -0.4111 -0.2023  0.4428
14462TIP3    H164801   2.696   5.043  15.794  0.6802 -1.0264 -1.4267
14462TIP3    H264802   2.619   4.945  15.880 -0.9344  1.3378 -0.0365
14463TIP3   OH264803   5.282   2.560  14.012 -0.3737 -0.5287 -0.2805
14463TIP3    H164804   5.342   2.635  14.005 -1.0244  0.0812  0.5169
14463TIP3    H264805   5.244   2.553  13.925  0.0821 -0.2680 -0.5083
14464TIP3   OH264806   6.086   4.755   6.372  0.2974  0.1561 -0.4858
14464TIP3    H164807   6.109   4.663   6.355  0.3777  0.1235 -0.2022
14464TIP3    H264808   6.068   4.791   6.285  1.7400  0.2771 -0.7554
14465TIP3   OH264809   3.354   3.797   2.596  0.0562  0.2278 -0.2587
14465TIP3    H164810   3.332   3.882   2.557  1.6253  2.8328  3.7852
14465TIP3    H264811   3.447   3.787   2.580 -0.4972 -2.0722 -2.6637
14466TIP3   OH264812   2.344   6.012  13.651  0.1363 -0.1719  0.3941
14466TIP3    H164813   2.264   5.965  13.674  0.1914  0.5034  2.0836
14466TIP3    H264814   2.314   6.096  13.617  0.1153  0.0217  0.8849
14467TIP3   OH264815   3.792   1.953   4.123  0.3052 -0.0140 -0.0970
14467TIP3    H164816   3.869   1.968   4.069  0.5949 -1.5692 -0.1794
14467TIP3    H264817   3.811   1.995   4.206  0.6960  0.7030 -0.5413
14468TIP3   OH264818   4.389   1.576   4.424 -0.3069  0.2364  0.6175
14468TIP3    H164819   4.394   1.631   4.502  0.6910  2.2962 -0.8112
14468TIP3    H264820   4.296   1.576   4.402 -0.6650 -0.6932  1.9639
14469TIP3   OH264821   4.169   5.136   2.072  0.0597 -0.0174  0.1297
14469TIP3    H164822   4.174   5.087   1.990  1.9939 -4.1635  2.4214
14469TIP3    H264823   4.084   5.112   2.109 -1.5188  3.0553 -1.0734
14470TIP3   OH264824   6.413   0.143   3.774  0.0626 -0.5142 -0.0929
14470TIP3    H164825   6.447   0.204   3.709 -0.5436  0.3700  0.4091
14470TIP3    H264826   6.482   0.137   3.839 -0.4632  0.8316  0.6289
14471TIP3   OH264827   4.695   0.545  13.491  0.3218  0.5134  0.6104
14471TIP3    H164828   4.684   0.580  13.579 -0.2915  1.4167  0.1870
14471TIP3    H264829   4.696   0.450  13.503 -1.0375  0.5831  1.4631
14472TIP3   OH264830   1.931   4.405  11.714  0.0841  0.4030 -0.3982
14472TIP3    H164831   1.876   4.327  11.699 -0.1463  0.7909 -1.7733
14472TIP3    H264832   1.928   4.419  11.808  1.1654 -2.0017  0.0724
14473TIP3   OH264833   4.038   0.746   5.079 -0.2501  0.0186  0.2253
14473TIP3    H164834   4.006   0.789   5.000  0.3449  0.1929  0.0727
14473TIP3    H264835   4.112   0.799   5.107  0.6977 -1.0683 -0.1387
14474TIP3   OH264836   4.262   5.143  16.901  0.5497 -0.1647 -0.4830
14474TIP3    H164837   4.329   5.175  16.841  0.6560 -0.2029 -0.3829
14474TIP3    H264838   4.204   5.091  16.846  1.9042 -2.1231 -0.1501
14475TIP3   OH264839   4.853   0.849  12.178  0.1667 -0.1414 -0.4849
14475TIP3    H164840   4.842   0.887  12.266 -0.2867  0.1814 -0.6801
14475TIP3    H264841   4.808   0.765  12.183 -3.2322  1.4407 -1.4740
14476TIP3   OH264842   4.242   3.858   5.925  0.1574 -0.1411  0.4114
14476TIP3    H164843   4.324   3.827   5.963 -0.1242 -2.4171 -0.6561
14476TIP3    H264844   4.258   3.950   5.903  2.1353 -0.3292  0.9453
14477TIP3   OH264845   3.975   4.836  16.849 -0.4652 -0.0411 -0.1402
14477TIP3    H164846   3.950   4.839  16.942 -0.3283 -1.8534 -0.0222
14477TIP3    H264847   3.972   4.928  16.821 -0.4809  0.5438  1.6559
14478TIP3   OH264848   4.043   2.462   0.106 -0.5836 -0.5999  0.0463
14478TIP3    H164849   4.127   2.470   0.061  1.0775 -0.4403  2.9207
14478TIP3    H264850   4.009   2.552   0.109 -0.3232 -0.4897 -0.2223
14479TIP3   OH264851   2.808   0.870  10.824  1.0348 -1.0070 -0.0333
14479TIP3    H164852   2.839   0.844  10.737  1.5297 -0.8642  0.0920
14479TIP3    H264853   2.868   0.826  10.884  1.5268 -0.0556  0.1969
14480TIP3   OH264854   3.443   1.487   2.833 -0.5732  0.3030 -0.0629
14480TIP3    H164855   3.467   1.450   2.748  0.7768  0.6640  0.1380
14480TIP3    H264856   3.422   1.578   2.815 -1.0858  0.1733 -0.1279
14481TIP3   OH264857   4.388   0.449   3.301  0.4146  0.0001  0.1630
14481TIP3    H164858   4.319   0.386   3.283 -0.0928  1.4376 -3.8899
14481TIP3    H264859   4.468   0.397   3.304 -0.2863 -1.1259 -0.0347
14482TIP3   OH264860   6.011   4.676   1.946  0.8750 -1.0243  0.4195
14482TIP3    H164861   6.061   4.730   2.007  0.3994 -0.8397  0.6504
14482TIP3    H264862   6.063   4.676   1.866  0.5833  0.2689  0.2228
14483TIP3   OH264863   2.905   1.168   0.332 -0.4598 -0.3049  0.1345
14483TIP3    H164864   2.823   1.129   0.302 -0.3959  0.8631 -1.7115
14483TIP3    H264865   2.944   1.101   0.387 -1.5405 -1.8210 -0.8562
14484TIP3   OH264866   1.743   3.117   4.898 -0.5268  0.0093  0.7051
14484TIP3    H164867   1.735   3.061   4.975 -3.2497  1.1632  1.3858
14484TIP3    H264868   1.694   3.196   4.921  0.6515  1.4258 -1.3328
14485TIP3   OH264869   0.479   0.643   2.101  0.2451  0.1472  0.0602
14485TIP3    H164870   0.468   0.548   2.097 -0.5390  0.2558 -0.6534
14485TIP3    H264871   0.459   0.666   2.192  0.6378 -0.3857  0.2875
14486TIP3   OH264872   4.756   1.071   3.859 -0.1682  0.6474 -0.3580
14486TIP3    H164873   4.771   1.103   3.948 -1.7692 -0.0220  0.1920
14486TIP3    H264874   4.771   1.147   3.803  2.4989  0.6995  0.2752
14487TIP3   OH264875   5.948   5.313   4.755 -0.0132 -0.1432  0.1435
14487TIP3    H164876   6.041   5.295   4.746 -0.4773 -2.0939 -1.2979
14487TIP3    H264877   5.911   5.298   4.668 -1.7924 -0.1892  0.8573
14488TIP3   OH264878   0.295   4.804   0.857 -0.2914  0.0456 -0.4633
14488TIP3    H164879   0.319   4.713   0.840  0.2897  0.4554 -2.0229
14488TIP3    H264880   0.346   4.854   0.793  0.0432  1.5393  0.9227
14489TIP3   OH264881   1.599   2.816   3.544 -0.6731  0.3778  0.6945
14489TIP3    H164882   1.550   2.845   3.467 -2.0851 -1.0036  1.0146
14489TIP3    H264883   1.595   2.891   3.604 -1.6602  0.6128  0.3629
14490TIP3   OH264884   6.355   0.930   3.929  0.3106 -0.0196  0.0039
14490TIP3    H164885   6.415   0.945   3.856 -0.7687  0.1842 -0.8650
14490TIP3    H264886   6.326   1.017   3.954  1.5906  0.0199  1.5121
14491TIP3   OH264887   5.169   3.687   4.325  0.4554  0.3050 -0.1170
14491TIP3    H164888   5.137   3.744   4.396  1.8026 -0.0801  0.8546
14491TIP3    H264889   5.092   3.670   4.271 -0.8311 -0.0727  1.7383
14492TIP3   OH264890   6.294   5.300   1.768 -0.5746  0.2300  0.0787
14492TIP3    H164891   6.333   5.293   1.681  2.4327  0.1627  1.3104
14492TIP3    H264892   6.264   5.391   1.774  0.6770  0.6983 -0.4865
14493TIP3   OH264893   0.357   2.372   3.167 -0.2461 -0.5424 -0.4802
14493TIP3    H164894   0.448   2.362   3.195 -0.9382  0.4323  2.4716
14493TIP3    H264895   0.315   2.289   3.190 -0.1981 -0.9073 -1.6334
14494TIP3   OH264896   6.360   2.310   2.913 -0.1924 -0.6358 -0.6921
14494TIP3    H164897   6.432   2.247   2.924  0.4800  0.2805  0.2912
14494TIP3    H264898   6.403   2.395   2.912 -1.3092 -0.0242  0.6086
14495TIP3   OH264899   0.651   4.557   3.859  0.4524  0.0239 -0.2684
14495TIP3    H164900   0.573   4.610   3.876  0.8297  0.9546 -1.3746
14495TIP3    H264901   0.647   4.536   3.766  1.9570  0.8087 -0.5369
14496TIP3   OH264902   5.449   2.427   3.365  0.0263 -0.2290 -0.7627
14496TIP3    H164903   5.499   2.355   3.404 -2.3943 -1.3355  0.5488
14496TIP3    H264904   5.431   2.399   3.276  2.1679  0.4532 -1.4425
14497TIP3   OH264905   1.892   1.669   6.692  0.0287 -0.3367 -0.8321
14497TIP3    H164906   1.974   1.638   6.730 -0.0533 -0.3174 -0.6375
14497TIP3    H264907   1.917   1.708   6.608  0.3164  0.3280 -0.4503
14498TIP3   OH264908   5.521   5.390   1.835  0.1028 -0.3157 -0.2472
14498TIP3    H164909   5.435   5.433   1.831  0.4372  0.2705 -3.4652
14498TIP3    H264910   5.533   5.352   1.749  2.3844 -1.8908  0.6798
14499TIP3   OH264911   0.316   0.272   5.248 -0.1239 -0.2488 -0.7415
14499TIP3    H164912   0.224   0.295   5.257 -0.1825 -0.0793 -1.7416
14499TIP3    H264913   0.351   0.280   5.337 -0.8134  0.7995 -0.5493
14500TIP3   OH264914   3.167   2.539  15.131  0.1617 -0.3431 -0.1428
14500TIP3    H164915   3.139   2.453  15.100 -0.2060 -0.1383 -0.3861
14500TIP3    H264916   3.254   2.524  15.168 -0.4734 -1.1096  1.1303
14501TIP3   OH264917   6.122   2.758   0.905 -0.1637  0.7974  0.6401
14501TIP3    H164918   6.126   2.759   0.809 -0.2988  2.1380  0.6309
14501TIP3    H264919   6.200   2.709   0.932 -1.0806 -1.2026 -0.1717
14502TIP3   OH264920   1.476   6.040   5.875  0.1412 -0.9378 -0.8530
14502TIP3    H164921   1.440   6.115   5.828  1.8526  0.7203  0.3026
14502TIP3    H264922   1.569   6.041   5.855  0.2855 -2.5043 -0.4211
14503TIP3   OH264923   5.994   0.974   4.931 -0.1631  0.0120 -0.2840
14503TIP3    H164924   5.970   1.000   5.020  0.5108  1.0712 -0.4044
14503TIP3    H264925   6.073   0.922   4.942  0.4819  0.9672 -0.3388
14504TIP3   OH264926   2.682   1.554   0.069  0.7458 -0.2230 -0.2847
14504TIP3    H164927   2.614   1.512   0.122  0.5210  0.6497  0.1242
14504TIP3    H264928   2.635   1.615   0.012  1.2638  1.2385  0.8035
14505TIP3   OH264929   6.277   6.181  16.018 -0.3018  0.4450  0.0888
14505TIP3    H164930   6.328   6.105  15.992 -0.3303 -0.0239  1.3254
14505TIP3    H264931   6.270   6.234  15.939  0.5271 -0.3749 -0.5506
14506TIP3   OH264932   0.570   3.976  15.038  0.1343  0.6357 -0.7125
14506TIP3    H164933   0.555   3.940  14.950 -0.6586  0.8010 -0.6571
14506TIP3    H264934   0.602   3.901  15.089 -1.6060 -0.0668 -0.5708
14507TIP3   OH264935   0.809   3.051   1.227 -0.0765 -0.4257 -0.1135
14507TIP3    H164936   0.833   2.975   1.280 -0.8852 -1.1546 -0.7600
14507TIP3    H264937   0.722   3.075   1.256 -0.7039 -1.0876 -1.3420
14508TIP3   OH264938   1.304   2.098  14.568  0.4154 -0.0878 -0.5171
14508TIP3    H164939   1.293   2.078  14.476  0.2847  0.9051 -0.7324
14508TIP3    H264940   1.216   2.120  14.599  0.6854  1.1263 -0.5562
14509TIP3   OH264941   2.477   1.058   2.757  0.4211 -0.0570 -0.0713
14509TIP3    H164942   2.521   1.001   2.695  0.7554  1.3856 -1.2032
14509TIP3    H264943   2.431   1.122   2.703 -2.2642 -0.8584  1.0870
14510TIP3   OH264944   6.563   3.789  10.342 -0.0764 -0.0707  0.4180
14510TIP3    H164945   6.592   3.877  10.317  1.0764 -0.4787  0.2646
14510TIP3    H264946   6.614   3.769  10.421 -0.2648 -0.6323  0.3980
14511TIP3   OH264947   1.192   2.652   5.389 -0.1643 -0.1529 -0.1607
14511TIP3    H164948   1.156   2.649   5.300  0.5126  2.6244 -0.6326
14511TIP3    H264949   1.131   2.708   5.437 -0.8118 -2.0550  1.3369
14512TIP3   OH264950   4.311   3.213   2.252 -0.8115  0.0429 -0.0050
14512TIP3    H164951   4.372   3.179   2.186 -4.2572  0.0870 -3.5847
14512TIP3    H264952   4.328   3.307   2.256 -0.0440 -0.0834 -0.2561
14513TIP3   OH264953   1.407   5.965   5.102 -0.0755  0.3644 -0.2872
14513TIP3    H164954   1.381   5.905   5.031  0.5681  0.3595 -0.5247
14513TIP3    H264955   1.387   6.052   5.067 -0.3722  0.3274 -0.2131
14514TIP3   OH264956   4.745   0.411   6.645 -0.5484 -0.4965  0.1172
14514TIP3    H164957   4.779   0.366   6.722 -1.7498  0.4943  1.2717
14514TIP3    H264958   4.716   0.341   6.586 -0.3246 -1.2510  0.8914
14515TIP3   OH264959   0.624   2.136   2.073 -0.9308 -0.1322  0.3711
14515TIP3    H164960   0.632   2.164   1.982  0.9166 -1.1976  0.1727
14515TIP3    H264961   0.534   2.105   2.080 -1.2810  0.5077 -0.9268
14516TIP3   OH264962   0.993   3.102  12.269  0.2364 -0.1376 -0.0500
14516TIP3    H164963   0.937   3.025  12.259 -0.7604  0.3486  1.4226
14516TIP3    H264964   0.933   3.176  12.260  1.0708  0.4650 -0.8006
14517TIP3   OH264965   3.991   1.695   4.652 -0.3159  0.0981 -0.2596
14517TIP3    H164966   4.050   1.625   4.682 -2.4062 -1.0779  1.4076
14517TIP3    H264967   4.030   1.776   4.684  1.5279 -0.3962 -1.1616
14518TIP3   OH264968   4.130   0.738  13.780  0.1613  0.3241  0.5227
14518TIP3    H164969   4.139   0.643  13.781 -1.0656  0.1985  0.7036
14518TIP3    H264970   4.105   0.761  13.870  2.0333  1.0095  0.9159
14519TIP3   OH264971   2.797   5.308   1.456 -0.1444 -0.7664 -0.1725
14519TIP3    H164972   2.785   5.391   1.504 -0.3253 -0.0185 -1.4701
14519TIP3    H264973   2.744   5.245   1.505  0.8057 -0.3847  1.4434
14520TIP3   OH264974   3.019   2.092   4.060  0.2474 -0.2502  0.3481
14520TIP3    H164975   2.934   2.079   4.017 -0.3355  0.2306  1.2965
14520TIP3    H264976   3.031   2.012   4.111  0.1108 -0.1108  0.6043
14521TIP3   OH264977   1.718   1.132  16.889 -0.2172  0.3135 -0.2340
14521TIP3    H164978   1.723   1.195  16.817 -0.2879 -0.7983 -1.2307
14521TIP3    H264979   1.693   1.185  16.965  1.5912  1.8248 -0.6083
14522TIP3   OH264980   6.153   3.598   2.486  0.2881 -0.5715 -0.0049
14522TIP3    H164981   6.158   3.512   2.528 -1.0313 -1.4780 -1.5969
14522TIP3    H264982   6.096   3.649   2.543  0.4177 -0.9989  0.5240
14523TIP3   OH264983   1.984   2.068   2.170 -0.3598  0.0849  0.1010
14523TIP3    H164984   2.030   2.134   2.119  0.5580  0.0497  0.8481
14523TIP3    H264985   2.039   1.990   2.164 -0.7774 -0.2258  0.2777
14524TIP3   OH264986   5.139   5.252   4.322 -0.1536 -0.2746  0.2238
14524TIP3    H164987   5.068   5.260   4.258  2.1610  1.5649 -2.3774
14524TIP3    H264988   5.149   5.341   4.357 -0.3410 -0.9282  2.0239
14525TIP3   OH264989   4.645   1.652   2.843  0.4751  0.0243 -0.4564
14525TIP3    H164990   4.636   1.734   2.891  1.6917  0.8504 -1.5537
14525TIP3    H264991   4.707   1.600   2.895 -0.4948 -0.3230  0.3723
14526TIP3   OH264992   0.608   4.305  12.820  0.1573  0.1017  0.1333
14526TIP3    H164993   0.666   4.252  12.875 -0.1275  1.0365  1.3752
14526TIP3    H264994   0.643   4.296  12.731  0.7133 -1.3304  0.4762
14527TIP3   OH264995   3.306   4.408   1.677  0.1135  0.0561 -0.1157
14527TIP3    H164996   3.362   4.373   1.608 -0.8071 -0.3517 -0.6649
14527TIP3    H264997   3.227   4.437   1.633 -0.2823  0.2724  0.7027
14528TIP3   OH264998   0.950   0.933  12.450  0.0600  0.0458 -0.5069
14528TIP3    H164999   0.928   0.995  12.519  0.2076  0.5565 -0.9122
14528TIP3    H265000   1.043   0.915  12.462  0.1770  0.4413 -0.8134
14529TIP3   OH265001   1.166   3.900   5.769  0.0666  0.1593 -0.1871
14529TIP3    H165002   1.116   3.823   5.797 -1.3172  1.6630  1.7472
14529TIP3    H265003   1.229   3.914   5.841 -0.2412  1.2851 -0.1223
14530TIP3   OH265004   5.095   5.306   3.395 -0.7139  0.6482 -0.4106
14530TIP3    H165005   5.040   5.372   3.353 -1.3521 -0.3351 -1.1661
14530TIP3    H265006   5.162   5.356   3.441 -2.5787  1.9399  1.0938
14531TIP3   OH265007   1.846   0.460  13.311 -0.7677  0.2593  0.7248
14531TIP3    H165008   1.794   0.433  13.236  0.6719  0.8591 -0.5342
14531TIP3    H265009   1.839   0.387  13.373 -2.0222 -0.2151  0.0479
14532TIP3   OH265010   1.855   6.127   3.022 -0.0421  0.0666 -0.1365
14532TIP3    H165011   1.885   6.179   3.097  1.2989  0.7061 -1.0694
14532TIP3    H265012   1.846   6.038   3.057 -0.9790  0.6287  1.1426
14533TIP3   OH265013   6.405   4.717   4.761  1.0855 -0.0907 -0.0846
14533TIP3    H165014   6.465   4.789   4.742  1.5894 -0.3150  0.6312
14533TIP3    H265015   6.390   4.676   4.675  0.9847  0.7084 -0.4563
14534TIP3   OH265016   5.925   1.472   4.107  0.2432  0.1114  0.3532
14534TIP3    H165017   5.981   1.413   4.158  0.5346  0.1619  0.0895
14534TIP3    H265018   5.836   1.445   4.130  0.3655 -1.1582 -0.5927
14535TIP3   OH265019   4.005   1.493   2.324  0.1580  0.1343 -0.3471
14535TIP3    H165020   3.966   1.407   2.313  0.7909 -0.4316  1.5287
14535TIP3    H265021   3.933   1.554   2.309 -0.8131 -0.7900  0.4091
14536TIP3   OH265022   3.275   3.490   2.639  0.1946 -0.3906  0.2628
14536TIP3    H165023   3.233   3.474   2.555 -1.3233 -1.4842  1.1693
14536TIP3    H265024   3.298   3.583   2.637  1.0501 -0.5918 -1.6877
14537TIP3   OH265025   5.325   1.113   2.821 -0.5210  0.6182 -0.2748
14537TIP3    H165026   5.273   1.035   2.801 -0.4047  0.6521 -0.7333
14537TIP3    H265027   5.375   1.128   2.741 -1.0303  1.5473 -0.4293
14538TIP3   OH265028   5.833   0.105   0.572  0.3626 -0.2737  0.1529
14538TIP3    H165029   5.818   0.012   0.553  0.3196 -0.3029  0.3265
14538TIP3    H265030   5.881   0.105   0.655 -2.1555 -0.0595  1.7116
14539TIP3   OH265031   4.858   4.706  14.496  0.4515  0.6731  0.1265
14539TIP3    H165032   4.942   4.693  14.453  0.9295 -0.5470  1.3432
14539TIP3    H265033   4.808   4.626  14.475  0.7770 -0.0475  1.9353
14540TIP3   OH265034   6.646   0.281  16.102 -0.4740  0.2404 -0.4614
14540TIP3    H165035   6.719   0.233  16.064  0.1524  0.1754  0.7840
14540TIP3    H265036   6.671   0.295  16.194 -1.4929  1.2594 -0.3175
14541TIP3   OH265037   4.779   6.747   2.001 -0.1044  0.2567  0.0502
14541TIP3    H165038   4.848   6.807   2.031 -0.9286  1.6124 -0.6308
14541TIP3    H265039   4.826   6.670   1.970  1.3070  1.8412 -2.0175
14542TIP3   OH265040   6.595   4.983  12.502  0.2438  0.4785  0.0420
14542TIP3    H165041   6.523   5.020  12.451 -0.4851 -1.4487 -0.4143
14542TIP3    H265042   6.622   4.906  12.453 -0.1927 -1.2251  2.3139
14543TIP3   OH265043   3.477   5.477  17.254  0.0539  0.0374  0.2482
14543TIP3    H165044   3.420   5.487  17.331  0.4303 -1.1166  0.6958
14543TIP3    H265045   3.535   5.552  17.257 -0.6365  0.5757  0.4786
14544TIP3   OH265046   6.723   6.242  17.348 -0.1885 -0.0364 -0.4870
14544TIP3    H165047   6.815   6.251  17.372 -0.3236 -2.0440  0.9093
14544TIP3    H265048   6.677   6.228  17.430 -2.0603  2.5631 -0.9345
14545TIP3   OH265049   0.565   1.291  11.527  0.3973  0.1145  0.0193
14545TIP3    H165050   0.557   1.366  11.586  0.4114 -0.5188  0.8647
14545TIP3    H265051   0.584   1.328  11.442  1.9079  1.0111  0.7095
14546TIP3   OH265052   6.319   4.804  15.186  0.4567 -0.0146  0.1709
14546TIP3    H165053   6.313   4.712  15.212 -1.6516 -0.3324 -1.1503
14546TIP3    H265054   6.321   4.852  15.269  1.7859 -1.2266  0.8866
14547TIP3   OH265055   0.730   6.526   1.360 -0.8139  0.4012  0.2885
14547TIP3    H165056   0.823   6.539   1.340 -0.3384 -0.3275  1.8965
14547TIP3    H265057   0.699   6.468   1.291  0.5613 -1.3436  1.0473
14548TIP3   OH265058   2.248   0.922   3.184  0.2208  0.0020 -0.2819
14548TIP3    H165059   2.212   0.873   3.258 -0.8447 -0.1104 -0.8595
14548TIP3    H265060   2.186   0.908   3.113  1.6302 -0.5491 -1.4581
14549TIP3   OH265061   4.033   6.106   0.621  0.3510 -0.2334  0.5264
14549TIP3    H165062   4.040   6.096   0.526 -0.2343 -1.5219  0.6060
14549TIP3    H265063   3.986   6.188   0.633  0.3589 -0.1009 -0.2953
14550TIP3   OH265064   3.490   0.547   1.607  0.0292  0.1989 -0.1513
14550TIP3    H165065   3.469   0.457   1.631 -1.1134 -0.1246 -2.2113
14550TIP3    H265066   3.435   0.566   1.531  1.4134  2.0972 -0.7551
14551TIP3   OH265067   4.367   5.900  16.011 -0.7978  0.0984 -0.7598
14551TIP3    H165068   4.278   5.870  16.029 -0.4434 -0.2108  0.6014
14551TIP3    H265069   4.356   5.978  15.958 -1.8704 -0.0703 -0.8010
14552TIP3   OH265070   0.476   4.708  11.622 -0.5046  0.0249 -0.1247
14552TIP3    H165071   0.562   4.683  11.589  0.2410  0.5861  1.2962
14552TIP3    H265072   0.434   4.626  11.645 -1.1570 -0.4166 -2.5709
14553TIP3   OH265073   0.310   4.854   1.424  0.4673 -0.1339 -0.3365
14553TIP3    H165074   0.221   4.825   1.404 -0.0286  0.4641  0.9176
14553TIP3    H265075   0.308   4.949   1.411 -0.1527  0.4617  3.2079
14554TIP3   OH265076   1.849   2.490  13.005 -0.2792  0.2689 -0.1475
14554TIP3    H165077   1.938   2.460  12.984 -1.2325 -2.5417 -0.6520
14554TIP3    H265078   1.861   2.560  13.069  2.2761 -0.7774  0.6413
14555TIP3   OH265079   1.059   2.548   1.917  0.5282 -0.3872  0.5574
14555TIP3    H165080   1.073   2.555   2.012  0.5227  0.0791  0.5254
14555TIP3    H265081   1.018   2.463   1.905 -0.5959  0.0637  1.1055
14556TIP3   OH265082   2.139   5.329  12.323 -0.2050 -0.1020  0.5394
14556TIP3    H165083   2.231   5.322  12.346 -0.0737  1.9646  0.8857
14556TIP3    H265084   2.129   5.277  12.244  1.6722  1.0776 -0.5401
14557TIP3   OH265085   4.297   5.396  13.035 -0.1165 -0.4948  0.1444
14557TIP3    H165086   4.223   5.419  13.092 -0.1664  1.1510 -0.5390
14557TIP3    H265087   4.275   5.309  13.002 -2.6364  0.6117 -1.3712
14558TIP3   OH265088   0.720   0.890   6.724  0.4195  0.4918 -0.0426
14558TIP3    H165089   0.792   0.882   6.786  2.7217  0.9187 -2.4641
14558TIP3    H265090   0.681   0.802   6.722  1.4114  0.0099  0.7267
14559TIP3   OH265091   5.792   0.914  11.972  0.3239 -0.3347 -0.0173
14559TIP3    H165092   5.863   0.922  11.908 -0.2768  3.9725 -0.4757
14559TIP3    H265093   5.713   0.932  11.921 -0.6801 -1.0961  1.2074
14560TIP3   OH265094   4.628   6.209  11.825  0.1545  0.0527 -0.0707
14560TIP3    H165095   4.652   6.291  11.868  0.1697 -0.8229  1.6580
14560TIP3    H265096   4.628   6.144  11.895 -0.3507 -1.3404 -1.3135
14561TIP3   OH265097   1.966   1.974  16.487 -0.2570 -0.4868 -0.9365
14561TIP3    H165098   1.990   1.919  16.561  0.3795  0.6894 -0.2506
14561TIP3    H265099   1.894   2.028  16.519 -0.1002 -0.0989 -1.2291
14562TIP3   OH265100   4.796   0.601   6.932 -0.1241  0.0879 -0.0276
14562TIP3    H165101   4.874   0.654   6.951  0.2997 -0.9457  1.2790
14562TIP3    H265102   4.832   0.516   6.906 -0.8144  0.0639 -0.9451
14563TIP3   OH265103   6.688   2.799  13.063  0.2063  0.2042  0.2241
14563TIP3    H165104   6.626   2.732  13.091 -0.4310 -0.2632 -2.0732
14563TIP3    H265105   6.685   2.865  13.131 -1.1199 -0.8706  1.2604
14564TIP3   OH265106   0.928   2.472  11.075 -0.4559 -0.0224 -0.3833
14564TIP3    H165107   0.925   2.473  10.979 -2.6576  0.4034 -0.3602
14564TIP3    H265108   1.018   2.449  11.096 -0.0697 -0.6968 -2.5526
14565TIP3   OH265109   4.429   5.306  15.007  0.3632  0.6307  0.3477
14565TIP3    H165110   4.407   5.399  15.011 -0.5628  0.3933  3.3253
14565TIP3    H265111   4.345   5.261  15.018  0.8270 -0.5692 -0.8376
14566TIP3   OH265112   6.672   6.407  14.394  0.1255 -0.1062  0.1669
14566TIP3    H165113   6.756   6.451  14.378  0.2783  0.4128  2.1485
14566TIP3    H265114   6.668   6.338  14.328  2.2453 -0.2979  0.1783
14567TIP3   OH265115   0.085   6.650   5.468  0.1913  0.3370  0.7028
14567TIP3    H165116   0.123   6.566   5.492  0.6847 -0.0843 -1.3851
14567TIP3    H265117   0.127   6.713   5.527 -0.5555 -0.8829  2.6371
14568TIP3   OH265118   1.953   5.631  13.260  0.7036  0.1657  0.5727
14568TIP3    H165119   1.912   5.658  13.342  1.7975  1.7008  0.6644
14568TIP3    H265120   1.970   5.538  13.271 -2.0570 -0.3886  0.7966
14569TIP3   OH265121   4.829   0.978  15.926 -0.4849  0.2417  0.1880
14569TIP3    H165122   4.781   1.060  15.942 -0.5772  0.1595  0.3356
14569TIP3    H265123   4.792   0.944  15.844  0.4069  0.9696 -0.5464
14570TIP3   OH265124   0.387   6.340   3.323 -0.6885  0.0768  0.2032
14570TIP3    H165125   0.447   6.315   3.394 -0.7351 -0.8159 -0.0588
14570TIP3    H265126   0.410   6.281   3.251  0.0839  1.6616 -0.9229
14571TIP3   OH265127   3.250   3.234   3.791 -0.1632 -0.4315  0.6111
14571TIP3    H165128   3.319   3.250   3.728 -0.0895 -1.7569  0.3166
14571TIP3    H265129   3.186   3.304   3.776 -0.6846 -1.3172 -1.7045
14572TIP3   OH265130   2.657   5.981  13.446  0.2593 -0.0545 -0.3724
14572TIP3    H165131   2.600   5.954  13.374 -0.1968  0.5490 -0.2399
14572TIP3    H265132   2.617   6.061  13.480  0.9056  0.0955  0.0490
14573TIP3   OH265133   6.221   5.858   2.091 -0.1108  0.5531 -0.0578
14573TIP3    H165134   6.287   5.904   2.143 -0.0283 -0.2540  0.5646
14573TIP3    H265135   6.163   5.927   2.059  0.5257  1.1788  0.1162
14574TIP3   OH265136   3.021   6.708  14.559 -0.0861  0.0091 -0.3465
14574TIP3    H165137   3.072   6.776  14.602  0.7119  0.4756 -1.9360
14574TIP3    H265138   3.019   6.636  14.621  0.5493  0.8374  0.6702
14575TIP3   OH265139   1.778   3.054   0.914 -0.3085 -0.5817 -0.0566
14575TIP3    H165140   1.721   3.112   0.863  0.5905 -0.6219 -1.1297
14575TIP3    H265141   1.738   2.968   0.905  0.4086 -0.7873 -1.6141
14576TIP3   OH265142   1.441   3.902   2.131  1.0002  0.1785  0.5654
14576TIP3    H165143   1.359   3.902   2.083  1.2255  0.1203  0.1723
14576TIP3    H265144   1.504   3.863   2.070  0.7541 -2.4789  1.8464
14577TIP3   OH265145   6.175   2.909  14.022 -0.4714  0.3841  0.3972
14577TIP3    H165146   6.129   2.982  13.980  0.4772  1.6734  1.5073
14577TIP3    H265147   6.165   2.924  14.115  0.7368 -0.2404  0.6536
14578TIP3   OH265148   0.079   4.674  16.831  0.6486  0.7269  0.0007
14578TIP3    H165149   0.171   4.650  16.836  0.6472  0.9136  1.0585
14578TIP3    H265150   0.052   4.686  16.922 -0.4316  0.6208 -0.2920
14579TIP3   OH265151   3.993   1.006  14.521  0.4869  0.4609  0.4705
14579TIP3    H165152   4.076   0.961  14.535  1.6358  2.7035  1.3523
14579TIP3    H265153   3.945   0.995  14.603  0.1253 -0.3687  0.1566
14580TIP3   OH265154   4.963   1.082  13.137 -0.2894  0.4082  0.2961
14580TIP3    H165155   5.006   1.024  13.073  0.5608  1.0313  0.2895
14580TIP3    H265156   4.888   1.031  13.169  0.5071 -0.7354  0.3787
14581TIP3   OH265157   1.761   4.016   4.825 -0.1765 -0.4166  0.8137
14581TIP3    H165158   1.693   4.005   4.759  0.4016  2.1402 -0.3566
14581TIP3    H265159   1.722   4.075   4.890  1.1250  1.9061 -0.3867
14582TIP3   OH265160   5.698   1.192  15.690  0.4310 -0.1230 -0.2674
14582TIP3    H165161   5.706   1.207  15.784  0.8305  0.7303 -0.4277
14582TIP3    H265162   5.645   1.265  15.658  2.3553  0.9827 -1.0681
14583TIP3   OH265163   3.129   1.877   4.198 -0.6379  0.1999  0.4687
14583TIP3    H165164   3.139   1.788   4.163 -1.4634  0.1094  0.4266
14583TIP3    H265165   3.201   1.887   4.261 -0.3205 -0.3612  0.2011
14584TIP3   OH265166   3.160   2.676  13.933  0.8850  0.7609  0.7081
14584TIP3    H165167   3.146   2.722  14.016  0.7748  1.0033  0.5563
14584TIP3    H265168   3.103   2.599  13.939 -0.3729  1.6186  0.1896
14585TIP3   OH265169   0.540   1.379  11.799  0.1972  0.1020 -0.2549
14585TIP3    H165170   0.452   1.416  11.797 -0.1304 -0.6675 -2.3761
14585TIP3    H265171   0.598   1.455  11.799 -0.4756  0.6624 -1.9538
14586TIP3   OH265172   0.493   4.670   2.331  0.0428 -0.2374 -0.2549
14586TIP3    H165173   0.487   4.724   2.252 -0.1196  0.2792  0.1016
14586TIP3    H265174   0.408   4.627   2.338 -0.0271 -0.0980 -0.2357
14587TIP3   OH265175   6.507   0.803   4.448  0.1912 -0.2885 -0.4507
14587TIP3    H165176   6.431   0.859   4.462 -0.1988 -1.3855  2.7481
14587TIP3    H265177   6.471   0.718   4.425  0.3977 -0.7754  0.9331
14588TIP3   OH265178   0.745   5.793   2.779 -0.0222 -0.2137 -0.6163
14588TIP3    H165179   0.687   5.865   2.752  0.7573  0.6378 -0.0959
14588TIP3    H265180   0.691   5.738   2.835 -0.1184  1.0700  0.6257
14589TIP3   OH265181   0.403   5.307   4.507  0.4334 -0.6021  0.0001
14589TIP3    H165182   0.407   5.259   4.590 -1.4569 -1.6846 -0.4615
14589TIP3    H265183   0.490   5.300   4.470  1.6207  0.7282  2.2973
14590TIP3   OH265184   0.217   6.260   0.141 -0.1565 -0.5087  0.1487
14590TIP3    H165185   0.284   6.323   0.114  1.5731 -2.1432  0.4354
14590TIP3    H265186   0.219   6.261   0.236 -2.2080  1.0513  0.2566
14591TIP3   OH265187   4.110   6.568  13.422 -0.1771 -0.4791  0.1614
14591TIP3    H165188   4.068   6.595  13.340 -1.7433 -0.7817  0.8311
14591TIP3    H265189   4.152   6.648  13.454  0.9415 -0.4820 -1.1821
14592TIP3   OH265190   5.546   0.238  15.841 -0.3319 -0.1061 -0.1017
14592TIP3    H165191   5.502   0.321  15.859  0.0789  0.2597 -0.7363
14592TIP3    H265192   5.585   0.214  15.925 -0.6674  0.2128  0.1517
14593TIP3   OH265193   0.497   2.945  12.753  0.9458  0.3903  0.0454
14593TIP3    H165194   0.411   2.930  12.713  1.8475  2.3306 -2.9851
14593TIP3    H265195   0.544   2.862  12.741  0.6367  0.4200 -1.5852
14594TIP3   OH265196   2.186   3.754  14.551 -0.0051 -0.1128 -0.0358
14594TIP3    H165197   2.145   3.681  14.503  1.8118 -0.9364 -0.4213
14594TIP3    H265198   2.198   3.720  14.640  1.4125 -0.5484 -0.3737
14595TIP3   OH265199   3.882   6.327  16.765 -0.4420  0.4127 -0.1714
14595TIP3    H165200   3.851   6.283  16.844 -0.2900 -2.6915 -1.7066
14595TIP3    H265201   3.802   6.361  16.724 -1.0335 -1.3454 -0.5512
14596TIP3   OH265202   2.748   4.239  11.739  0.1559 -0.4038  0.3558
14596TIP3    H165203   2.714   4.209  11.655 -1.7028 -0.5426  1.1167
14596TIP3    H265204   2.742   4.334  11.735 -4.4310 -0.4006  1.9471
14597TIP3   OH265205   4.875   0.738  14.719 -0.5222  0.2412  0.0752
14597TIP3    H165206   4.840   0.789  14.645 -0.4557  0.6210  0.3017
14597TIP3    H265207   4.842   0.650  14.705 -4.8709  1.2410  2.2910
14598TIP3   OH265208   1.581   5.871  13.572  0.0399  0.2100  0.7677
14598TIP3    H165209   1.653   5.884  13.633  0.4569  2.3711 -0.0897
14598TIP3    H265210   1.622   5.868  13.485 -0.7780  0.0677  0.3672
14599TIP3   OH265211   4.056   2.247   3.829  0.4692  0.1733 -0.4189
14599TIP3    H165212   4.067   2.340   3.809  1.7721  0.1201 -0.0719
14599TIP3    H265213   4.146   2.215   3.839  0.0480 -1.2006 -0.8707
14600TIP3   OH265214   2.242   0.902   5.959  0.0733  0.3543  0.3412
14600TIP3    H165215   2.279   0.820   5.927 -0.0931  0.6225 -0.5781
14600TIP3    H265216   2.220   0.885   6.050  1.4722 -0.1394  0.6131
14601TIP3   OH265217   5.996   4.980  12.397  0.6506  0.2837  0.5699
14601TIP3    H165218   6.030   5.054  12.448  1.7407 -0.0838  0.3931
14601TIP3    H265219   5.904   5.003  12.381  0.4251  0.6733  2.2122
14602TIP3   OH265220   1.977   6.633  17.257 -0.2343  0.2978  0.3704
14602TIP3    H165221   1.980   6.728  17.268 -0.8959  0.2109  1.4867
14602TIP3    H265222   1.987   6.619  17.163 -0.6936  1.5078  0.1189
14603TIP3   OH265223   2.550   6.381   4.298 -0.3819 -0.2695 -0.5180
14603TIP3    H165224   2.605   6.459   4.293  1.2667 -1.2312  1.1175
14603TIP3    H265225   2.484   6.402   4.364  0.2144 -0.3113  0.1052
14604TIP3   OH265226   5.534   6.452   4.376  0.5927  0.2548  0.1292
14604TIP3    H165227   5.498   6.533   4.411 -0.3452 -0.4448  0.8303
14604TIP3    H265228   5.611   6.480   4.326 -1.0860  1.8450 -1.7450
14605TIP3   OH265229   0.769   2.044   4.381  1.0145  0.2935  0.0118
14605TIP3    H165230   0.779   1.961   4.334 -1.1423  0.5527 -1.0408
14605TIP3    H265231   0.780   2.111   4.313  0.0174  0.7594  0.2938
14606TIP3   OH265232   4.208   4.265  11.071  0.3904  0.1839  0.3141
14606TIP3    H165233   4.148   4.330  11.036  2.8181  2.2168 -0.3487
14606TIP3    H265234   4.152   4.190  11.093 -2.2259  1.6469 -0.9056
14607TIP3   OH265235   5.345   2.774  12.727  0.1437 -0.4663 -0.6566
14607TIP3    H165236   5.401   2.714  12.778  0.0799 -1.6629 -1.9183
14607TIP3    H265237   5.256   2.753  12.754  0.1516 -0.6079 -0.7365
14608TIP3   OH265238   2.985   0.925   5.574 -0.2211  0.1465 -0.1244
14608TIP3    H165239   3.061   0.867   5.578 -0.8238 -0.6431  0.1099
14608TIP3    H265240   2.942   0.902   5.492 -1.4799 -1.0654  0.8333
14609TIP3   OH265241   0.775   0.190  13.608  0.0599 -0.0812 -0.3800
14609TIP3    H165242   0.842   0.201  13.540  0.8078 -2.1258 -0.0482
14609TIP3    H265243   0.717   0.265  13.598  1.9946  1.3805 -1.1614
14610TIP3   OH265244   2.963   3.430   6.465 -0.1663  0.4753  0.6572
14610TIP3    H165245   2.906   3.505   6.451  0.7757  1.7371  3.0455
14610TIP3    H265246   3.049   3.468   6.485  1.1692 -1.3369 -1.2175
14611TIP3   OH265247   2.128   4.486   0.711  0.2302  0.4969  0.1083
14611TIP3    H165248   2.187   4.436   0.654  0.1392 -0.0809  0.5025
14611TIP3    H265249   2.092   4.554   0.655  0.3578  0.1182 -0.4464
14612TIP3   OH265250   0.501   0.558   3.166  0.0195  0.3644  0.2549
14612TIP3    H165251   0.510   0.634   3.224  1.5582 -0.2442  0.8814
14612TIP3    H265252   0.424   0.512   3.198  0.3818  0.4671  1.3256
14613TIP3   OH265253   3.979   1.217   5.154 -0.5468  0.3502  0.6481
14613TIP3    H165254   3.900   1.186   5.200 -1.6050  0.8322 -0.7633
14613TIP3    H265255   4.047   1.155   5.179 -1.4803 -0.3644  1.5389
14614TIP3   OH265256   1.679   0.327  13.099  0.2107 -0.7091 -0.5293
14614TIP3    H165257   1.613   0.389  13.069 -0.4596 -1.4062 -0.5416
14614TIP3    H265258   1.700   0.275  13.022 -0.0675 -1.2223 -0.2704
14615TIP3   OH265259   3.663   2.340   1.634  0.2120 -0.1486  0.0378
14615TIP3    H165260   3.603   2.267   1.650 -1.6345  1.3096  0.1208
14615TIP3    H265261   3.713   2.313   1.557 -0.1338 -1.6702  0.3146
14616TIP3   OH265262   3.960   2.250   0.259 -0.1271 -0.0240 -0.8274
14616TIP3    H165263   3.980   2.320   0.196 -1.5508  2.9452  1.7146
14616TIP3    H265264   4.024   2.263   0.329 -1.0651 -0.5806  0.1627
14617TIP3   OH265265   1.530   1.506  15.705  0.2251 -0.3994  0.5150
14617TIP3    H165266   1.508   1.547  15.621 -2.6252 -2.0957  0.3350
14617TIP3    H265267   1.527   1.578  15.768  0.3229  0.5322 -0.5112
14618TIP3   OH265268   4.821   3.403   0.771 -0.1072  0.4308 -0.4533
14618TIP3    H165269   4.786   3.364   0.692 -1.0629 -0.3860  0.3425
14618TIP3    H265270   4.901   3.352   0.789 -1.3093 -1.2158  0.5417
14619TIP3   OH265271   1.093   1.606   0.616  0.4484 -0.6256  0.1337
14619TIP3    H165272   1.138   1.597   0.532  2.5657  1.4195  0.9493
14619TIP3    H265273   1.149   1.559   0.678  0.8693  0.9184  0.9660
14620TIP3   OH265274   0.763   5.273  17.158 -0.2367 -0.2791 -0.1950
14620TIP3    H165275   0.680   5.244  17.121 -1.0298  2.7040 -1.0588
14620TIP3    H265276   0.823   5.275  17.084 -0.5297  1.2175 -0.4368
14621TIP3   OH265277   6.568   0.087  13.693 -0.4347 -0.5625 -0.2874
14621TIP3    H165278   6.641   0.051  13.743  0.0007  2.3063  1.4055
14621TIP3    H265279   6.490   0.063  13.743 -0.2920 -0.4756 -0.0181
14622TIP3   OH265280   0.513   3.116  15.088 -0.5593  0.4150  0.1033
14622TIP3    H165281   0.450   3.052  15.122 -0.5890  0.1168 -0.4874
14622TIP3    H265282   0.597   3.086  15.121 -0.8358  1.5273  1.9476
14623TIP3   OH265283   2.148   4.066  16.657 -0.2581 -0.2265  0.5631
14623TIP3    H165284   2.212   3.997  16.636 -0.9151 -0.7228  0.1683
14623TIP3    H265285   2.172   4.139  16.601 -0.4498 -0.6535 -0.0808
14624TIP3   OH265286   4.075   3.363   3.096 -0.1247 -0.3196  0.2851
14624TIP3    H165287   4.069   3.418   3.018 -0.3513 -0.5875  0.1142
14624TIP3    H265288   4.168   3.343   3.105 -0.2915 -1.8286 -0.9841
14625TIP3   OH265289   1.395   2.276   5.808 -0.4675  0.3306  0.1930
14625TIP3    H165290   1.405   2.359   5.854 -1.6508  0.8780 -0.4865
14625TIP3    H265291   1.431   2.292   5.721 -1.8367  0.5616 -0.3654
14626TIP3   OH265292   4.399   4.572  16.551 -0.6979 -0.3063  0.7395
14626TIP3    H165293   4.399   4.481  16.582 -0.4232 -1.0261 -1.1847
14626TIP3    H265294   4.358   4.567  16.465  0.7989  1.1203 -0.1029
14627TIP3   OH265295   2.238   1.818   2.568 -0.0068  0.2201  0.2436
14627TIP3    H165296   2.205   1.899   2.528  2.7536  1.0759 -0.5301
14627TIP3    H265297   2.247   1.758   2.494  1.4610  0.4956  0.1818
14628TIP3   OH265298   2.910   3.822   2.885 -0.1827 -0.0686  0.1574
14628TIP3    H165299   2.935   3.734   2.857  0.9177  0.5438 -0.9490
14628TIP3    H265300   2.994   3.869   2.891 -0.7831  1.0311  0.1876
14629TIP3   OH265301   5.574   1.476   5.156 -0.1344  0.0607 -0.3618
14629TIP3    H165302   5.487   1.453   5.125 -1.3431  0.2435  2.5116
14629TIP3    H265303   5.565   1.566   5.189  1.3668  0.3691 -0.6819
14630TIP3   OH265304   6.653   3.366  13.299 -0.5372 -0.0763 -0.3137
14630TIP3    H165305   6.684   3.448  13.338 -0.2509  0.1374 -0.9834
14630TIP3    H265306   6.709   3.299  13.337 -0.2710  0.1253 -0.3457
14631TIP3   OH265307   6.002   2.928   2.653  0.4225  0.9108  0.2113
14631TIP3    H165308   5.980   2.865   2.584 -0.1518  0.0887  1.1109
14631TIP3    H265309   5.918   2.962   2.683  0.5945  0.6447  1.0436
14632TIP3   OH265310   0.327   6.462   5.932  0.4547 -0.0618 -0.1324
14632TIP3    H165311   0.398   6.405   5.902 -0.0203 -0.3857 -0.6413
14632TIP3    H265312   0.274   6.407   5.989  1.3403  0.5408  1.3628
14633TIP3   OH265313   2.565   4.011  14.995  0.4147 -0.0880  0.2575
14633TIP3    H165314   2.484   3.969  14.969  0.8205  0.3982 -1.9839
14633TIP3    H265315   2.628   3.989  14.926  1.5687  1.3490  0.7723
14634TIP3   OH265316   3.039   2.463   6.110  0.4376 -0.1814 -0.4371
14634TIP3    H165317   3.068   2.395   6.049 -0.4811  0.3391 -1.4899
14634TIP3    H265318   2.945   2.445   6.123  0.1734  0.8937 -0.7693
14635TIP3   OH265319   4.107   2.012  16.812  0.4784 -0.0614 -0.1788
14635TIP3    H165320   4.064   1.950  16.754 -1.3689  0.8990  0.0822
14635TIP3    H265321   4.157   1.958  16.873 -0.4391 -1.2509 -0.4491
14636TIP3   OH265322   4.908   0.073   6.150  0.0691 -0.5328  0.7677
14636TIP3    H165323   4.931  -0.016   6.121 -2.1634 -0.9205  0.0197
14636TIP3    H265324   4.851   0.060   6.226 -0.8291  0.2152  0.2458
14637TIP3   OH265325   5.368   0.173   5.247  0.1028  0.1722  0.0873
14637TIP3    H165326   5.357   0.236   5.175  0.9866 -0.3145 -0.4940
14637TIP3    H265327   5.345   0.223   5.325 -2.5716  0.2491 -0.6421
14638TIP3   OH265328   5.695   1.339   1.234  0.9883 -0.0014  0.1483
14638TIP3    H165329   5.751   1.265   1.257  1.1314 -0.1745 -0.7273
14638TIP3    H265330   5.619   1.330   1.291  1.1425 -0.6466  0.2629
14639TIP3   OH265331   4.500   0.949  12.438  0.3733 -0.0855 -0.5591
14639TIP3    H165332   4.559   0.874  12.441 -0.1740 -0.5427 -1.0624
14639TIP3    H265333   4.433   0.930  12.504  0.4202  0.1182 -0.4512
14640TIP3   OH265334   4.769   4.512  11.838  0.2577  0.2441  0.1973
14640TIP3    H165335   4.770   4.420  11.813 -0.3261  0.4898 -0.8026
14640TIP3    H265336   4.743   4.512  11.930  0.0122 -0.5765  0.1349
14641TIP3   OH265337   5.113   0.068   2.894  0.3063 -0.2966 -0.5331
14641TIP3    H165338   5.055   0.029   2.828  0.0165 -0.2662 -0.2954
14641TIP3    H265339   5.064   0.141   2.930  0.4068 -0.4015 -0.1784
14642TIP3   OH265340   4.046   3.085   5.253 -0.2498 -0.2638  0.1461
14642TIP3    H165341   4.065   3.029   5.328  2.2583  0.0831 -0.1465
14642TIP3    H265342   3.987   3.152   5.287 -0.5667 -1.1106  1.3352
14643TIP3   OH265343   6.691   4.109  17.182  0.5560  0.2508 -0.0946
14643TIP3    H165344   6.729   4.077  17.264  1.4527  1.2426 -0.1061
14643TIP3    H265345   6.750   4.179  17.154  1.2206 -1.1374 -2.4461
14644TIP3   OH265346   3.489   5.234   3.917 -0.2451 -0.3266  0.0426
14644TIP3    H165347   3.440   5.311   3.946 -0.5419  0.2093 -1.8061
14644TIP3    H265348   3.558   5.224   3.983  0.1188  1.8480  0.0640
14645TIP3   OH265349   3.795   6.484  16.417 -0.3690  0.1164  0.2436
14645TIP3    H165350   3.727   6.538  16.376  0.3692  0.4253 -0.6023
14645TIP3    H265351   3.877   6.524  16.389  0.1927 -1.3397 -0.2391
14646TIP3   OH265352   3.581   5.704  16.710 -0.2994  0.2605  0.3485
14646TIP3    H165353   3.556   5.673  16.798  1.0993  0.5288  0.8640
14646TIP3    H265354   3.638   5.636  16.676 -1.1090 -0.0006 -0.5129
14647TIP3   OH265355   0.316   1.161   6.903  0.2127  0.8255  1.0114
14647TIP3    H165356   0.242   1.189   6.849 -0.1683 -0.6033  0.7516
14647TIP3    H265357   0.376   1.120   6.841  0.0776 -0.2387  1.5649
14648TIP3   OH265358   1.089   5.534   4.386 -0.1358 -0.1057  0.1902
14648TIP3    H165359   1.082   5.458   4.328  0.2639 -0.0617  0.0840
14648TIP3    H265360   1.023   5.595   4.353  0.4977  0.1662 -0.5993
14649TIP3   OH265361   4.253   1.978   0.593  0.5646  0.3020  0.2144
14649TIP3    H165362   4.205   1.983   0.676 -0.2634  0.4892 -0.2635
14649TIP3    H265363   4.247   1.886   0.568 -0.3013  0.4761 -0.2664
14650TIP3   OH265364   4.849   1.652  14.587  0.5198 -0.2210 -0.3898
14650TIP3    H165365   4.833   1.624  14.497  0.9570 -0.0924 -0.5116
14650TIP3    H265366   4.929   1.606  14.613  0.4450 -0.1894 -0.0974
14651TIP3   OH265367   6.468   0.879  11.953  0.2886 -0.2635 -0.4859
14651TIP3    H165368   6.400   0.944  11.935  1.4156  0.5311 -2.1285
14651TIP3    H265369   6.466   0.820  11.878  1.2746 -0.3267 -0.4829
14652TIP3   OH265370   4.155   6.552  15.374  0.3369  0.1341  0.2556
14652TIP3    H165371   4.152   6.506  15.290 -0.4284 -1.6305  1.2204
14652TIP3    H265372   4.235   6.521  15.416 -1.0889 -1.8200  1.6872
14653TIP3   OH265373   0.388   2.494  17.300 -0.5861 -1.1021 -0.0804
14653TIP3    H165374   0.439   2.495  17.382 -2.9844 -0.7752  1.4953
14653TIP3    H265375   0.301   2.466  17.326 -2.1350  1.3551 -2.0801
14654TIP3   OH265376   5.840   5.311  15.864 -0.0691 -0.1055  0.0820
14654TIP3    H165377   5.853   5.219  15.841  1.1157 -0.0236  0.3578
14654TIP3    H265378   5.805   5.352  15.785  2.0430 -0.2346 -0.9860
14655TIP3   OH265379   0.921   4.652  14.023  0.0480 -0.2815  0.4690
14655TIP3    H165380   1.000   4.700  14.048  0.4082 -0.2127 -0.7271
14655TIP3    H265381   0.863   4.719  13.988  0.2722 -0.5902 -0.5408
14656TIP3   OH265382   5.447   0.989   3.676 -0.1018  0.7309 -0.7938
14656TIP3    H165383   5.406   0.921   3.730 -1.9373  0.3240 -2.5582
14656TIP3    H265384   5.520   0.944   3.633 -0.4348  0.2463 -0.8656
14657TIP3   OH265385   6.534   1.224   3.731  0.1608  0.4256 -0.0291
14657TIP3    H165386   6.556   1.148   3.785  0.0748  0.3722 -0.0685
14657TIP3    H265387   6.616   1.249   3.690  0.3583  0.8426  0.6014
14658TIP3   OH265388   5.954   3.508   5.674  0.0311 -0.6299 -0.0311
14658TIP3    H165389   5.926   3.529   5.585 -1.2393 -1.6233  0.0978
14658TIP3    H265390   6.042   3.472   5.664 -0.0719 -0.6646 -0.8733
14659TIP3   OH265391   2.413   3.253   4.111  0.0256 -0.0940  0.1729
14659TIP3    H165392   2.483   3.314   4.086  1.0020 -2.3260 -3.2469
14659TIP3    H265393   2.342   3.271   4.050 -1.6469  0.6643  2.2029
14660TIP3   OH265394   4.893   5.273  14.641  0.1370 -1.3117  0.1450
14660TIP3    H165395   4.902   5.182  14.613  0.4377 -1.3540  0.3704
14660TIP3    H265396   4.839   5.314  14.573  1.9579 -1.0669 -1.2076
14661TIP3   OH265397   3.657   4.815   2.671  0.2946  0.2395 -0.1937
14661TIP3    H165398   3.603   4.893   2.689 -0.2145 -0.2484  0.4917
14661TIP3    H265399   3.689   4.827   2.582 -0.0164  1.0953 -0.1983
14662TIP3   OH265400   1.980   1.337  12.897 -0.6082  0.4751  0.0058
14662TIP3    H165401   1.998   1.295  12.814  1.0412 -1.0725  1.0824
14662TIP3    H265402   2.059   1.389  12.915 -0.1347 -0.6628  1.4172
14663TIP3   OH265403   4.194   6.295  16.115 -0.0639 -0.7650 -0.1918
14663TIP3    H165404   4.113   6.331  16.080 -0.1843  1.1047  1.7868
14663TIP3    H265405   4.257   6.366  16.110  0.9466 -1.6156 -0.0148
14664TIP3   OH265406   5.384   6.621  11.711  1.0164  0.4603  0.0767
14664TIP3    H165407   5.439   6.699  11.722 -0.3458  1.2718  1.6384
14664TIP3    H265408   5.320   6.646  11.645  2.1277 -0.2871 -1.3275
14665TIP3   OH265409   4.124   6.708  16.664 -0.3458  0.7808  0.7292
14665TIP3    H165410   4.197   6.660  16.625 -0.3879  0.9418  0.4477
14665TIP3    H265411   4.137   6.798  16.635 -0.5088  0.8571  0.8973
14666TIP3   OH265412   0.639   3.642  11.222  0.0180 -0.2361 -0.4861
14666TIP3    H165413   0.625   3.693  11.143 -0.3432 -1.7074 -1.4180
14666TIP3    H265414   0.722   3.597  11.208  1.1279  1.2195  0.9865
14667TIP3   OH265415   6.218   3.594  13.585 -0.1858 -0.5598 -0.9403
14667TIP3    H165416   6.259   3.671  13.546 -1.7679  0.8333 -0.0142
14667TIP3    H265417   6.256   3.589  13.673 -1.0418  0.0016 -0.5211
14668TIP3   OH265418   5.405   5.043  12.253  0.2275 -0.4483  0.6683
14668TIP3    H165419   5.393   4.954  12.286 -2.8593 -1.2544 -2.0751
14668TIP3    H265420   5.433   5.032  12.162 -0.2419  1.3574  0.2603
14669TIP3   OH265421   1.283   3.655  11.412 -0.1705 -0.1053  0.2247
14669TIP3    H165422   1.257   3.586  11.351 -2.8936  1.6361 -0.7686
14669TIP3    H265423   1.341   3.712  11.361 -0.0921 -0.2048  0.2023
14670TIP3   OH265424   2.117   1.502   5.355 -0.0690 -0.1622 -0.2414
14670TIP3    H165425   2.094   1.410   5.350  0.2472 -0.2403 -0.2758
14670TIP3    H265426   2.211   1.505   5.335 -0.0141  0.1344  0.0408
14671TIP3   OH265427   2.552   5.643   0.879  0.0407 -0.2318  0.1459
14671TIP3    H165428   2.476   5.686   0.839 -0.7878 -1.7252  0.0286
14671TIP3    H265429   2.552   5.674   0.969 -0.6339 -0.1079  0.1122
14672TIP3   OH265430   5.750   1.764   4.286 -0.4628 -0.3138 -0.4798
14672TIP3    H165431   5.655   1.776   4.295 -0.8198 -0.4208 -3.3210
14672TIP3    H265432   5.783   1.850   4.262  0.3904 -0.0080  1.5942
14673TIP3   OH265433   3.636   0.263   3.072  0.0499  0.4205 -0.2031
14673TIP3    H165434   3.636   0.186   3.129 -2.5459 -0.2068 -0.8946
14673TIP3    H265435   3.613   0.229   2.985  1.5198  1.6684 -1.1172
14674TIP3   OH265436   4.908   2.146  16.219 -0.6342 -0.0040 -0.3684
14674TIP3    H165437   4.921   2.168  16.127 -2.1261  1.2652 -0.3244
14674TIP3    H265438   4.887   2.230  16.260 -0.6029 -0.6495  1.0118
14675TIP3   OH265439   4.904   2.126  13.007  0.4307  0.4682 -0.3239
14675TIP3    H165440   4.993   2.092  13.002 -0.1758 -1.8147  1.9632
14675TIP3    H265441   4.893   2.152  13.099 -0.7896  2.2500 -0.9179
14676TIP3   OH265442   6.458   3.814   5.268 -0.0869 -0.5267  0.8480
14676TIP3    H165443   6.398   3.852   5.204 -0.7559 -0.0096  1.7443
14676TIP3    H265444   6.529   3.878   5.276 -1.8840  1.3803  3.3680
14677TIP3   OH265445   5.062   5.218  15.624 -0.0242  0.0848  0.4030
14677TIP3    H165446   5.124   5.291  15.629  0.7842 -0.5874  0.3021
14677TIP3    H265447   4.980   5.259  15.596 -0.3809  1.4160  3.1441
14678TIP3   OH265448   0.248   0.249  17.215 -0.0838 -0.9072 -0.3663
14678TIP3    H165449   0.167   0.300  17.205  0.3346 -0.3164 -0.7931
14678TIP3    H265450   0.277   0.232  17.126  0.6988 -0.4136 -0.2162
14679TIP3   OH265451   2.138   2.562   4.915 -0.2403 -0.0760  0.3347
14679TIP3    H165452   2.181   2.643   4.941  1.4554 -1.1362  0.9918
14679TIP3    H265453   2.199   2.521   4.854 -1.0797 -0.8654 -0.0015
14680TIP3   OH265454   0.836   0.710  12.553 -0.5781  0.3325  0.4065
14680TIP3    H165455   0.897   0.780  12.528  1.1672 -1.6890 -1.5189
14680TIP3    H265456   0.762   0.755  12.593  1.3603  3.0845  1.1886
14681TIP3   OH265457   4.731   3.893   3.846  0.0033  0.3761 -0.0152
14681TIP3    H165458   4.678   3.963   3.884 -1.0780 -0.3861 -0.0547
14681TIP3    H265459   4.724   3.821   3.910  2.0713  0.6653  0.6237
14682TIP3   OH265460   5.824   6.493  16.807  0.4233 -0.3939  0.2563
14682TIP3    H165461   5.807   6.540  16.726 -2.0168 -1.2884  0.1819
14682TIP3    H265462   5.757   6.524  16.868  0.7956 -1.3866  1.2123
14683TIP3   OH265463   4.592   5.850   3.165 -0.1212 -0.5172 -0.5534
14683TIP3    H165464   4.652   5.901   3.111  1.1553 -0.2669  1.0143
14683TIP3    H265465   4.620   5.759   3.152  1.6403 -0.3079  1.2572
14684TIP3   OH265466   0.588   4.236   4.983 -0.4409 -0.1632 -0.6275
14684TIP3    H165467   0.554   4.316   5.023 -0.6357 -0.0516 -1.0083
14684TIP3    H265468   0.510   4.186   4.960 -0.4399  0.7279 -2.8043
14685TIP3   OH265469   4.290   5.533  10.389 -0.3844 -0.1143  0.0265
14685TIP3    H165470   4.367   5.585  10.413  0.8058 -1.5525 -0.5664
14685TIP3    H265471   4.223   5.561  10.451  1.1966 -0.2574  1.9017
14686TIP3   OH265472   5.287   0.668   0.228  0.1922 -0.2807 -0.3841
14686TIP3    H165473   5.289   0.669   0.132  0.0691  0.6896 -0.3804
14686TIP3    H265474   5.194   0.678   0.250  0.1149 -1.3329 -0.1551
14687TIP3   OH265475   5.047   2.380  12.878 -0.0710  0.8997 -0.5577
14687TIP3    H165476   5.002   2.335  12.806 -0.3441  1.1724 -0.5622
14687TIP3    H265477   5.115   2.320  12.905 -0.1116  0.6956 -0.8980
14688TIP3   OH265478   4.584   5.556   0.082 -0.1916 -0.6092  0.2919
14688TIP3    H165479   4.619   5.531  -0.004 -0.5698 -0.3076  0.0494
14688TIP3    H265480   4.563   5.649   0.074 -0.9299 -0.7551  0.4734
14689TIP3   OH265481   6.656   2.797   5.635 -0.6880 -0.3872 -0.8131
14689TIP3    H165482   6.658   2.784   5.540 -3.1090 -0.8102 -0.8659
14689TIP3    H265483   6.657   2.892   5.646 -1.7347 -0.2895 -1.3659
14690TIP3   OH265484   3.345   0.002  13.811  0.2939  0.5420  0.0246
14690TIP3    H165485   3.437  -0.006  13.837 -0.2289  1.4072  2.4704
14690TIP3    H265486   3.302  -0.072  13.854 -0.1615  0.0111 -1.2921
14691TIP3   OH265487   2.380   5.587   2.329 -0.6900 -0.4144  0.0705
14691TIP3    H165488   2.304   5.582   2.270  0.5103 -0.5673 -1.5256
14691TIP3    H265489   2.350   5.547   2.410 -2.5467  0.1933 -0.2620
14692TIP3   OH265490   1.024   1.600   5.203 -0.7815  0.1445  0.2358
14692TIP3    H165491   1.054   1.690   5.192 -0.6712  0.0838  0.0432
14692TIP3    H265492   0.938   1.598   5.160 -0.6542  0.0830 -0.0173
14693TIP3   OH265493   1.220   3.490  10.915 -0.0175  0.4301 -0.2622
14693TIP3    H165494   1.172   3.450  10.842 -2.5813  0.2524  1.3849
14693TIP3    H265495   1.237   3.417  10.974 -0.3934  0.9817  0.5385
14694TIP3   OH265496   4.751   4.834   5.088 -0.4888  0.1572  0.0931
14694TIP3    H165497   4.808   4.825   5.164 -0.0323  0.0651 -0.2592
14694TIP3    H265498   4.780   4.914   5.045  0.5641 -0.8105 -1.0743
14695TIP3   OH265499   0.348   4.541  17.176 -0.1109 -0.3773  0.7341
14695TIP3    H165500   0.400   4.469  17.141 -1.9680 -0.4052 -2.2958
14695TIP3    H265501   0.294   4.500  17.244 -0.7081 -1.7972 -0.5225
14696TIP3   OH265502   1.874   0.830   6.399 -0.0355 -0.0144 -0.4099
14696TIP3    H165503   1.955   0.780   6.409  0.1689  0.4667  0.4412
14696TIP3    H265504   1.902   0.922   6.396 -0.3741  0.0718 -2.3266
14697TIP3   OH265505   5.640   2.528   1.868 -0.1604  0.2002  0.6226
14697TIP3    H165506   5.545   2.517   1.866 -0.1268 -0.2041  1.0278
14697TIP3    H265507   5.653   2.621   1.884 -0.4600  0.8328 -2.2399
14698TIP3   OH265508   0.746   0.072  10.863  0.7256 -0.3641 -0.3346
14698TIP3    H165509   0.795   0.126  10.925 -0.1732 -0.4486  0.4863
14698TIP3    H265510   0.682   0.025  10.917  0.0040 -0.5531 -1.3084
14699TIP3   OH265511   6.439   2.557  12.066 -0.4873  0.7411 -0.3431
14699TIP3    H165512   6.509   2.560  12.131 -1.3666 -1.1245  0.7534
14699TIP3    H265513   6.397   2.643  12.072  0.4583  1.1667  0.3884
14700TIP3   OH265514   0.869   0.329  10.994  0.3907 -0.0063 -0.4815
14700TIP3    H165515   0.914   0.272  11.056 -0.1111  0.0787 -0.0392
14700TIP3    H265516   0.864   0.413  11.038 -1.3892 -0.3502  0.0355
14701TIP3   OH265517   1.840   4.144   3.884 -0.5559  0.9769 -0.0323
14701TIP3    H165518   1.890   4.088   3.824 -1.4871  1.1164 -0.9548
14701TIP3    H265519   1.819   4.088   3.958  1.5291  1.0904  0.7117
14702TIP3   OH265520   2.267   3.128  12.177  0.1317 -0.3327 -0.1558
14702TIP3    H165521   2.210   3.059  12.210 -1.0846  0.9396  0.4982
14702TIP3    H265522   2.341   3.082  12.138 -1.6627 -2.0648 -1.6626
14703TIP3   OH265523   0.838   1.267   1.092  0.8794  0.5553  0.3397
14703TIP3    H165524   0.825   1.175   1.068 -0.6665  0.1710  2.4032
14703TIP3    H265525   0.828   1.269   1.187 -0.8817  3.1151  0.2041
14704TIP3   OH265526   6.292   4.038   2.824  0.4653  0.2489 -0.0519
14704TIP3    H165527   6.223   4.051   2.759 -1.1506  1.2295  1.7755
14704TIP3    H265528   6.250   3.989   2.895  1.1607  2.1952  1.7939
14705TIP3   OH265529   3.578   6.056  12.894 -0.5523 -0.1961 -0.8324
14705TIP3    H165530   3.487   6.085  12.901 -0.5964 -0.4670 -0.2593
14705TIP3    H265531   3.595   6.009  12.975  1.0497  2.4850  0.5174
14706TIP3   OH265532   1.980   1.291  16.805  0.1143  0.0576  0.8963
14706TIP3    H165533   1.895   1.312  16.766 -0.0568 -1.5964  0.2832
14706TIP3    H265534   1.999   1.203  16.774  1.2418 -0.2840  2.4360
14707TIP3   OH265535   3.236   6.738   4.460 -0.5324 -0.3608 -0.0604
14707TIP3    H165536   3.187   6.669   4.417  1.0182 -0.1187 -2.3901
14707TIP3    H265537   3.293   6.774   4.391  5.1653 -2.5483  2.8020
14708TIP3   OH265538   1.176   5.764  13.715  0.4039  0.1506  0.3119
14708TIP3    H165539   1.130   5.805  13.788  2.9248 -0.2542  2.2829
14708TIP3    H265540   1.250   5.719  13.756  1.9966 -0.0417 -2.5218
14709TIP3   OH265541   0.306   5.287  16.751 -0.6194 -0.4990 -0.0614
14709TIP3    H165542   0.299   5.286  16.656 -3.1898 -0.8280  0.0587
14709TIP3    H265543   0.343   5.202  16.773  1.7871  0.2808 -0.7900
14710TIP3   OH265544   4.221   0.174  15.788  0.1984 -0.1980  0.3408
14710TIP3    H165545   4.164   0.147  15.860 -0.8050  0.4769 -0.1837
14710TIP3    H265546   4.166   0.171  15.710  1.2602 -0.8852 -0.4196
14711TIP3   OH265547   0.447   5.192   2.601  0.2928  0.1054  0.8371
14711TIP3    H165548   0.465   5.144   2.521 -0.4762  0.9032  0.1584
14711TIP3    H265549   0.351   5.192   2.608  0.3703 -1.5634  2.7882
14712TIP3   OH265550   4.519   6.715  16.336 -0.0099  0.5025 -0.6086
14712TIP3    H165551   4.541   6.799  16.296  0.0044 -0.3954 -2.5761
14712TIP3    H265552   4.592   6.696  16.394  0.8977  0.9732 -1.5763
14713TIP3   OH265553   4.882   3.343   4.207 -0.4358  0.3220  0.1589
14713TIP3    H165554   4.966   3.388   4.205  0.4035 -1.2008 -0.3651
14713TIP3    H265555   4.883   3.294   4.290 -0.3230 -0.5554 -0.3517
14714TIP3   OH265556   5.660   1.412   3.749 -0.3086 -0.1724 -0.1826
14714TIP3    H165557   5.689   1.412   3.658  0.7960 -1.9465  0.1110
14714TIP3    H265558   5.574   1.370   3.747 -0.0031 -0.8032 -0.3527
14715TIP3   OH265559   0.736   1.704  11.974 -0.0904  0.0160 -0.4943
14715TIP3    H165560   0.826   1.721  12.003 -0.1589 -1.2243  0.5627
14715TIP3    H265561   0.745   1.640  11.904 -0.1043  0.7583 -1.1910
14716TIP3   OH265562   2.104   6.403  13.287  0.0016 -0.1198 -0.5816
14716TIP3    H165563   2.182   6.348  13.285  0.1312  0.0630 -0.4820
14716TIP3    H265564   2.133   6.486  13.326  0.0670  0.4386 -1.7995
14717TIP3   OH265565   0.373   0.137   6.072 -0.2568  0.6113 -0.4401
14717TIP3    H165566   0.426   0.068   6.031  0.0382  1.4574 -1.5208
14717TIP3    H265567   0.382   0.120   6.166  0.9175 -0.0129 -0.6373
14718TIP3   OH265568   0.024   6.441   6.327  0.1919  0.3009  0.6258
14718TIP3    H165569  -0.060   6.473   6.361 -0.8231 -4.3602  3.3787
14718TIP3    H265570   0.086   6.458   6.397  1.0186  1.4167 -0.3463
14719TIP3   OH265571   5.521   2.732   4.274 -0.7013 -0.0064 -0.3855
14719TIP3    H165572   5.580   2.747   4.348 -1.3107  1.0652 -0.0908
14719TIP3    H265573   5.509   2.637   4.271  0.6883 -0.2069 -0.1951
14720TIP3   OH265574   4.637   2.455   3.789  0.2239  0.3328  0.2446
14720TIP3    H165575   4.703   2.497   3.845 -1.1508  0.9536  1.4889
14720TIP3    H265576   4.636   2.364   3.818  0.0211  0.4937  0.7667
14721TIP3   OH265577   3.551   3.188  11.863  0.7787  0.1309 -0.7904
14721TIP3    H165578   3.538   3.268  11.915  2.1946 -0.9489  1.3855
14721TIP3    H265579   3.469   3.140  11.870  1.1077 -0.2461  1.0256
14722TIP3   OH265580   5.641   6.157  16.381  0.1571 -0.2112 -0.5683
14722TIP3    H165581   5.671   6.156  16.472  1.0723  0.6996 -0.8491
14722TIP3    H265582   5.715   6.126  16.330  0.2949  1.0295 -1.1693
14723TIP3   OH265583   0.438   4.768   2.071 -0.1012  0.2613 -0.2185
14723TIP3    H165584   0.366   4.826   2.047  1.4456  1.4826 -2.2580
14723TIP3    H265585   0.436   4.697   2.007 -1.1248 -1.2809  1.4199
14724TIP3   OH265586   5.142   1.788   2.034 -0.0318  0.1721  0.3160
14724TIP3    H165587   5.104   1.874   2.048  1.5354  0.6229  2.1863
14724TIP3    H265588   5.078   1.726   2.070 -1.0007  0.5446 -0.7208
14725TIP3   OH265589   6.397   5.605   1.161  0.1885  0.2696  0.0253
14725TIP3    H165590   6.314   5.586   1.116  0.9471 -0.8098 -0.9888
14725TIP3    H265591   6.450   5.648   1.095  1.6887 -2.2432 -0.5368
14726TIP3   OH265592   1.546   3.945  11.577 -0.3224 -0.1289 -0.2689
14726TIP3    H165593   1.627   3.950  11.526 -0.2825  0.9028 -0.1227
14726TIP3    H265594   1.575   3.929  11.667 -0.4012 -2.1746 -0.5561
14727TIP3   OH265595   2.804   3.178   0.977  0.2432 -0.5990  0.6943
14727TIP3    H165596   2.807   3.106   0.914  1.2237  0.1494 -0.1647
14727TIP3    H265597   2.876   3.235   0.951  0.6011 -0.1914  2.4447
14728TIP3   OH265598   0.644   1.399  12.851 -0.4638 -0.2859 -0.0539
14728TIP3    H165599   0.705   1.328  12.872 -0.9679 -0.7843 -0.2439
14728TIP3    H265600   0.568   1.354  12.813 -0.3277  0.4362 -1.2515
14729TIP3   OH265601   0.264   4.151   0.771  0.6952 -0.1212 -0.2010
14729TIP3    H165602   0.216   4.227   0.740 -0.7970 -1.3357 -1.0204
14729TIP3    H265603   0.315   4.183   0.846  0.6981  1.8170 -0.9697
14730TIP3   OH265604   5.048   5.231  12.831  0.1777 -0.2894  0.6335
14730TIP3    H165605   4.954   5.215  12.837 -0.1760  0.8782 -1.0424
14730TIP3    H265606   5.056   5.306  12.773  2.1754 -0.4657  0.5986
14731TIP3   OH265607   0.609   6.246   5.051 -0.2670 -0.7325  0.1219
14731TIP3    H165608   0.659   6.186   4.996  1.1613  0.7231 -0.2636
14731TIP3    H265609   0.519   6.214   5.047  0.0671 -1.5446 -1.8610
14732TIP3   OH265610   3.339   5.525  13.588  0.3238 -0.2159 -0.6207
14732TIP3    H165611   3.247   5.499  13.578 -0.0341  0.7252  0.0894
14732TIP3    H265612   3.358   5.508  13.680  1.4205 -2.0878 -1.1421
14733TIP3   OH265613   0.501   0.173   2.327 -0.1790 -0.6134  0.2499
14733TIP3    H165614   0.589   0.158   2.293 -0.6669 -0.1567 -1.3366
14733TIP3    H265615   0.452   0.094   2.304 -0.7943  0.1386 -1.1822
14734TIP3   OH265616   6.191   1.762   3.625 -0.6452 -0.6170 -0.0446
14734TIP3    H165617   6.253   1.779   3.696 -1.0440  0.5653  0.0511
14734TIP3    H265618   6.181   1.667   3.624 -0.3065 -0.6844  1.1975
14735TIP3   OH265619   2.885   1.846  17.252 -0.5007  0.2192  0.4695
14735TIP3    H165620   2.914   1.902  17.180  0.7171  1.1039  1.5984
14735TIP3    H265621   2.864   1.907  17.322 -4.2441 -0.4345  0.1082
14736TIP3   OH265622   6.399   4.730  13.312 -0.2311  0.0045  0.0200
14736TIP3    H165623   6.476   4.719  13.257 -0.3231 -0.9156  0.0673
14736TIP3    H265624   6.414   4.671  13.386 -1.2708 -0.6518 -0.2859
14737TIP3   OH265625   1.329   4.287  11.837 -0.4299  0.2237 -0.1964
14737TIP3    H165626   1.337   4.250  11.749  0.3087  1.0746 -0.4968
14737TIP3    H265627   1.310   4.211  11.893 -0.7311 -0.3479 -1.0561
14738TIP3   OH265628   2.639   1.924  14.476  0.8547  0.3034 -0.1069
14738TIP3    H165629   2.672   1.981  14.545  1.1915 -2.8342  2.5850
14738TIP3    H265630   2.709   1.922  14.411  2.0977  0.6796  1.1638
14739TIP3   OH265631   1.967   5.570  15.478  0.0639  0.5615 -0.3799
14739TIP3    H165632   1.996   5.614  15.558 -2.1759 -0.3218  1.0458
14739TIP3    H265633   1.871   5.568  15.486 -0.1576 -0.5470 -2.5689
14740TIP3   OH265634   2.751   5.900   1.697  0.1902  0.3321  0.1485
14740TIP3    H165635   2.669   5.942   1.721  0.2402 -0.0239  0.9823
14740TIP3    H265636   2.784   5.862   1.779  1.5995  1.1749  0.0086
14741TIP3   OH265637   0.073   4.188   3.874  0.0578  0.7093 -0.3059
14741TIP3    H165638   0.044   4.279   3.869  0.3661  0.7621 -1.2773
14741TIP3    H265639   0.063   4.154   3.785 -0.4701 -0.3472  0.1315
14742TIP3   OH265640   1.613   1.955   3.226 -0.0592 -0.1364  0.0522
14742TIP3    H165641   1.584   1.992   3.143 -1.9035 -3.3238 -0.8979
14742TIP3    H265642   1.531   1.930   3.270  0.9754 -2.0860  0.9948
14743TIP3   OH265643   5.438   1.110  12.808 -0.0045  0.0882 -0.0852
14743TIP3    H165644   5.418   1.195  12.769 -2.7734  0.2360  1.3637
14743TIP3    H265645   5.367   1.053  12.778  1.5253 -1.6026 -0.6214
14744TIP3   OH265646   5.908   2.088   3.933 -1.1002 -0.7604  0.2169
14744TIP3    H165647   5.968   2.162   3.937 -1.1512 -0.4195 -2.8626
14744TIP3    H265648   5.953   2.024   3.878 -1.2556 -2.9082  2.4358
14745TIP3   OH265649   6.251   1.854   3.892 -0.1656 -0.4498  0.3173
14745TIP3    H165650   6.179   1.914   3.871  0.6593 -0.1986 -2.1077
14745TIP3    H265651   6.208   1.781   3.937 -2.1860 -0.8637 -2.0451
14746TIP3   OH265652   2.541   0.971  14.727  0.1512 -0.9036  0.3432
14746TIP3    H165653   2.481   0.897  14.714 -0.7682 -0.1019 -0.0824
14746TIP3    H265654   2.547   1.013  14.641 -2.3375  1.7312  1.2870
14747TIP3   OH265655   1.049   1.957  11.864  0.4724  0.0787 -0.7913
14747TIP3    H165656   1.018   1.867  11.852  2.0348 -0.4742 -0.9158
14747TIP3    H265657   1.037   1.974  11.957  0.6038 -0.4543 -0.6710
14748TIP3   OH265658   4.906   1.380   5.142 -0.3270  0.1967 -0.3014
14748TIP3    H165659   4.972   1.419   5.199 -0.1973 -0.0868 -0.2546
14748TIP3    H265660   4.885   1.448   5.078  0.1660  0.2148 -0.4469
14749TIP3   OH265661   4.350   4.410   0.754 -0.3192 -0.5125  0.3717
14749TIP3    H165662   4.360   4.460   0.834  0.5611 -0.2721  0.1135
14749TIP3    H265663   4.272   4.356   0.769  0.0458 -0.7286  1.5156
14750TIP3   OH265664   4.315   3.855   2.795  0.0638 -0.1783  0.0002
14750TIP3    H165665   4.369   3.823   2.868 -2.5233 -1.6730  1.4279
14750TIP3    H265666   4.272   3.776   2.761 -1.8779  1.0144 -0.4690
14751TIP3   OH265667   5.498   1.810  16.582 -0.0541  0.1722  0.2482
14751TIP3    H165668   5.448   1.813  16.663 -0.5663 -0.0562 -0.0581
14751TIP3    H265669   5.562   1.740  16.596 -0.4581 -0.1962  0.2774
14752TIP3   OH265670   1.291   5.486   1.081 -0.0212  0.4324  0.0185
14752TIP3    H165671   1.275   5.400   1.120 -1.0141 -0.0901 -1.4626
14752TIP3    H265672   1.312   5.468   0.989  1.3203  1.6894  0.0384
14753TIP3   OH265673   3.914   1.919   1.080  0.0524 -0.0803  0.0159
14753TIP3    H165674   3.956   1.964   1.154 -0.5047  0.2159  0.1563
14753TIP3    H265675   3.904   1.988   1.013  0.2634 -0.2721 -0.2133
14754TIP3   OH265676   3.864   3.340  16.593 -0.3793  0.1397 -0.0633
14754TIP3    H165677   3.910   3.263  16.627  1.6946  0.7645 -1.2718
14754TIP3    H265678   3.778   3.336  16.634 -0.2576 -2.6456  0.1540
14755TIP3   OH265679   0.204   2.075  11.579  0.0115  0.7893  0.1200
14755TIP3    H165680   0.246   2.006  11.527  1.4467  1.4868  0.3066
14755TIP3    H265681   0.221   2.156  11.531 -2.2394  0.9824 -0.4476
14756TIP3   OH265682   2.662   5.191  15.691  0.2822  0.2727 -0.0079
14756TIP3    H165683   2.600   5.209  15.762  0.8860 -0.5663  0.7518
14756TIP3    H265684   2.608   5.189  15.612 -0.3612  1.4872  0.3801
14757TIP3   OH265685   5.986   4.895   4.607 -0.2717 -0.1173  0.1562
14757TIP3    H165686   6.046   4.874   4.679  0.0147  1.2399  0.3483
14757TIP3    H265687   5.904   4.853   4.632 -0.6299  1.5372  2.0864
14758TIP3   OH265688   0.015   1.385   1.477  0.8000 -0.3941 -0.5000
14758TIP3    H165689   0.060   1.467   1.499 -0.1334 -0.0159  0.0386
14758TIP3    H265690  -0.061   1.383   1.534 -0.7717 -0.2388 -2.4779
14759TIP3   OH265691   3.470   2.878  12.807 -0.0013 -0.1781  0.2280
14759TIP3    H165692   3.385   2.921  12.799  0.8241  1.1153 -3.4020
14759TIP3    H265693   3.455   2.788  12.781 -0.1796  0.2654 -1.2968
14760TIP3   OH265694   2.440   2.485  12.101 -0.0324  0.0498  0.3499
14760TIP3    H165695   2.449   2.525  12.188  0.5912 -0.5534  0.5675
14760TIP3    H265696   2.352   2.510  12.072 -0.2217  0.3052  1.1287
14761TIP3   OH265697   2.651   4.300   2.486 -0.2572  0.2567  0.3535
14761TIP3    H165698   2.672   4.206   2.481 -1.7667 -0.1281  0.9617
14761TIP3    H265699   2.665   4.332   2.397  0.3854 -0.5120  0.1665
14762TIP3   OH265700   0.239   0.013  16.243  0.1841 -0.0623 -0.3650
14762TIP3    H165701   0.327  -0.026  16.235  0.1148 -0.1817 -0.5338
14762TIP3    H265702   0.243   0.091  16.189  0.8591  1.1068  1.2608
14763TIP3   OH265703   1.072   0.476  12.896  0.3109 -0.1384 -0.0381
14763TIP3    H165704   1.097   0.459  12.987  0.1385  0.8918  0.2124
14763TIP3    H265705   0.994   0.530  12.903  0.7590  0.6207 -0.7909
14764TIP3   OH265706   2.277   6.148   2.350  0.2150 -0.0837  0.6119
14764TIP3    H165707   2.313   6.078   2.405  2.0680  1.5290  1.5520
14764TIP3    H265708   2.318   6.134   2.264  0.7430 -0.0324  0.8533
14765TIP3   OH265709   3.207   0.955  16.136 -0.5583 -0.2640  0.2699
14765TIP3    H165710   3.187   0.947  16.043  0.4250  0.4183 -0.0155
14765TIP3    H265711   3.302   0.950  16.141 -0.5070  1.0176  1.0834
14766TIP3   OH265712   5.811   4.215   5.694  0.4367  0.0086  0.1145
14766TIP3    H165713   5.822   4.223   5.599 -1.2089 -0.4860 -0.1548
14766TIP3    H265714   5.893   4.177   5.725  0.3012 -1.6545 -1.3966
14767TIP3   OH265715   6.545   2.190   5.801 -0.7730 -0.2747 -0.0592
14767TIP3    H165716   6.634   2.177   5.833 -0.3831 -0.0691 -1.0197
14767TIP3    H265717   6.539   2.133   5.724 -2.2906 -2.1873  1.3784
14768TIP3   OH265718   0.090   1.670  11.341  0.1825  0.0821  0.1398
14768TIP3    H165719   0.003   1.644  11.371 -0.4399  1.4525 -0.4196
14768TIP3    H265720   0.139   1.587  11.338 -1.5648 -0.9938 -1.0551
14769TIP3   OH265721   1.400   3.356  15.441  0.4985 -0.3212  0.1613
14769TIP3    H165722   1.490   3.378  15.467  0.7867  0.0570 -1.1076
14769TIP3    H265723   1.345   3.407  15.501  1.1384  2.4543 -1.4298
14770TIP3   OH265724   0.097   4.448   5.991 -0.1331  0.5079  0.3365
14770TIP3    H165725   0.038   4.517   5.962 -0.2296  0.0108 -0.7197
14770TIP3    H265726   0.167   4.493   6.038 -1.4814  1.0889  1.8918
14771TIP3   OH265727   3.594   3.037  17.324 -0.2665 -0.4862 -0.5707
14771TIP3    H165728   3.680   3.006  17.352 -1.2235 -1.6211  1.3001
14771TIP3    H265729   3.563   2.971  17.263 -0.4517 -0.8932 -0.0394
14772TIP3   OH265730   0.080   4.023   2.231  0.5172 -0.3099 -0.1474
14772TIP3    H165731   0.068   4.020   2.326  1.1785 -1.3917 -0.0881
14772TIP3    H265732  -0.009   4.034   2.196  0.2655  0.0600  0.5828
14773TIP3   OH265733   6.405   1.900  12.049 -0.1337  0.4849 -0.7839
14773TIP3    H165734   6.375   1.970  11.990 -2.4685 -0.2978 -0.6199
14773TIP3    H265735   6.445   1.947  12.122 -0.8090  1.6453 -1.1196
14774TIP3   OH265736   0.658   3.661   2.639  0.0152  0.1615 -0.2917
14774TIP3    H165737   0.692   3.747   2.663 -1.8393  0.3409  1.9564
14774TIP3    H265738   0.712   3.599   2.688 -0.6045  0.2405  0.5015
14775TIP3   OH265739   4.385   0.425  12.723 -0.5753  0.1603 -0.6752
14775TIP3    H165740   4.304   0.468  12.752 -0.6075  0.0672 -0.6263
14775TIP3    H265741   4.396   0.453  12.632  0.5397  2.0015 -0.0286
14776TIP3   OH265742   4.117   4.001  10.888 -0.3087 -0.0245  0.0990
14776TIP3    H165743   4.198   3.980  10.840 -0.7590 -0.7138 -0.3800
14776TIP3    H265744   4.060   3.926  10.872 -0.2459 -0.5932  2.2517
14777TIP3   OH265745   4.477   3.571  13.159 -0.6080 -0.6395  0.4268
14777TIP3    H165746   4.482   3.559  13.254  1.4515  0.6809  0.5363
14777TIP3    H265747   4.421   3.648  13.148 -0.6718 -0.6611  0.5921
14778TIP3   OH265748   6.292   6.583   6.026  0.9703 -0.1194 -0.2046
14778TIP3    H165749   6.269   6.490   6.016  2.0359 -0.2749 -1.5425
14778TIP3    H265750   6.270   6.604   6.117 -0.6946 -1.2728 -0.2892
14779TIP3   OH265751   4.013   0.949  12.171 -0.4278  0.2394 -0.0406
14779TIP3    H165752   4.107   0.962  12.184 -0.1952 -0.2886 -1.0971
14779TIP3    H265753   3.987   0.890  12.242  0.2745 -0.5444 -0.4189
14780TIP3   OH265754   5.083   0.471   1.923 -0.0693  0.2886 -0.5575
14780TIP3    H165755   5.112   0.505   2.008 -0.0058  1.9872 -1.2254
14780TIP3    H265756   5.140   0.396   1.906 -0.2728 -0.2705  1.0111
14781TIP3   OH265757   5.382   3.231  16.308  0.7140 -0.0741  0.2765
14781TIP3    H165758   5.402   3.214  16.401  0.0521  0.2488  0.4831
14781TIP3    H265759   5.287   3.233  16.304  0.6606 -1.9785 -0.7596
14782TIP3   OH265760   4.643   4.248   5.359 -0.1412  0.1333  0.1083
14782TIP3    H165761   4.731   4.258   5.396 -0.5796  1.5960  0.8338
14782TIP3    H265762   4.613   4.162   5.391  1.4689 -0.9795 -1.2086
14783TIP3   OH265763   5.196   6.000   2.741  0.1013 -0.0461  0.0105
14783TIP3    H165764   5.224   5.943   2.814 -0.8631 -0.2671  0.2146
14783TIP3    H265765   5.198   5.942   2.665 -0.9156 -0.3737  0.2245
14784TIP3   OH265766   0.667   3.865  14.050 -0.0391  0.2708  0.3939
14784TIP3    H165767   0.579   3.883  14.018 -0.7654  0.3115  2.3277
14784TIP3    H265768   0.673   3.769  14.051  0.7728  0.2266 -1.7715
14785TIP3   OH265769   2.745   1.411  15.034 -0.0024 -0.2010 -0.4600
14785TIP3    H165770   2.687   1.401  14.958 -1.6181  0.4902  0.6069
14785TIP3    H265771   2.785   1.325  15.045 -2.8352 -1.5534  0.2340
14786TIP3   OH265772   5.424   4.911  13.998  0.0602  0.0992  0.3138
14786TIP3    H165773   5.426   4.961  14.080  1.1398  0.4570  0.0922
14786TIP3    H265774   5.517   4.901  13.974 -0.2312 -0.2316 -0.7241
14787TIP3   OH265775   3.650   6.069  16.615 -0.3306 -0.3652 -0.4891
14787TIP3    H165776   3.717   6.001  16.620 -0.1512 -0.3929 -2.6064
14787TIP3    H265777   3.623   6.082  16.706  4.0211  1.1856  0.8424
14788TIP3   OH265778   1.537   6.508   3.494  0.3970  0.2702  0.3466
14788TIP3    H165779   1.458   6.468   3.459  0.2221  0.3501  0.6482
14788TIP3    H265780   1.541   6.594   3.453 -0.0694  0.5564  0.8829
14789TIP3   OH265781   2.737   2.815   0.624  0.6695  0.5108 -0.0048
14789TIP3    H165782   2.651   2.856   0.629  0.3216 -0.1210 -0.6076
14789TIP3    H265783   2.738   2.752   0.697  1.0683  1.3141  0.7018
14790TIP3   OH265784   5.725   0.599   1.015 -0.2434  0.6033 -0.1526
14790TIP3    H165785   5.751   0.645   0.935 -0.0654  0.6179 -0.0869
14790TIP3    H265786   5.697   0.668   1.075 -1.8298  0.4904 -0.7238
14791TIP3   OH265787   6.086   0.358  15.397  0.2276  0.6393  0.0679
14791TIP3    H165788   6.007   0.379  15.346  0.3607  1.8353  0.3286
14791TIP3    H265789   6.069   0.394  15.484  1.4263  1.7294 -0.1258
14792TIP3   OH265790   2.126   3.091  16.616  0.0942 -0.3829  0.0686
14792TIP3    H165791   2.088   3.036  16.546  1.1022 -1.3835  0.2718
14792TIP3    H265792   2.220   3.087  16.600  0.2168  0.9044  0.4074
14793TIP3   OH265793   4.491   1.404   1.367  0.5360 -0.2540 -0.1366
14793TIP3    H165794   4.538   1.321   1.372  2.4350  0.6913 -1.0642
14793TIP3    H265795   4.411   1.384   1.319  0.7266 -1.6119  0.0702
14794TIP3   OH265796   1.596   5.062  14.470  0.4221 -0.0178 -0.2648
14794TIP3    H165797   1.502   5.057  14.491  0.9794 -1.4558  2.1893
14794TIP3    H265798   1.631   4.977  14.494  2.3902  0.4736 -1.1954
14795TIP3   OH265799   1.508   0.347   6.116  0.6045  0.0300 -0.0671
14795TIP3    H165800   1.596   0.310   6.120  0.2921 -1.1420 -2.5999
14795TIP3    H265801   1.470   0.328   6.202  1.8681 -1.8996  0.1103
14796TIP3   OH265802   6.390   1.521  16.662 -0.4122  0.1156  0.2161
14796TIP3    H165803   6.330   1.452  16.689 -0.7247  1.0720  2.2036
14796TIP3    H265804   6.437   1.485  16.587 -2.4640 -1.1887 -0.5241
14797TIP3   OH265805   5.648   1.666  14.137 -0.4411  0.3893 -0.1244
14797TIP3    H165806   5.624   1.688  14.047  0.2103 -0.2593 -0.4711
14797TIP3    H265807   5.645   1.571  14.140  1.0118  0.3223  0.1008
14798TIP3   OH265808   4.649   3.950  10.706  0.7024 -0.2069  0.4714
14798TIP3    H165809   4.704   3.872  10.703 -0.0623 -0.7370 -1.0910
14798TIP3    H265810   4.590   3.940  10.632 -1.2159  0.5472  1.8111
14799TIP3   OH265811   2.984   6.331   5.829 -0.2145 -0.3585 -0.0991
14799TIP3    H165812   2.923   6.348   5.901  0.0747  0.8683 -0.1382
14799TIP3    H265813   2.931   6.340   5.750 -0.5810 -1.9023 -0.0791
14800TIP3   OH265814   5.967   4.744   2.521 -0.0600 -0.4457 -0.0731
14800TIP3    H165815   6.001   4.669   2.570  2.8440  1.0773  0.4437
14800TIP3    H265816   6.007   4.737   2.435  1.3700  1.1287  0.3925
14801TIP3   OH265817   4.927   1.796  10.966  0.0731 -0.7289  0.4087
14801TIP3    H165818   4.867   1.736  11.009 -1.5863 -0.2032 -1.0480
14801TIP3    H265819   5.004   1.798  11.022 -1.6829 -0.5684  2.9713
14802TIP3   OH265820   2.072   6.038  15.766  0.2115  0.3571  0.5187
14802TIP3    H165821   2.053   6.063  15.856 -1.5668 -1.6118  0.7738
14802TIP3    H265822   1.994   5.991  15.737  1.7805 -1.3968 -1.1451
14803TIP3   OH265823   3.692   1.991  16.792 -0.2021 -0.1669  0.9557
14803TIP3    H165824   3.598   1.974  16.798 -1.1449  3.8239  0.0470
14803TIP3    H265825   3.716   1.965  16.703 -0.7390 -0.0297  0.7708
14804TIP3   OH265826   5.216   4.408   5.539  0.2689  0.4676  0.4584
14804TIP3    H165827   5.295   4.411   5.594  1.6418 -0.9294 -1.3192
14804TIP3    H265828   5.222   4.325   5.492 -1.2851  1.1949 -1.1560
14805TIP3   OH265829   2.489   0.756   0.506 -0.4818  0.2399 -0.2467
14805TIP3    H165830   2.572   0.710   0.493 -1.9287 -2.6138 -0.2888
14805TIP3    H265831   2.468   0.794   0.421  0.6264  0.7370 -0.3037
14806TIP3   OH265832   4.302   0.409  11.902  0.1864 -0.4578  0.2189
14806TIP3    H165833   4.208   0.421  11.909  0.0161 -1.4390 -0.3036
14806TIP3    H265834   4.323   0.345  11.970 -0.3407 -4.2084 -2.8587
14807TIP3   OH265835   6.117   6.478  13.236  0.5918  0.3955 -0.4212
14807TIP3    H165836   6.061   6.549  13.267  0.2406 -0.4648  0.9703
14807TIP3    H265837   6.195   6.522  13.203 -0.7911  1.6242 -2.3058
14808TIP3   OH265838   1.786   1.208   3.999  0.2082  0.7525 -0.2564
14808TIP3    H165839   1.741   1.123   4.006  1.7957 -0.3787 -2.4556
14808TIP3    H265840   1.853   1.206   4.068 -0.0803  0.4333  0.0187
14809TIP3   OH265841   4.543   6.309  12.868  0.3315 -0.6330 -0.0400
14809TIP3    H165842   4.533   6.261  12.949 -1.7681 -1.2187 -0.6022
14809TIP3    H265843   4.593   6.250  12.811  1.7638 -0.2398  0.7640
14810TIP3   OH265844   1.521   1.378  15.417  0.1844 -0.6396 -0.7782
14810TIP3    H165845   1.481   1.347  15.336 -0.4822 -1.2189 -0.2380
14810TIP3    H265846   1.613   1.354  15.409  0.4513  0.6515 -2.0105
14811TIP3   OH265847   5.437   6.317  12.675 -0.0010  0.3190 -0.4583
14811TIP3    H165848   5.361   6.357  12.718  0.1390  1.1735 -0.9827
14811TIP3    H265849   5.451   6.371  12.597 -0.5030 -1.4238 -1.8042
14812TIP3   OH265850   6.510   5.070  12.004 -0.2979 -0.3217  0.1274
14812TIP3    H165851   6.502   5.143  12.066 -2.4397  0.2867 -0.7992
14812TIP3    H265852   6.473   5.102  11.923  1.0917 -1.6191 -1.0902
14813TIP3   OH265853   0.321   0.783  16.494  0.0054  0.5787  0.5070
14813TIP3    H165854   0.266   0.705  16.499  1.4720 -0.4390  1.3081
14813TIP3    H265855   0.262   0.851  16.462 -1.5326 -0.6340  0.6325
14814TIP3   OH265856   2.432   1.436  16.493 -0.1489  0.6169  0.1991
14814TIP3    H165857   2.482   1.504  16.537  1.3127  0.6320 -1.3781
14814TIP3    H265858   2.478   1.355  16.514  0.9354  0.6878 -1.6798
14815TIP3   OH265859   2.495   2.165  10.925 -0.3997  0.3903 -0.5663
14815TIP3    H165860   2.496   2.260  10.910  1.0832  0.0187 -3.5745
14815TIP3    H265861   2.434   2.153  10.997 -1.3389  3.5561 -0.6748
14816TIP3   OH265862   4.826   3.964  13.566 -0.6031  0.0819  0.3867
14816TIP3    H165863   4.805   3.904  13.495 -3.3641 -0.1237  1.2556
14816TIP3    H265864   4.855   3.907  13.637  1.5495  0.2398 -0.3071
14817TIP3   OH265865   2.550   2.026  11.206  0.5717  0.1355 -0.0458
14817TIP3    H165866   2.515   1.947  11.247  0.3085 -0.3425 -1.1579
14817TIP3    H265867   2.569   2.001  11.116  1.2338  1.1316 -0.2115
14818TIP3   OH265868   3.461   0.056  12.330  0.2425  0.4406  1.4367
14818TIP3    H165869   3.494  -0.003  12.398  0.9435 -0.8702  0.0244
14818TIP3    H265870   3.368   0.033  12.322  0.7164 -1.2141  0.2351
14819TIP3   OH265871   2.706   6.037   5.335 -0.2371 -0.2170  0.3563
14819TIP3    H165872   2.725   6.023   5.427 -0.0066  3.8237  1.0972
14819TIP3    H265873   2.619   6.077   5.334 -0.1943 -0.1018 -1.1757
14820TIP3   OH265874   3.109   5.429  12.373  0.3737  0.0008 -0.0604
14820TIP3    H165875   3.126   5.342  12.409 -0.0119 -0.1038 -0.1245
14820TIP3    H265876   3.013   5.437  12.374  0.4041  0.4110 -0.0851
14821TIP3   OH265877   2.610   1.546  14.809  0.1217  0.0815 -0.0461
14821TIP3    H165878   2.584   1.617  14.749 -1.7098 -0.8724 -0.4542
14821TIP3    H265879   2.577   1.466  14.768 -2.3442 -0.5177  2.7351
14822TIP3   OH265880   6.582   6.225  16.655  0.1792 -0.0610 -0.1539
14822TIP3    H165881   6.661   6.226  16.601 -0.1004 -0.3229 -0.5758
14822TIP3    H265882   6.513   6.193  16.596  0.6796 -4.8684  1.4875
14823TIP3   OH265883   5.812   4.372  16.123  0.0255  0.2213 -0.0905
14823TIP3    H165884   5.862   4.345  16.201  1.0573  0.9902 -0.4633
14823TIP3    H265885   5.826   4.466  16.117 -2.1244  0.6022  0.2053
14824TIP3   OH265886   0.613   2.811  14.283  0.0473 -0.5436  0.4786
14824TIP3    H165887   0.554   2.884  14.267 -1.2158 -1.3702  1.1880
14824TIP3    H265888   0.581   2.740  14.226  0.7189 -0.8312  0.4394
14825TIP3   OH265889   4.055   5.157  16.448 -0.3692  0.4366  0.1663
14825TIP3    H165890   4.137   5.202  16.426  0.3159 -0.4361  0.8483
14825TIP3    H265891   4.081   5.065  16.459 -1.7987 -0.2548 -1.6687
14826TIP3   OH265892   0.717   5.155  10.919  0.4207  0.3143  0.3806
14826TIP3    H165893   0.651   5.222  10.937  0.3818  0.6579 -0.9962
14826TIP3    H265894   0.733   5.115  11.005 -1.5984  0.1782  0.7376
14827TIP3   OH265895   5.324   5.273   0.466  0.2924 -0.0812  0.3976
14827TIP3    H165896   5.411   5.307   0.489 -0.0882  0.9693  0.3188
14827TIP3    H265897   5.305   5.208   0.535  1.2438 -0.5256  0.2591
14828TIP3   OH265898   6.056   4.844  11.635 -0.3381  0.1093  0.2096
14828TIP3    H165899   6.065   4.920  11.578  2.7074  0.6298  1.2223
14828TIP3    H265900   6.043   4.770  11.574  0.7595  0.9030 -1.0443
14829TIP3   OH265901   6.301   4.288   3.081  0.2052 -0.3709  0.6949
14829TIP3    H165902   6.357   4.330   3.016 -0.2156  0.3244  0.7729
14829TIP3    H265903   6.362   4.241   3.138  0.8283  1.2419  1.4193
14830TIP3   OH265904   4.764   1.851  17.356  0.3779  0.3877  0.3480
14830TIP3    H165905   4.852   1.888  17.367 -0.0144  1.3584  0.2947
14830TIP3    H265906   4.776   1.781  17.292  1.1472  0.3506  0.5140
14831TIP3   OH265907   2.887   1.473   4.449 -0.2427  0.0090 -0.1430
14831TIP3    H165908   2.941   1.549   4.470 -0.1567 -0.1373  0.1817
14831TIP3    H265909   2.932   1.431   4.376 -1.5211  1.5406 -1.8953
14832TIP3   OH265910   0.452   0.777  14.286  0.0985 -0.3179 -0.4177
14832TIP3    H165911   0.376   0.765  14.230  0.4990 -1.3142 -0.7691
14832TIP3    H265912   0.420   0.832  14.358 -1.0073 -0.9095 -0.4341
14833TIP3   OH265913   6.162   0.461  16.175 -0.0760 -0.4446 -0.6922
14833TIP3    H165914   6.243   0.431  16.134 -0.6553 -0.9664 -1.4762
14833TIP3    H265915   6.161   0.417  16.261  1.4520  1.1575  0.2025
14834TIP3   OH265916   1.419   5.876   0.443 -0.0562  0.0352  0.7358
14834TIP3    H165917   1.475   5.828   0.505  0.2149 -0.0039  0.4632
14834TIP3    H265918   1.330   5.851   0.467  0.1219 -2.3588 -0.7713
14835TIP3   OH265919   6.443   1.359  14.648  0.3267  0.3447 -0.6903
14835TIP3    H165920   6.420   1.322  14.733  0.4113 -1.1080 -1.2501
14835TIP3    H265921   6.400   1.444  14.646 -1.8832 -0.6641 -0.1918
14836TIP3   OH265922   4.367   3.874  15.763  0.3285  0.1681  0.0274
14836TIP3    H165923   4.441   3.882  15.823 -0.0891  0.6513  0.4908
14836TIP3    H265924   4.322   3.958  15.768  2.1254  1.5187 -3.5115
14837TIP3   OH265925   4.759   1.545  14.014 -0.1195 -0.6457  0.0076
14837TIP3    H165926   4.704   1.622  14.023 -0.6664 -0.9545 -0.6212
14837TIP3    H265927   4.704   1.482  13.967  0.9636 -0.7638 -1.1496
14838TIP3   OH265928   3.631   6.092  11.379  0.1283  0.3050 -0.8620
14838TIP3    H165929   3.676   6.039  11.444 -0.5423  0.0754 -0.5822
14838TIP3    H265930   3.692   6.163  11.359  1.3720 -0.9912 -1.8336
14839TIP3   OH265931   4.096   5.163  13.361 -0.4292 -0.0285 -0.5622
14839TIP3    H165932   4.136   5.084  13.324 -1.6898 -1.1657  0.4290
14839TIP3    H265933   4.081   5.219  13.285 -1.1363 -1.4766 -1.5432
14840TIP3   OH265934   3.166   6.551   3.017 -0.3429  0.6409 -0.6801
14840TIP3    H165935   3.180   6.457   3.022  0.4133  0.8199  1.5591
14840TIP3    H265936   3.250   6.585   2.985 -0.1978  0.6307 -0.3205
14841TIP3   OH265937   3.748   6.743   6.361 -0.2016  0.0944 -0.3811
14841TIP3    H165938   3.804   6.674   6.326 -0.5635  0.0206 -0.8328
14841TIP3    H265939   3.808   6.811   6.391  0.1369 -0.1360 -0.5379
14842TIP3   OH265940   2.373   4.778   1.918  0.0590 -0.1897  0.1147
14842TIP3    H165941   2.455   4.760   1.872 -0.5230 -1.2676 -0.5447
14842TIP3    H265942   2.369   4.873   1.924  1.6147 -0.1294  0.6510
14843TIP3   OH265943   1.804   4.799   2.002  0.8038 -0.5711  0.3179
14843TIP3    H165944   1.866   4.808   1.929  0.9743  0.1311  0.5419
14843TIP3    H265945   1.747   4.727   1.976 -0.1047  0.6312 -1.2375
14844TIP3   OH265946   3.688   5.431  12.059 -0.4419  0.4199  0.4136
14844TIP3    H165947   3.769   5.383  12.042  0.0391  0.9853  1.0258
14844TIP3    H265948   3.716   5.523  12.062 -1.2612  0.6987 -0.2572
14845TIP3   OH265949   2.922   5.063   5.239  0.0754 -1.0002  0.0187
14845TIP3    H165950   3.001   5.010   5.235  0.3876 -0.4934 -0.8253
14845TIP3    H265951   2.911   5.098   5.150 -0.6815 -0.4676  0.3007
14846TIP3   OH265952   0.769   4.562  11.731  0.0806 -0.0992 -0.6032
14846TIP3    H165953   0.726   4.477  11.738 -0.3161 -0.0410 -2.1415
14846TIP3    H265954   0.819   4.558  11.650  1.9421  0.3259  0.4485
14847TIP3   OH265955   1.524   1.366   0.495  0.3790  0.1532  0.5560
14847TIP3    H165956   1.585   1.359   0.569 -0.3991  1.1170  1.3330
14847TIP3    H265957   1.442   1.395   0.535 -0.3927 -0.4164 -0.5585
14848TIP3   OH265958   4.891   5.940   1.118  0.5000  0.6724  0.3044
14848TIP3    H165959   4.836   6.018   1.126 -0.8741 -0.2757  0.5315
14848TIP3    H265960   4.980   5.972   1.129 -0.0354  2.1927  0.4847
14849TIP3   OH265961   0.171   6.169   5.585  0.0156 -0.3713  0.2379
14849TIP3    H165962   0.168   6.132   5.497  0.5118  0.6990 -0.2439
14849TIP3    H265963   0.083   6.157   5.619 -0.0875 -1.1239 -0.2514
14850TIP3   OH265964   0.166   1.631   3.669  0.1636 -0.1082  0.5262
14850TIP3    H165965   0.204   1.584   3.595  0.3832  0.8257  0.0344
14850TIP3    H265966   0.146   1.718   3.635 -1.1714 -0.1423  1.1420
14851TIP3   OH265967   3.823   6.628  15.987 -0.1776  0.0291 -0.5426
14851TIP3    H165968   3.876   6.706  15.998 -2.7106  1.8825 -0.7407
14851TIP3    H265969   3.791   6.633  15.897 -0.1195 -1.4430 -0.6692
14852TIP3   OH265970   0.157   3.113  14.425  0.5129  0.6306  0.6848
14852TIP3    H165971   0.110   3.145  14.503 -3.6075 -0.7992 -0.9364
14852TIP3    H265972   0.133   3.174  14.356  0.8071 -0.3347 -0.2882
14853TIP3   OH265973   5.387   4.738  11.400 -0.0742  0.6230 -0.3108
14853TIP3    H165974   5.322   4.729  11.470 -0.2483  0.0817 -0.5326
14853TIP3    H265975   5.340   4.784  11.330 -0.9601 -1.7100 -1.3523
14854TIP3   OH265976   4.512   1.532   4.919  0.3859 -0.1447 -0.6149
14854TIP3    H165977   4.416   1.536   4.923  0.3380 -0.6114 -1.1164
14854TIP3    H265978   4.533   1.446   4.954  0.6777  0.2527  0.2051
14855TIP3   OH265979   4.703   1.375  16.933  0.6400 -0.1743 -0.0974
14855TIP3    H165980   4.632   1.431  16.966 -0.0119 -1.2179  0.3607
14855TIP3    H265981   4.770   1.379  17.001  0.2020 -0.6437  0.3809
14856TIP3   OH265982   5.082   4.007   5.653 -0.2964 -0.3090 -0.2629
14856TIP3    H165983   5.076   4.009   5.557  1.1625  0.2914 -0.3777
14856TIP3    H265984   5.150   3.942   5.671  1.2233  1.2954  0.1945
14857TIP3   OH265985   0.597   2.935   3.736 -0.2696  0.7395  0.1113
14857TIP3    H165986   0.690   2.915   3.734 -0.8303 -4.0967  3.8005
14857TIP3    H265987   0.592   3.030   3.746  4.0323  1.4036 -2.0912
14858TIP3   OH265988   0.996   2.840  10.408 -0.1638  0.7811 -0.1633
14858TIP3    H165989   1.079   2.877  10.379 -0.8190  0.9402 -1.9737
14858TIP3    H265990   0.931   2.877  10.348 -1.1376 -1.6470 -0.7139
14859TIP3   OH265991   5.950   3.935  16.672 -0.2766  0.1433  0.2776
14859TIP3    H165992   5.974   3.936  16.579 -2.0166 -2.9850 -0.3753
14859TIP3    H265993   5.875   3.993  16.678 -0.9856 -0.6309 -0.6325
14860TIP3   OH265994   1.879   3.386  15.253 -0.0502  0.0509 -0.2717
14860TIP3    H165995   1.965   3.347  15.240  0.0556 -0.3265  1.3699
14860TIP3    H265996   1.819   3.312  15.254 -0.0322  0.0207  1.3250
14861TIP3   OH265997   2.404   6.510  14.514 -0.2624 -0.9643  0.1832
14861TIP3    H165998   2.489   6.475  14.486 -0.5310 -1.7508  0.3242
14861TIP3    H265999   2.367   6.550  14.436  0.9762  0.9527  0.4972
14862TIP3   OH266000   0.226   1.709  16.936 -0.0354 -0.0181  0.2094
14862TIP3    H166001   0.288   1.781  16.924  0.9469 -0.9784 -0.7484
14862TIP3    H266002   0.140   1.750  16.932  0.5120  1.1678  0.2278
14863TIP3   OH266003   4.539   3.864   4.772 -0.4338 -0.3823  0.8588
14863TIP3    H166004   4.573   3.823   4.693 -0.2927 -0.0665  0.7522
14863TIP3    H266005   4.444   3.870   4.758 -0.1872  1.8444 -0.3563
14864TIP3   OH266006   1.396   6.154  15.829  0.3033 -0.2499 -0.4957
14864TIP3    H166007   1.423   6.245  15.838  0.2816 -0.2485 -0.4440
14864TIP3    H266008   1.313   6.148  15.876  1.5427 -0.8888  1.7895
14865TIP3   OH266009   5.956   3.667   4.545 -0.3642 -0.0333 -0.0252
14865TIP3    H166010   5.968   3.675   4.640 -1.4009  1.0521  0.0341
14865TIP3    H266011   5.866   3.695   4.529 -0.9678 -2.3316 -1.1048
14866TIP3   OH266012   0.804   2.865   0.587 -0.0670 -0.3341  0.7483
14866TIP3    H166013   0.752   2.871   0.507  0.0412  0.3653  0.7215
14866TIP3    H266014   0.742   2.886   0.657 -0.2882 -1.4592  0.9084
14867TIP3   OH266015   1.215   3.182   1.139  0.3381  0.5996 -0.6736
14867TIP3    H166016   1.215   3.194   1.234  1.7595 -1.3441 -0.3768
14867TIP3    H266017   1.301   3.212   1.111  1.1282 -1.6590 -0.8707
14868TIP3   OH266018   2.617   2.051   6.405 -0.6862  0.2582 -0.9267
14868TIP3    H166019   2.584   1.985   6.343  0.1133 -2.8498  1.6867
14868TIP3    H266020   2.691   2.091   6.360 -1.3978 -0.3600 -2.7432
14869TIP3   OH266021   0.630   2.432   5.410 -0.4671  0.3155  0.2948
14869TIP3    H166022   0.601   2.342   5.396  1.4472 -0.1045 -1.4109
14869TIP3    H266023   0.689   2.427   5.485  0.8611 -0.1811 -0.7499
14870TIP3   OH266024   0.243   3.205  16.879  0.0926  0.0194 -0.1143
14870TIP3    H166025   0.315   3.248  16.833 -0.8081 -0.3282 -1.9768
14870TIP3    H266026   0.170   3.208  16.816 -1.3236 -0.2151  1.4466
14871TIP3   OH266027   0.410   3.401  16.090  0.7285 -0.4088  0.3455
14871TIP3    H166028   0.415   3.361  16.176  0.9052 -0.5546  0.2678
14871TIP3    H266029   0.368   3.335  16.035  0.8228 -0.4053  0.2684
14872TIP3   OH266030   1.313   5.694   1.275  0.2145  0.2188 -0.0182
14872TIP3    H166031   1.239   5.754   1.262  0.9390  1.0269 -0.5993
14872TIP3    H266032   1.299   5.625   1.211  0.3114  0.7316 -0.6043
14873TIP3   OH266033   1.876   3.775   1.170  0.1041 -0.1811 -0.5775
14873TIP3    H166034   1.830   3.858   1.184  0.8169 -0.0497  1.3056
14873TIP3    H266035   1.917   3.784   1.084 -2.1285  0.2515 -1.6889
14874TIP3   OH266036   2.868   5.393  13.066 -0.6107  0.4907  0.6972
14874TIP3    H166037   2.897   5.412  13.156 -0.2026 -1.5485  1.0272
14874TIP3    H266038   2.938   5.341  13.028 -2.0360 -1.1219  0.1663
14875TIP3   OH266039   1.613   1.698   3.595  0.8645 -0.1345  0.0548
14875TIP3    H166040   1.664   1.776   3.572  0.1023  0.9630  1.8441
14875TIP3    H266041   1.667   1.651   3.658  1.5800 -1.4300 -1.4591
14876TIP3   OH266042   1.940   2.079   3.639  0.1577  0.7643  0.5051
14876TIP3    H166043   1.930   1.984   3.636 -1.5328  0.9128 -0.5239
14876TIP3    H266044   1.973   2.098   3.726  0.2799 -0.7543  0.8067
14877TIP3   OH266045   5.040   4.954  15.694  0.4936 -0.2990  0.0729
14877TIP3    H166046   5.108   4.915  15.639 -0.8330 -1.3086 -0.9249
14877TIP3    H266047   5.043   5.047  15.674  0.3384 -0.5845 -1.4102
14878TIP3   OH266048   6.019   4.092  11.898  0.4499  0.5200 -0.8857
14878TIP3    H166049   5.948   4.148  11.928  1.0742  0.9083 -0.0885
14878TIP3    H266050   6.041   4.125  11.811 -0.1223  0.6019 -1.0035
14879TIP3   OH266051   3.072   5.778   1.478 -0.2106  0.2448  0.6074
14879TIP3    H166052   2.982   5.810   1.472 -0.5407 -0.8712 -1.7152
14879TIP3    H266053   3.067   5.688   1.445  1.7258  0.0967  0.6400
14880TIP3   OH266054   6.530   4.601   1.042  0.0280  0.4103  0.0745
14880TIP3    H166055   6.554   4.569   0.955  0.5574  1.3417 -0.1387
14880TIP3    H266056   6.493   4.688   1.026  0.3987  0.7075  0.7951
14881TIP3   OH266057   3.841   0.916  16.276  0.4021 -0.9166 -0.3545
14881TIP3    H166058   3.891   0.971  16.215  1.0141 -1.3823 -0.2826
14881TIP3    H266059   3.812   0.976  16.344  0.8601 -0.6343 -0.4046
14882TIP3   OH266060   6.445   0.536  11.074  0.3838  0.3157  0.3917
14882TIP3    H166061   6.481   0.624  11.065  1.8551 -0.1265  1.5570
14882TIP3    H266062   6.351   0.549  11.085  0.6131  1.7552  0.8274
14883TIP3   OH266063   3.906   2.369  15.558 -0.4901 -0.5542  0.1809
14883TIP3    H166064   3.998   2.352  15.535 -0.7406 -0.0914 -1.2642
14883TIP3    H266065   3.863   2.284  15.550  0.0137 -1.0182  2.0230
14884TIP3   OH266066   5.383   3.215  13.967 -0.7841 -0.1646 -0.2162
14884TIP3    H166067   5.362   3.276  14.037  0.5276  1.2034 -0.9308
14884TIP3    H266068   5.444   3.264  13.911  2.6960 -3.0009  0.6765
14885TIP3   OH266069   4.581   4.910  14.830  0.5559 -0.1256 -0.2754
14885TIP3    H166070   4.619   4.931  14.745  0.5458  1.6832  0.1172
14885TIP3    H266071   4.499   4.864  14.809  0.3496  0.6599 -1.2718
14886TIP3   OH266072   1.722   3.411   0.352 -0.4990 -0.0555  0.2639
14886TIP3    H166073   1.798   3.353   0.344 -0.8903 -0.6692  0.8219
14886TIP3    H266074   1.687   3.419   0.263  0.6469  0.8416 -0.1210
14887TIP3   OH266075   0.371   3.079   2.493  0.7713 -0.0990 -0.5341
14887TIP3    H166076   0.276   3.094   2.492  0.6934 -0.5799 -0.4393
14887TIP3    H266077   0.386   3.018   2.421  0.7292 -1.6589  0.7223
14888TIP3   OH266078   1.249   5.589  13.260 -0.3715  0.2414 -0.9259
14888TIP3    H166079   1.303   5.609  13.183  0.3852 -0.1722 -0.5082
14888TIP3    H266080   1.255   5.667  13.314  0.7657 -0.2326 -0.3403
14889TIP3   OH266081   1.811   4.426   5.113  0.6405 -0.3559  0.0480
14889TIP3    H166082   1.864   4.438   5.192  0.3214 -0.6129  0.3037
14889TIP3    H266083   1.754   4.503   5.111  0.5358 -0.4310  0.1560
14890TIP3   OH266084   2.795   6.202   2.346  0.1602  0.1716 -0.3695
14890TIP3    H166085   2.838   6.247   2.274  0.2867 -2.1911 -1.8830
14890TIP3    H266086   2.843   6.121   2.356 -1.9002 -1.0785  0.0974
14891TIP3   OH266087   4.989   6.388   4.207  0.6190 -0.0640  0.7320
14891TIP3    H166088   5.033   6.420   4.285  1.3104  1.5260 -0.2400
14891TIP3    H266089   5.012   6.452   4.139  0.6384 -1.7646 -0.9512
14892TIP3   OH266090   6.226   2.824  16.360 -0.2565  0.3070  0.0741
14892TIP3    H166091   6.278   2.754  16.398 -1.3741  0.1616  1.4350
14892TIP3    H266092   6.284   2.900  16.361  0.2156 -0.0482  0.7627
14893TIP3   OH266093   6.165   0.820   0.547  0.4383  0.4786  0.1194
14893TIP3    H166094   6.144   0.899   0.497  1.0360  0.4892 -0.1326
14893TIP3    H266095   6.173   0.850   0.637 -1.1790  0.3640  0.3237
14894TIP3   OH266096   2.503   2.588   2.851  0.2697  0.5222  0.6203
14894TIP3    H166097   2.494   2.526   2.778  1.4548  0.8228  0.1920
14894TIP3    H266098   2.551   2.662   2.813 -0.7029  1.4997  1.2465
14895TIP3   OH266099   6.582   3.107  13.506  0.0092 -0.3201  0.0447
14895TIP3    H166100   6.492   3.104  13.472 -0.0301  1.1671 -0.0601
14895TIP3    H266101   6.591   3.195  13.541  1.0394 -0.8628  1.2006
14896TIP3   OH266102   1.196   0.307  15.152 -0.0910  0.9721  0.4266
14896TIP3    H166103   1.203   0.328  15.059  0.8321 -0.1483  0.2280
14896TIP3    H266104   1.105   0.277  15.163 -0.0152  0.4550 -0.2636
14897TIP3   OH266105   2.335   1.524  14.536  0.3852  0.3688  0.6988
14897TIP3    H166106   2.320   1.447  14.591  0.2093 -0.3895 -0.3840
14897TIP3    H266107   2.311   1.496  14.448  1.1062  1.4109  0.1476
14898TIP3   OH266108   3.610   1.488  15.592  0.1298  0.2375  0.3325
14898TIP3    H166109   3.529   1.539  15.596  0.7345  1.1263  1.9682
14898TIP3    H266110   3.678   1.547  15.624  0.8703 -1.4920  2.2194
14899TIP3   OH266111   2.165   0.354   4.835 -0.0435  0.1139  0.9304
14899TIP3    H166112   2.118   0.340   4.917 -1.8350 -0.8556 -0.2099
14899TIP3    H266113   2.121   0.298   4.771  1.8357  0.1871 -0.5335
14900TIP3   OH266114   5.644   1.944  13.660  0.0960  0.1160  0.4540
14900TIP3    H166115   5.642   1.968  13.753  0.9263  0.2189  0.4493
14900TIP3    H266116   5.729   1.903  13.648  1.1821  2.5389 -0.8497
14901TIP3   OH266117   5.941   2.868  12.187  0.2713 -0.1821 -0.5613
14901TIP3    H166118   5.967   2.776  12.188 -1.1675 -0.6516 -2.1149
14901TIP3    H266119   5.983   2.905  12.110  0.7215  0.4508 -0.0268
14902TIP3   OH266120   0.671   5.292   4.409 -0.0890  0.6159  0.2345
14902TIP3    H166121   0.710   5.245   4.335  0.8621  1.3721  0.2440
14902TIP3    H266122   0.736   5.286   4.479 -1.2260 -0.6016  1.2440
14903TIP3   OH266123   0.723   6.541   4.184 -0.1287 -0.2370  0.0046
14903TIP3    H166124   0.810   6.504   4.194  0.0809  0.2369 -0.0226
14903TIP3    H266125   0.672   6.504   4.256  0.0952 -0.5132  0.0205
14904TIP3   OH266126   5.274   4.476  15.162  0.5311 -0.6458 -0.2947
14904TIP3    H166127   5.362   4.440  15.169  1.0576  0.2472 -1.8001
14904TIP3    H266128   5.272   4.517  15.075  0.1872  3.4138  1.3829
14905TIP3   OH266129   2.726   5.360   5.948 -0.0850  0.3120  0.5140
14905TIP3    H166130   2.645   5.411   5.955 -0.0962  0.3060  0.4200
14905TIP3    H266131   2.765   5.386   5.865 -0.1186  0.1290  0.4392
14906TIP3   OH266132   0.713   4.906   3.676 -0.1175 -0.1000  0.2718
14906TIP3    H166133   0.672   4.821   3.660 -1.2538  0.8029 -2.2736
14906TIP3    H266134   0.775   4.917   3.604 -0.1133  1.2791  0.4505
14907TIP3   OH266135   4.465   0.969   3.901 -0.1365 -0.1322 -0.2050
14907TIP3    H166136   4.425   0.908   3.963 -1.7061  0.0983 -0.9458
14907TIP3    H266137   4.559   0.954   3.910 -0.4615 -2.3196 -0.0436
14908TIP3   OH266138   0.743   1.622  15.940  0.0344 -0.3156 -0.1982
14908TIP3    H166139   0.820   1.571  15.915 -0.3517 -0.3310 -1.3989
14908TIP3    H266140   0.721   1.591  16.028  1.2940 -0.4278  0.0858
14909TIP3   OH266141   5.566   4.548   4.960  0.2306 -0.2699 -0.0003
14909TIP3    H166142   5.510   4.602   4.905 -1.4254  1.0774  2.7582
14909TIP3    H266143   5.506   4.506   5.022  1.9890 -1.3197  1.0995
14910TIP3   OH266144   6.394   2.748  14.341  0.0316 -0.0395  0.2588
14910TIP3    H166145   6.368   2.837  14.319  0.0855 -0.2012 -0.5034
14910TIP3    H266146   6.320   2.694  14.314  0.7437 -0.4054 -1.0677
14911TIP3   OH266147   2.221   0.281   0.318  0.2199 -0.7201 -0.2640
14911TIP3    H166148   2.192   0.357   0.268  0.5889 -1.4861 -1.6898
14911TIP3    H266149   2.141   0.247   0.359 -0.4917 -1.2537 -2.0028
14912TIP3   OH266150   0.058   2.724  12.437  0.0899  0.2211 -0.0286
14912TIP3    H166151   0.080   2.680  12.519  0.4248  1.1162  0.3775
14912TIP3    H266152   0.006   2.799  12.464 -1.1769 -0.3590 -0.7770
14913TIP3   OH266153   2.508   6.013   5.101 -0.2719  0.9119 -0.3322
14913TIP3    H166154   2.550   5.930   5.124  0.6503  0.9765 -1.6883
14913TIP3    H266155   2.486   6.053   5.186  1.3261  0.3195  0.3898
14914TIP3   OH266156   3.956   6.359   6.011 -0.0635 -0.3626 -0.3380
14914TIP3    H166157   3.999   6.330   6.092 -1.1875  0.0672  0.4366
14914TIP3    H266158   3.898   6.430   6.039 -1.1925 -0.8511 -1.3660
14915TIP3   OH266159   1.249   1.162   4.383  0.0044 -0.2390 -0.4803
14915TIP3    H166160   1.173   1.154   4.441  1.1051  1.1741  1.2316
14915TIP3    H266161   1.291   1.076   4.386 -1.6004 -1.1223 -1.6489
14916TIP3   OH266162   4.741   5.483   5.482 -0.1569  0.0135  0.0207
14916TIP3    H166163   4.763   5.478   5.389 -1.9255 -1.0399 -0.3877
14916TIP3    H266164   4.794   5.415   5.523  1.8213  1.5101  0.1013
14917TIP3   OH266165   1.383   4.501  12.711  0.5777 -0.0754  0.0706
14917TIP3    H166166   1.391   4.477  12.618  1.2608 -0.6895  0.2726
14917TIP3    H266167   1.289   4.506  12.726  0.4419 -0.6492 -0.5015
14918TIP3   OH266168   6.546   2.147  15.246  0.2058 -0.1712 -0.3944
14918TIP3    H166169   6.614   2.084  15.223 -0.8402 -1.0927 -1.0740
14918TIP3    H266170   6.532   2.134  15.340 -0.2850 -1.2684 -0.6026
14919TIP3   OH266171   5.185   5.555   0.675  0.0742 -0.7527  0.5872
14919TIP3    H166172   5.189   5.473   0.725  1.3138 -0.2919  1.2909
14919TIP3    H266173   5.187   5.624   0.741  0.2004 -0.1438 -0.0418
14920TIP3   OH266174   5.225   4.510   2.906  0.1494  0.1209  0.1551
14920TIP3    H166175   5.215   4.446   2.835 -0.4692  3.3488 -2.9540
14920TIP3    H266176   5.154   4.489   2.966  0.2823 -2.3756 -0.4316
14921TIP3   OH266177   0.029   1.784  12.451 -0.0271  0.0149 -0.2266
14921TIP3    H166178  -0.040   1.849  12.462  1.9163  1.8291  2.2194
14921TIP3    H266179   0.106   1.835  12.426  1.3257 -1.4678  0.7460
14922TIP3   OH266180   0.613   4.237  15.776  0.3188 -0.4807  0.5485
14922TIP3    H166181   0.539   4.177  15.772  0.6850 -0.8469 -1.2329
14922TIP3    H266182   0.577   4.316  15.816 -0.6338 -1.1974  1.1473
14923TIP3   OH266183   1.650   1.522   2.245 -0.5737 -0.5250  0.2544
14923TIP3    H166184   1.665   1.491   2.334 -0.9536 -0.5706  0.3034
14923TIP3    H266185   1.658   1.618   2.251 -1.2815 -0.4747  0.4760
14924TIP3   OH266186   3.796   0.521   2.055 -0.3882  0.8523  0.3923
14924TIP3    H166187   3.718   0.471   2.029 -0.0188  0.2617  0.3985
14924TIP3    H266188   3.766   0.612   2.058 -1.3833  0.5076  1.5535
14925TIP3   OH266189   1.886   0.949   2.383  0.7528  0.3739  0.4652
14925TIP3    H166190   1.869   1.021   2.321  0.4800  0.1689  0.3010
14925TIP3    H266191   1.977   0.962   2.409  1.0725  0.1012 -0.4654
14926TIP3   OH266192   2.433   2.063   1.769 -0.1665 -0.1157  0.3668
14926TIP3    H166193   2.494   2.104   1.708  0.9793 -0.5948  1.1489
14926TIP3    H266194   2.415   1.977   1.730 -0.8103  0.2354 -0.1431
14927TIP3   OH266195   6.703   3.348  13.630  0.0693  0.0264 -0.3614
14927TIP3    H166196   6.638   3.418  13.635 -0.0850 -0.2268  2.8186
14927TIP3    H266197   6.787   3.393  13.624 -0.1899  0.3509 -3.0391
14928TIP3   OH266198   6.240   1.966   5.901  0.4653 -0.5120  0.0285
14928TIP3    H166199   6.227   1.948   5.808  1.7964 -1.5940  0.0200
14928TIP3    H266200   6.204   1.889   5.946 -1.1030  0.4519  0.5017
14929TIP3   OH266201   3.152   6.019   2.886 -0.0298 -0.3517  0.0868
14929TIP3    H166202   3.198   6.032   2.969  1.7392 -1.5964 -0.6208
14929TIP3    H266203   3.065   6.055   2.901  0.5342  0.3272  2.1591
14930TIP3   OH266204   5.579   6.334  12.062 -0.4032  0.0352 -0.3388
14930TIP3    H166205   5.519   6.328  11.988  1.7565  1.5396 -2.3611
14930TIP3    H266206   5.632   6.254  12.057  0.9117  0.9276 -1.6135
14931TIP3   OH266207   2.733   4.975   0.359  0.4134  0.1967  0.4375
14931TIP3    H166208   2.727   4.908   0.291  1.1755  1.5228 -0.9971
14931TIP3    H266209   2.680   4.941   0.431 -1.7420 -0.5788 -1.3913
14932TIP3   OH266210   5.939   5.782  13.606 -0.4249  0.2765 -0.3129
14932TIP3    H166211   5.920   5.762  13.698 -0.4414  1.8943  0.0742
14932TIP3    H266212   6.032   5.762  13.595 -0.1517  1.0895  0.3816
14933TIP3   OH266213   0.967   5.616  13.247  0.0790  0.2951 -0.2348
14933TIP3    H166214   0.934   5.561  13.176 -1.2599  1.0551 -0.2343
14933TIP3    H266215   1.054   5.580  13.267  0.5684  0.1659 -2.3450
14934TIP3   OH266216   5.644   0.256  13.280 -0.1888  1.0510  0.4222
14934TIP3    H166217   5.699   0.334  13.287 -1.6028  2.1368 -0.0093
14934TIP3    H266218   5.591   0.272  13.202 -1.0639  0.0165  0.7832
14935TIP3   OH266219   4.459   6.483  14.049  0.4307  0.1163  0.0660
14935TIP3    H166220   4.448   6.389  14.040 -0.9196 -0.0172  2.4499
14935TIP3    H266221   4.553   6.495  14.066  0.2901 -1.0812  2.0216
14936TIP3   OH266222   4.808   0.305  16.621  0.6410  0.5990 -0.2846
14936TIP3    H166223   4.844   0.319  16.709  0.5552 -0.6931 -0.0292
14936TIP3    H266224   4.729   0.254  16.636  1.5413 -1.1598 -1.2028
14937TIP3   OH266225   0.103   3.994  12.858  0.3088  0.3824  0.7667
14937TIP3    H166226   0.108   3.982  12.763  1.6087  0.7879  0.7638
14937TIP3    H266227   0.010   4.005  12.876 -0.0892 -0.8855 -0.3032
14938TIP3   OH266228   6.722   3.225  15.524  0.7157  0.2046 -0.3967
14938TIP3    H166229   6.699   3.213  15.433  0.7817 -1.2128 -0.2468
14938TIP3    H266230   6.644   3.200  15.573  0.8594  0.4109 -0.0551
14939TIP3   OH266231   2.358   2.152  12.357 -0.1943 -0.5130  0.5592
14939TIP3    H166232   2.398   2.220  12.411 -1.4864 -0.4158  1.4264
14939TIP3    H266233   2.376   2.179  12.267  0.4190  0.2858  0.9081
14940TIP3   OH266234   4.454   3.456   4.368 -0.1528  0.0161  0.6097
14940TIP3    H166235   4.421   3.404   4.441 -0.3696  0.2771  0.7017
14940TIP3    H266236   4.457   3.395   4.294 -0.5159 -0.1017  0.6884
14941TIP3   OH266237   0.550   0.987   1.920  0.1927  0.6951  0.4835
14941TIP3    H166238   0.494   1.050   1.876  1.7408  0.8393 -1.4002
14941TIP3    H266239   0.567   0.919   1.855  3.4488  1.4638  0.3494
14942TIP3   OH266240   1.879   1.855  13.929 -0.2122 -0.1203  0.0957
14942TIP3    H166241   1.847   1.776  13.973 -2.4318 -0.0754 -1.2899
14942TIP3    H266242   1.958   1.827  13.883 -1.0491 -1.5867 -0.4987
14943TIP3   OH266243   2.981   5.277   4.297  0.0926 -0.3075 -0.1029
14943TIP3    H166244   3.018   5.361   4.325  1.7019 -0.7653 -0.7574
14943TIP3    H266245   2.914   5.301   4.233 -0.4309  0.5122  0.7103
14944TIP3   OH266246   5.337   6.012  11.815 -0.0418  0.3746 -0.4520
14944TIP3    H166247   5.363   5.955  11.742  0.5175  1.9887 -1.5858
14944TIP3    H266248   5.359   5.962  11.893 -0.2048 -1.2282 -1.3851
14945TIP3   OH266249   3.508   2.712  12.469  0.1668 -0.0870  0.3126
14945TIP3    H166250   3.433   2.769  12.486 -0.1779 -0.4377 -0.0214
14945TIP3    H266251   3.515   2.658  12.547  0.6658  0.5938  0.7495
14946TIP3   OH266252   6.316   6.231   4.256  0.8241 -0.0820 -0.0045
14946TIP3    H166253   6.237   6.237   4.308  1.0238  1.0692  0.1717
14946TIP3    H266254   6.309   6.301   4.192  1.4397 -0.3276 -0.3567
14947TIP3   OH266255   6.688   5.755  16.135 -0.6225  0.1922 -0.0254
14947TIP3    H166256   6.649   5.725  16.053 -0.6524  0.6873 -0.1927
14947TIP3    H266257   6.707   5.848  16.121 -1.6664  0.5633  0.9220
14948TIP3   OH266258   0.408   3.905  13.937  0.6628 -0.1646 -0.2935
14948TIP3    H166259   0.390   3.812  13.922 -0.2974  0.0068 -0.2988
14948TIP3    H266260   0.329   3.938  13.981  0.7099  0.7819 -0.8747
14949TIP3   OH266261   4.568   0.190  16.585 -0.7011 -0.1405  0.0723
14949TIP3    H166262   4.538   0.168  16.673  1.1939  0.9152  1.0288
14949TIP3    H266263   4.602   0.108  16.549  0.4713 -0.1592  1.1674
14950TIP3   OH266264   0.722   1.784  15.676  0.1144  0.3111  0.2795
14950TIP3    H166265   0.713   1.795  15.771 -0.1958  1.6991  0.1129
14950TIP3    H266266   0.809   1.819  15.656  1.5103 -2.7327  0.3932
14951TIP3   OH266267   3.789   2.000  15.157 -0.3273 -0.3165 -0.0241
14951TIP3    H166268   3.872   2.034  15.125 -1.0668  0.9408 -0.6488
14951TIP3    H266269   3.744   1.967  15.079 -0.9393  0.1524  0.1261
14952TIP3   OH266270   4.663   0.626  17.030  0.4076  0.2090 -0.8518
14952TIP3    H166271   4.639   0.707  16.984 -0.8978  0.5220  0.3174
14952TIP3    H266272   4.586   0.570  17.021  0.9178 -0.5104 -0.7746
14953TIP3   OH266273   2.769   0.332   3.019 -0.0994  0.0016 -0.1817
14953TIP3    H166274   2.693   0.383   3.046  0.0776  0.6485 -0.8766
14953TIP3    H266275   2.814   0.310   3.101  0.0612  1.3463  0.1087
14954TIP3   OH266276   1.013   3.485   3.063  0.3374  0.7188 -0.1421
14954TIP3    H166277   1.088   3.516   3.112  0.0219  1.1061  0.0964
14954TIP3    H266278   0.937   3.506   3.117  0.0655  0.1434 -0.2826
14955TIP3   OH266279   1.386   4.089   0.674 -0.1229 -0.3250  1.1343
14955TIP3    H166280   1.436   4.168   0.652  0.2163 -0.9824 -0.6241
14955TIP3    H266281   1.364   4.100   0.766 -0.1473  1.8532  0.9248
14956TIP3   OH266282   1.514   4.525   0.254 -0.0489  0.3474  0.4784
14956TIP3    H166283   1.497   4.561   0.167 -0.4478  0.7805  0.7340
14956TIP3    H266284   1.542   4.600   0.306  0.9840 -0.0487  0.5211
14957TIP3   OH266285   5.637   1.247   1.808  0.6505 -0.1278 -0.1838
14957TIP3    H166286   5.589   1.329   1.797  1.4269  0.1224 -2.1337
14957TIP3    H266287   5.590   1.201   1.878 -1.4760  0.7653 -0.9427
14958TIP3   OH266288   2.116   3.158   2.250 -0.5125  0.2358 -0.2923
14958TIP3    H166289   2.209   3.140   2.260 -0.6340 -1.0270 -1.1807
14958TIP3    H266290   2.089   3.104   2.176 -1.2823  3.0201 -2.1960
14959TIP3   OH266291   4.034   0.525   5.449 -0.0002  0.0464 -0.1460
14959TIP3    H166292   4.076   0.601   5.487  1.0757 -0.2752 -0.6744
14959TIP3    H266293   4.063   0.451   5.504 -0.7343 -0.0465  0.1354
14960TIP3   OH266294   5.411   1.679   1.351 -0.5985  0.5989  0.2345
14960TIP3    H166295   5.373   1.751   1.402 -0.2910 -0.4989  2.0804
14960TIP3    H266296   5.347   1.608   1.359 -1.3829  0.8815 -2.3860
14961TIP3   OH266297   4.810   5.742  15.004  0.1327  0.1927  0.4815
14961TIP3    H166298   4.730   5.753  15.056  0.4361  1.9468  0.6109
14961TIP3    H266299   4.860   5.675  15.051 -0.2142  0.7605  1.6950
14962TIP3   OH266300   0.302   2.367  11.887  0.0219  0.0493 -0.0291
14962TIP3    H166301   0.262   2.289  11.924 -0.2733  0.4127  0.4377
14962TIP3    H266302   0.363   2.397  11.955 -0.2432  0.5087  0.0154
14963TIP3   OH266303   4.167   3.741   5.445 -0.4437  0.0977  0.2426
14963TIP3    H166304   4.104   3.699   5.504 -0.5063 -1.2220 -0.7070
14963TIP3    H266305   4.114   3.782   5.377 -0.3208  0.0994  0.1457
14964TIP3   OH266306   2.530   1.017  14.391  0.5830  0.3892 -0.1074
14964TIP3    H166307   2.568   0.987  14.308 -0.2530 -0.4946 -0.1829
14964TIP3    H266308   2.460   1.077  14.364 -0.3832 -0.7017 -0.0991
14965TIP3   OH266309   1.071   6.654  12.919  0.4046 -0.6737 -0.0476
14965TIP3    H166310   1.063   6.559  12.917 -1.4661 -0.5584  0.2700
14965TIP3    H266311   1.008   6.683  12.986  0.5654  0.8204 -0.4916
14966TIP3   OH266312   5.849   1.693   6.612 -0.3520  0.1073 -0.0699
14966TIP3    H166313   5.852   1.656   6.700 -0.8204 -0.4546 -0.2843
14966TIP3    H266314   5.935   1.733   6.600  0.3868 -1.4206 -0.0508
14967TIP3   OH266315   4.816   0.086  12.119 -0.1168 -0.0962  0.1934
14967TIP3    H166316   4.906   0.117  12.120 -0.1517  0.0255 -0.3300
14967TIP3    H266317   4.787   0.096  12.028 -1.2339  1.5903  0.6728
14968TIP3   OH266318   6.025   6.117  10.631 -0.3302 -0.7887 -0.4007
14968TIP3    H166319   5.931   6.102  10.642 -0.6256  0.3558 -1.1673
14968TIP3    H266320   6.033   6.213  10.628  0.4544 -0.8440 -3.4336
14969TIP3   OH266321   4.618   0.792  15.989 -0.4374 -0.2219  0.2923
14969TIP3    H166322   4.676   0.766  16.060 -0.7685 -2.1374 -0.0843
14969TIP3    H266323   4.603   0.885  16.003  0.2675 -0.3487  2.1604
14970TIP3   OH266324   1.371   6.276   0.276  0.5036 -0.7643  0.2051
14970TIP3    H166325   1.289   6.308   0.237 -0.2502 -1.8052  0.8808
14970TIP3    H266326   1.410   6.223   0.207  0.3088 -0.7425  0.0749
14971TIP3   OH266327   5.978   4.565  13.618 -0.0163 -0.1485 -0.3275
14971TIP3    H166328   5.900   4.617  13.597 -1.0034 -1.6833 -0.6018
14971TIP3    H266329   5.995   4.584  13.710 -1.9593 -1.3024  0.3283
14972TIP3   OH266330   3.771   3.867   1.663  0.5037  0.4895  0.3412
14972TIP3    H166331   3.729   3.917   1.733  1.7492  0.8046  0.8736
14972TIP3    H266332   3.768   3.926   1.587  0.7648  0.8558  0.6107
14973TIP3   OH266333   6.357   1.290   2.989  0.2191  0.0693  0.0496
14973TIP3    H166334   6.278   1.299   3.042 -0.1810  0.5396 -0.6139
14973TIP3    H266335   6.325   1.276   2.900  0.8847  0.3639 -0.2415
14974TIP3   OH266336   1.255   4.831   3.164 -0.5821 -0.3775  0.2070
14974TIP3    H166337   1.275   4.853   3.073 -2.1563 -1.0599 -0.3156
14974TIP3    H266338   1.325   4.771   3.190 -0.6499 -0.9286 -0.8525
14975TIP3   OH266339   1.590   4.287   4.363  0.0272  0.3943 -0.5696
14975TIP3    H166340   1.602   4.192   4.369  1.8426  0.5517 -0.9977
14975TIP3    H266341   1.624   4.310   4.277  1.1009  1.5921  0.1338
14976TIP3   OH266342   3.800   6.077  15.847  0.1745  0.2769  0.0566
14976TIP3    H166343   3.778   6.006  15.908 -0.2842  1.2150  1.0104
14976TIP3    H266344   3.812   6.033  15.763 -2.1486 -0.7325  0.1551
14977TIP3   OH266345   2.914   2.964  13.270 -0.1881 -0.2611  0.3252
14977TIP3    H166346   2.931   3.058  13.269  0.9337 -0.4585 -0.1053
14977TIP3    H266347   2.997   2.924  13.297 -0.1552 -1.2203 -1.0856
14978TIP3   OH266348   1.013   3.910   3.518 -0.0651  0.2266 -0.0239
14978TIP3    H166349   0.917   3.902   3.516 -0.1658  0.7717  1.4637
14978TIP3    H266350   1.029   4.003   3.502  0.0008  0.8043  2.8789
14979TIP3   OH266351   1.300   6.731   6.654 -0.3860  0.0612  0.4290
14979TIP3    H166352   1.317   6.824   6.666  1.1810 -0.2686  0.9108
14979TIP3    H266353   1.208   6.727   6.626 -1.0377  1.6031  2.1714
14980TIP3   OH266354   5.194   0.557   0.746  0.1169  0.3280 -0.0382
14980TIP3    H166355   5.136   0.532   0.674 -0.4695 -0.5250  0.6969
14980TIP3    H266356   5.255   0.620   0.708 -2.5692  2.9294 -0.3847
14981TIP3   OH266357   3.389   3.285   1.165 -0.2835 -0.8867  0.2260
14981TIP3    H166358   3.348   3.369   1.143  2.8930  0.5002 -0.9659
14981TIP3    H266359   3.348   3.223   1.105  0.0242  0.6284 -1.6840
14982TIP3   OH266360   5.250   6.185  15.041 -0.0561  0.0109 -0.2374
14982TIP3    H166361   5.158   6.161  15.040  0.2682 -1.3068  0.1889
14982TIP3    H266362   5.290   6.133  14.972  0.2093  1.3807 -1.1676
14983TIP3   OH266363   1.397   0.932   4.452  0.5455 -0.1440  0.4016
14983TIP3    H166364   1.475   0.913   4.399  0.9468 -0.3811  1.0651
14983TIP3    H266365   1.431   0.970   4.533 -0.0239 -0.3329  0.7373
14984TIP3   OH266366   4.467   6.299  15.235  0.0340 -0.4037 -0.3900
14984TIP3    H166367   4.400   6.314  15.167 -0.1221 -0.1032 -0.1706
14984TIP3    H266368   4.427   6.236  15.294 -0.7532  1.0626  0.6981
14985TIP3   OH266369   2.976   4.622   2.550 -0.0150  0.2764 -0.6297
14985TIP3    H166370   2.977   4.702   2.603  1.9227 -0.2119  0.1572
14985TIP3    H266371   2.890   4.584   2.565  0.0010  0.8566  1.0872
14986TIP3   OH266372   0.127   4.632   3.406 -0.1548  0.2474 -0.4128
14986TIP3    H166373   0.090   4.656   3.321  0.0430 -0.7691 -0.7997
14986TIP3    H266374   0.221   4.624   3.389 -0.4519 -3.5114 -1.0319
14987TIP3   OH266375   1.437   2.409  13.785  0.4196 -0.0395 -0.0450
14987TIP3    H166376   1.498   2.386  13.855 -0.1376 -0.6617  0.2427
14987TIP3    H266377   1.490   2.459  13.723  0.4460  2.5647  1.8712
14988TIP3   OH266378   1.968   4.739   0.792  0.2629 -0.5268  0.1659
14988TIP3    H166379   1.990   4.656   0.833  0.1197  0.6324  2.7562
14988TIP3    H266380   2.016   4.805   0.842 -2.0825  1.2315  0.2723
14989TIP3   OH266381   4.814   6.529  16.117  0.2476 -0.3114  0.7766
14989TIP3    H166382   4.780   6.567  16.036 -1.0381 -0.3138  1.3045
14989TIP3    H266383   4.909   6.531  16.105  0.2899  2.9977  0.7301
14990TIP3   OH266384   6.240   3.854  15.376  0.8754  0.0024 -0.5260
14990TIP3    H166385   6.201   3.882  15.293  1.9632 -0.3919 -1.1910
14990TIP3    H266386   6.308   3.792  15.350 -0.2343 -1.8647  0.7779
14991TIP3   OH266387   1.957   0.280  16.369  0.1803 -0.2466  0.3967
14991TIP3    H166388   1.941   0.258  16.461  1.3217  0.5996  0.8264
14991TIP3    H266389   2.011   0.359  16.373  0.3159 -0.2475 -1.0140
14992TIP3   OH266390   0.744   0.270  12.383  0.2909  0.3598 -0.6552
14992TIP3    H166391   0.771   0.359  12.360 -0.1580  0.3650 -1.1682
14992TIP3    H266392   0.820   0.233  12.429  0.4638  1.0171 -0.3973
14993TIP3   OH266393   4.960   0.472   3.943 -0.1415 -0.2723 -0.6953
14993TIP3    H166394   4.965   0.420   3.863 -2.2453  0.0392 -1.0999
14993TIP3    H266395   5.029   0.538   3.934  0.0822 -0.6539 -1.9366
14994TIP3   OH266396   0.657   0.041  14.946  0.2949  0.1529 -0.4140
14994TIP3    H166397   0.598  -0.006  14.886  0.0215 -1.5048  1.0371
14994TIP3    H266398   0.605   0.115  14.977 -0.7278 -0.7343  0.0905
14995TIP3   OH266399   2.945   0.304  12.881 -0.5605 -0.0255  1.2449
14995TIP3    H166400   3.018   0.365  12.892  0.6126 -1.2153  0.2846
14995TIP3    H266401   2.892   0.343  12.811  0.5233 -0.3721  0.1895
14996TIP3   OH266402   3.137   5.447   4.011 -0.2021  0.2925 -0.0757
14996TIP3    H166403   3.141   5.484   3.923 -0.2820 -1.0122 -0.6548
14996TIP3    H266404   3.046   5.421   4.023 -0.5802  1.9973  1.0811
14997TIP3   OH266405   6.315   2.876  11.063  0.2231  0.4175  0.6874
14997TIP3    H166406   6.375   2.846  10.995  0.5780  3.2699 -0.3887
14997TIP3    H266407   6.235   2.899  11.015 -0.2099  0.6371  1.5053
14998TIP3   OH266408   0.361   3.976  12.676 -0.0498 -0.7037 -0.2128
14998TIP3    H166409   0.322   3.982  12.763  0.3725  3.4425 -0.0922
14998TIP3    H266410   0.287   3.988  12.616  0.1045  0.1755 -0.2418
14999TIP3   OH266411   3.074   2.795   5.663 -0.4873 -0.1109 -0.5128
14999TIP3    H166412   3.085   2.822   5.572 -1.7309  0.3774 -0.5350
14999TIP3    H266413   3.012   2.723   5.660 -0.1201 -0.4501 -0.0947
15000TIP3   OH266414   5.989   3.610  14.655  0.3211 -0.2478  0.1585
15000TIP3    H166415   5.971   3.598  14.562  0.1900  1.0391  0.0033
15000TIP3    H266416   5.917   3.564  14.699  0.4985 -1.0370 -0.3609
15001TIP3   OH266417   2.042   0.487   5.298 -0.4044 -0.3549 -0.8433
15001TIP3    H166418   1.958   0.467   5.256 -1.6267  0.3156  1.1420
15001TIP3    H266419   2.036   0.446   5.384  0.4585  1.4005  0.1062
15002TIP3   OH266420   6.045   1.543  16.712  0.3118 -0.1094 -0.4255
15002TIP3    H166421   6.122   1.563  16.764 -0.8379  1.2560  0.8379
15002TIP3    H266422   6.064   1.580  16.626  1.9756 -1.8601 -0.8973
15003TIP3   OH266423   2.054   0.616   3.531  0.3958 -0.1930 -0.4369
15003TIP3    H166424   2.056   0.547   3.597 -3.4482  1.8675  2.1976
15003TIP3    H266425   2.025   0.572   3.451  3.1701 -2.3992 -0.3770
15004TIP3   OH266426   4.229   4.347   3.616  0.2569  0.2719 -0.6566
15004TIP3    H166427   4.268   4.343   3.529 -2.1088  0.6661 -1.8099
15004TIP3    H266428   4.217   4.441   3.631  0.5980  0.2012  0.1026
15005TIP3   OH266429   5.184   0.480  15.280 -0.7485 -0.2801  0.1635
15005TIP3    H166430   5.163   0.388  15.297 -2.0166  0.0121  0.3072
15005TIP3    H266431   5.102   0.517  15.246  0.1052  0.5046 -1.1430
15006TIP3   OH266432   5.621   3.282   2.653 -0.1401  0.3642  0.0975
15006TIP3    H166433   5.541   3.245   2.688 -0.1675 -1.5394 -1.7573
15006TIP3    H266434   5.591   3.348   2.590 -0.1276  1.8811  1.6012
15007TIP3   OH266435   1.079   5.269  16.744  0.6067 -0.1903 -0.7998
15007TIP3    H166436   1.074   5.173  16.738  2.4137 -0.3232 -0.6117
15007TIP3    H266437   1.172   5.289  16.738  0.2294  1.6142 -1.3321
15008TIP3   OH266438   3.789   1.250   3.120  0.7356 -0.3846 -0.1650
15008TIP3    H166439   3.769   1.332   3.076  0.7199 -0.5076 -0.3897
15008TIP3    H266440   3.704   1.219   3.152  1.0909  1.0440  2.3332
15009TIP3   OH266441   5.530   6.588   2.099 -0.3660 -0.5644  0.0995
15009TIP3    H166442   5.590   6.525   2.058 -1.0592  0.0343 -1.9976
15009TIP3    H266443   5.490   6.540   2.171  0.2695 -2.0193 -0.4773
15010TIP3   OH266444   0.237   1.977   0.390  0.0126 -0.1144 -0.6970
15010TIP3    H166445   0.187   1.989   0.309 -0.1763  2.0018 -0.3271
15010TIP3    H266446   0.309   2.040   0.383 -0.2295  0.3913  0.9337
15011TIP3   OH266447   6.321   5.558   4.427  0.4178  0.3205 -0.4994
15011TIP3    H166448   6.409   5.592   4.411  0.7183  0.9307  1.9938
15011TIP3    H266449   6.291   5.606   4.504 -1.3795 -1.1758 -0.2087
15012TIP3   OH266450   0.149   6.079  13.658 -0.2115  0.5965 -0.1886
15012TIP3    H166451   0.195   6.150  13.613 -2.3204  1.4439 -1.1630
15012TIP3    H266452   0.101   6.034  13.588  0.9422 -1.7331  0.4412
15013TIP3   OH266453   0.186   1.887  12.681 -0.5759  0.1953  0.0155
15013TIP3    H166454   0.206   1.799  12.712  2.1044  1.2094  1.5436
15013TIP3    H266455   0.233   1.894  12.598  0.0399  0.4661  0.3781
15014TIP3   OH266456   2.837   1.732   3.069  0.0680 -0.3250  0.2570
15014TIP3    H166457   2.814   1.787   3.144  1.8810 -0.7626  1.1776
15014TIP3    H266458   2.753   1.692   3.043 -1.0798  1.9052  0.2921
15015TIP3   OH266459   1.504   6.561   5.561 -0.3438 -0.3645  0.2256
15015TIP3    H166460   1.483   6.595   5.648 -1.3762 -0.5639  0.0580
15015TIP3    H266461   1.471   6.628   5.501  0.4310 -0.1930 -0.0238
15016TIP3   OH266462   5.540   4.384   5.494 -0.2898  0.4031  0.1007
15016TIP3    H166463   5.548   4.309   5.436  1.3048  1.3485 -0.9758
15016TIP3    H266464   5.509   4.348   5.577  1.4408 -1.6061 -0.0513
15017TIP3   OH266465   6.720   1.770  13.638  0.2665 -0.1461  0.3486
15017TIP3    H166466   6.752   1.775  13.728  0.1534  1.4291  0.3245
15017TIP3    H266467   6.626   1.786  13.645  0.4278  1.1032 -0.1338
15018TIP3   OH266468   3.619   0.721   4.284 -0.1549  0.3956  0.1073
15018TIP3    H166469   3.649   0.707   4.374  2.1395  0.4028 -0.6153
15018TIP3    H266470   3.663   0.801   4.255 -1.0515  0.5346 -0.9714
15019TIP3   OH266471   5.172   4.156  12.933  0.2659 -0.1910  0.0708
15019TIP3    H166472   5.207   4.185  12.849  0.5919 -0.6618  0.0426
15019TIP3    H266473   5.086   4.119  12.912  0.6525 -0.9770 -0.1669
15020TIP3   OH266474   0.792   2.340  13.450 -0.0360 -0.1098  0.1395
15020TIP3    H166475   0.750   2.404  13.508 -1.8083  1.2201 -2.4035
15020TIP3    H266476   0.867   2.386  13.413 -0.6630  0.1663 -0.8413
15021TIP3   OH266477   2.206   2.558  15.245 -0.6940  0.2199  0.0205
15021TIP3    H166478   2.194   2.597  15.159  0.9996  0.5718 -0.0936
15021TIP3    H266479   2.241   2.629  15.299 -0.9469 -0.2171  0.7802
15022TIP3   OH266480   0.887   3.697  12.846  0.2989  0.1695  0.7613
15022TIP3    H166481   0.952   3.645  12.799 -1.1831  0.1277 -1.3840
15022TIP3    H266482   0.895   3.669  12.937 -0.1006 -3.5172 -0.1916
15023TIP3   OH266483   0.771   2.089   5.662 -0.0452  0.0389  0.4834
15023TIP3    H166484   0.717   2.023   5.705 -0.4868  0.2291  0.2353
15023TIP3    H266485   0.847   2.042   5.630 -0.7513 -0.5140 -0.4261
15024TIP3   OH266486   3.049   5.964   0.098  0.1527  0.0897 -0.2298
15024TIP3    H166487   3.039   5.939   0.190  0.8630 -2.6516 -0.8351
15024TIP3    H266488   2.976   6.024   0.082 -1.8819 -1.7962  1.3409
15025TIP3   OH266489   4.877   0.286  15.793  0.4007 -0.2046 -0.1919
15025TIP3    H166490   4.890   0.268  15.700  0.6650 -2.8090  0.2948
15025TIP3    H266491   4.964   0.278  15.832  0.1541 -0.0075  0.4074
15026TIP3   OH266492   0.608   0.683  11.739 -0.2343 -0.3140 -0.2440
15026TIP3    H166493   0.540   0.717  11.680  1.7678  1.0042 -1.9488
15026TIP3    H266494   0.591   0.589  11.744 -2.9851  0.1447  0.5503
15027TIP3   OH266495   5.362   0.378   5.072 -0.4400  0.8877 -0.4743
15027TIP3    H166496   5.387   0.454   5.124  2.5538  0.2168 -0.7219
15027TIP3    H266497   5.360   0.411   4.982  0.1779  0.8484 -0.5088
15028TIP3   OH266498   4.285   0.895  11.260 -0.7635  0.4558 -0.1868
15028TIP3    H166499   4.282   0.832  11.188 -1.7169  0.5934 -0.2806
15028TIP3    H266500   4.271   0.843  11.339  0.1889  0.3186 -0.0887
15029TIP3   OH266501   3.229   4.927  13.491 -0.7166 -0.2726 -0.0383
15029TIP3    H166502   3.188   4.940  13.576 -0.9747 -0.0436 -0.2006
15029TIP3    H266503   3.156   4.916  13.430 -0.5309 -0.6036 -0.2059
15030TIP3   OH266504   2.680   1.790  12.474  0.1614  0.0851  0.1029
15030TIP3    H166505   2.727   1.781  12.557  0.9132  0.1700 -0.3008
15030TIP3    H266506   2.733   1.741  12.411 -1.0844 -1.0828 -0.0867
15031TIP3   OH266507   6.697   0.676  12.437 -0.0090  0.1288  0.0908
15031TIP3    H166508   6.633   0.608  12.461  0.7864 -0.3886  0.8237
15031TIP3    H266509   6.774   0.627  12.408  0.7616  0.6880  1.1190
15032TIP3   OH266510   2.331   0.047  15.002  0.0641  0.7884  0.0314
15032TIP3    H166511   2.413   0.095  15.016  0.5751  0.0606 -0.4415
15032TIP3    H266512   2.347  -0.006  14.924  0.3686 -1.9852  1.8351
15033TIP3   OH266513   1.674   4.564  11.966 -0.5596 -0.1476  0.7599
15033TIP3    H166514   1.590   4.527  11.937 -1.0176  0.5690  1.1241
15033TIP3    H266515   1.649   4.630  12.031  0.3693 -0.8877  1.9037
15034TIP3   OH266516   2.270   6.365   5.406 -0.2400  0.1831  0.4811
15034TIP3    H166517   2.224   6.448   5.395 -0.0983  0.1768 -0.2597
15034TIP3    H266518   2.231   6.325   5.483  1.2492  1.9563  2.2842
15035TIP3   OH266519   1.362   3.616  14.316  0.4228  0.3935  0.3944
15035TIP3    H166520   1.387   3.690  14.260 -0.1143  0.9579  0.8898
15035TIP3    H266521   1.442   3.564  14.324  0.6683  0.6344 -0.3892
15036TIP3   OH266522   5.665   3.242   1.453  0.2262  0.0037 -0.4123
15036TIP3    H166523   5.637   3.164   1.406 -0.5487  0.2859 -0.4214
15036TIP3    H266524   5.683   3.306   1.384 -0.7344  0.3584 -0.3457
15037TIP3   OH266525   4.585   1.246   0.341  0.0823  0.4165  0.3342
15037TIP3    H166526   4.630   1.317   0.295 -0.3985  0.1902 -0.5071
15037TIP3    H266527   4.499   1.241   0.299 -0.3224  0.1156  1.1857
15038TIP3   OH266528   2.695   5.134  16.322 -0.5704  0.5805 -0.2283
15038TIP3    H166529   2.735   5.073  16.259 -0.6509  1.3816 -1.0839
15038TIP3    H266530   2.768   5.186  16.355  0.0215 -1.8505  2.7963
15039TIP3   OH266531   1.377   4.628  13.886  0.4370 -0.0566  0.5231
15039TIP3    H166532   1.317   4.599  13.817  0.5267  0.3804  0.2550
15039TIP3    H266533   1.365   4.565  13.957  0.0450 -0.2766  0.2641
15040TIP3   OH266534   5.784   5.791  15.444 -0.0619  0.1200 -0.3395
15040TIP3    H166535   5.799   5.885  15.442 -0.7261  0.2219 -0.8725
15040TIP3    H266536   5.729   5.777  15.521  1.2077 -0.0297  0.5738
15041TIP3   OH266537   5.850   1.239   5.361 -0.7930 -0.1707  0.1126
15041TIP3    H166538   5.790   1.309   5.386 -0.2598  0.5976 -0.7134
15041TIP3    H266539   5.917   1.282   5.308  0.6952 -0.9341  1.2852
15042TIP3   OH266540   3.118   5.742   5.801 -0.1701  0.6501  0.4145
15042TIP3    H166541   3.040   5.798   5.801 -1.2757 -0.7186 -2.4630
15042TIP3    H266542   3.096   5.671   5.861 -0.4785  1.0672  0.8091
15043TIP3   OH266543   0.140   4.002   4.049  0.1676  0.4322 -0.9431
15043TIP3    H166544   0.116   4.042   3.965 -0.9827  0.1543 -0.7709
15043TIP3    H266545   0.217   3.948   4.029 -0.4762 -0.1397 -1.9785
15044TIP3   OH266546   2.655   0.121   1.739  0.1133  0.1082  0.0640
15044TIP3    H166547   2.715   0.194   1.753  0.8258 -0.6434  1.0832
15044TIP3    H266548   2.668   0.064   1.815 -3.4489  0.9347  1.4983
15045TIP3   OH266549   2.087   4.785   2.982 -0.3711 -0.2154  0.0325
15045TIP3    H166550   2.032   4.804   3.059 -0.1892 -1.6478  0.5410
15045TIP3    H266551   2.172   4.822   3.005 -0.9210  1.5388 -0.5365
15046TIP3   OH266552   3.660   5.339   0.972  0.0330  0.2124 -0.1052
15046TIP3    H166553   3.678   5.394   1.048 -0.6756 -0.2293  0.3951
15046TIP3    H266554   3.573   5.366   0.942 -0.6645 -1.1164  0.6154
15047TIP3   OH266555   1.309   5.116  14.347 -0.1066 -1.0925  0.5453
15047TIP3    H166556   1.221   5.152  14.338  0.0108 -0.5788  1.3034
15047TIP3    H266557   1.321   5.106  14.441  1.9885  2.4086  0.8461
15048TIP3   OH266558   4.673   6.655  13.168  0.2266 -0.5941 -0.0765
15048TIP3    H166559   4.704   6.607  13.091 -0.2285 -0.8791 -0.0843
15048TIP3    H266560   4.639   6.737  13.133 -0.8136 -1.0993 -0.2921
15049TIP3   OH266561   5.542   4.907   1.879  0.1039  0.1371 -0.2210
15049TIP3    H166562   5.625   4.901   1.831 -0.4815 -2.5829 -1.0629
15049TIP3    H266563   5.484   4.956   1.821  0.1191 -1.0040 -1.2323
15050TIP3   OH266564   5.730   6.343   2.622  0.4332  0.2607  0.0350
15050TIP3    H166565   5.770   6.289   2.691 -0.6138  0.0572  0.5109
15050TIP3    H266566   5.693   6.418   2.669 -0.1957  0.1756 -0.3161
15051TIP3   OH266567   4.678   3.987  15.400  0.7191  0.7077  0.0084
15051TIP3    H166568   4.640   4.063  15.357 -1.4947  0.2674  1.0599
15051TIP3    H266569   4.606   3.924  15.407  1.3971  0.1011  2.8112
15052TIP3   OH266570   1.997   3.886  15.353  0.0709 -0.1667 -0.1108
15052TIP3    H166571   2.087   3.899  15.322  0.2978  0.1587  0.6617
15052TIP3    H266572   1.944   3.883  15.273  1.1246 -3.6595 -0.8386
15053TIP3   OH266573   5.145   6.176   4.018  0.1267  0.6326  0.2406
15053TIP3    H166574   5.217   6.234   4.043  0.9562  0.0020 -0.5830
15053TIP3    H266575   5.069   6.211   4.064  1.3663  0.0074  2.9563
15054TIP3   OH266576   6.226   1.783  13.952  0.3010 -0.3187  0.8836
15054TIP3    H166577   6.319   1.797  13.971  0.1684  1.3003  0.5587
15054TIP3    H266578   6.182   1.852  14.002 -0.5769 -0.0438 -0.2518
15055TIP3   OH266579   0.948   6.615   6.142  0.0345 -0.0430 -0.1453
15055TIP3    H166580   0.853   6.608   6.148  0.0201  0.7600  0.8209
15055TIP3    H266581   0.980   6.585   6.227  0.7096 -1.1340 -0.7629
15056TIP3   OH266582   5.525   2.191   3.764  0.5421  0.2142  0.3132
15056TIP3    H166583   5.540   2.278   3.800  0.2096 -0.0654  1.1464
15056TIP3    H266584   5.555   2.131   3.832  0.9781 -0.3350 -0.3380
15057TIP3   OH266585   4.922   1.395  13.405  0.1278 -0.4372 -0.2774
15057TIP3    H166586   4.878   1.480  13.404 -0.4408 -0.7167 -1.9393
15057TIP3    H266587   4.956   1.384  13.316  0.5009 -1.7939  0.0052
15058TIP3   OH266588   3.451   3.479   6.160 -0.0773 -0.3317 -0.0656
15058TIP3    H166589   3.492   3.553   6.205  0.6662 -0.6566 -0.1946
15058TIP3    H266590   3.430   3.417   6.229  0.9609 -0.7818 -0.1353
15059TIP3   OH266591   1.279   3.962   6.058 -0.0110 -0.4560  0.4062
15059TIP3    H166592   1.313   4.036   6.108 -1.1438 -0.1298  0.7198
15059TIP3    H266593   1.208   3.927   6.112  0.2526 -1.5418  0.0807
15060TIP3   OH266594   5.341   2.519   5.060 -0.3291  0.6768 -0.8736
15060TIP3    H166595   5.401   2.487   5.128  0.7935 -0.5920 -2.3868
15060TIP3    H266596   5.255   2.485   5.087  0.0004  0.6645  0.1993
15061TIP3   OH266597   3.858   0.303  14.810  0.1994  0.2311 -0.7552
15061TIP3    H166598   3.841   0.255  14.891  1.9281 -1.1383 -1.1407
15061TIP3    H266599   3.813   0.387  14.822 -1.9905 -1.0132  0.4083
15062TIP3   OH266600   4.962   5.244  16.744 -0.3140 -0.2185 -0.0345
15062TIP3    H166601   4.905   5.262  16.819  1.0908  1.5069  0.7159
15062TIP3    H266602   4.938   5.311  16.680  0.0246 -0.2264 -0.1735
15063TIP3   OH266603   1.281   1.322   1.577  0.0384 -0.3320 -0.0374
15063TIP3    H166604   1.373   1.311   1.601  0.4903  1.2867 -0.8445
15063TIP3    H266605   1.257   1.407   1.615 -0.5909  0.0682 -1.2577
15064TIP3   OH266606   2.603   1.051  13.925 -0.2681 -0.2978  0.1222
15064TIP3    H166607   2.660   1.064  14.001  1.8439 -1.9296 -1.0638
15064TIP3    H266608   2.641   1.108  13.857 -0.7712 -0.5281 -0.3548
15065TIP3   OH266609   1.416   1.982  12.783 -0.2135  0.4260 -0.0500
15065TIP3    H166610   1.333   1.945  12.812  0.9238 -0.4867  2.2966
15065TIP3    H266611   1.407   1.990  12.688 -2.3621 -1.1465 -0.0509
15066TIP3   OH266612   6.268   2.512   4.007  0.0169 -0.5857 -0.1137
15066TIP3    H166613   6.256   2.526   4.101 -2.0965 -2.1639 -0.0685
15066TIP3    H266614   6.208   2.573   3.965 -1.0321 -1.6964 -0.2950
15067TIP3   OH266615   4.765   0.922   3.048 -0.0068  0.0330 -0.6245
15067TIP3    H166616   4.807   0.986   2.991  1.0824 -0.5036 -0.4370
15067TIP3    H266617   4.690   0.890   2.997  1.0169 -0.5398 -1.8160
15068TIP3   OH266618   0.019   3.039   1.886  0.0020  0.1450  0.1182
15068TIP3    H166619  -0.062   3.091   1.887 -0.4332 -0.5191  0.1867
15068TIP3    H266620   0.059   3.058   1.801  0.2830  1.2370  0.4785
15069TIP3   OH266621   3.380   0.902  14.053 -0.2500 -0.0717 -0.2168
15069TIP3    H166622   3.434   0.849  13.994 -0.0053  0.0744 -0.1280
15069TIP3    H266623   3.400   0.867  14.141 -1.0042 -0.6354 -0.2606
15070TIP3   OH266624   4.382   2.620   0.337 -0.0638  0.2454  0.9244
15070TIP3    H166625   4.289   2.628   0.359 -0.0290  2.8692  0.4076
15070TIP3    H266626   4.426   2.681   0.396  1.1772 -0.0234  0.3096
15071TIP3   OH266627   4.763   5.636  13.276  0.6715  0.0614  0.4685
15071TIP3    H166628   4.796   5.547  13.262  1.3620  0.2230  1.0264
15071TIP3    H266629   4.836   5.693  13.252  0.4929  0.4564  0.8573
15072TIP3   OH266630   4.550   1.200   6.126  0.3448  0.1974  0.1091
15072TIP3    H166631   4.630   1.162   6.090  0.6425  0.7839  0.1319
15072TIP3    H266632   4.546   1.167   6.216 -0.2806 -1.0905 -0.3684
15073TIP3   OH266633   3.841   5.015  15.292 -0.0394  0.0738 -0.2342
15073TIP3    H166634   3.934   5.008  15.271 -0.0618 -0.6342 -0.1166
15073TIP3    H266635   3.832   4.976  15.379 -0.5557 -0.5503 -0.5580
15074TIP3   OH266636   6.559   5.989   6.053  0.0261 -0.3512 -0.3118
15074TIP3    H166637   6.532   5.994   6.145  0.6949  0.4020 -0.1472
15074TIP3    H266638   6.586   6.078   6.031  2.8408 -1.0957 -0.3091
15075TIP3   OH266639   4.862   4.647   2.080  0.6645 -0.5537  0.1870
15075TIP3    H166640   4.834   4.562   2.113  2.3205 -1.0494  0.4222
15075TIP3    H266641   4.911   4.686   2.152 -0.6016  0.9179  0.3157
15076TIP3   OH266642   2.602   0.611  12.234  0.1816  0.5960 -0.7440
15076TIP3    H166643   2.576   0.596  12.325 -0.8762  1.0605 -0.9610
15076TIP3    H266644   2.655   0.690  12.237  0.8098  0.1751 -0.4335
15077TIP3   OH266645   4.841   5.242  16.991  0.1675 -0.1994  0.7775
15077TIP3    H166646   4.794   5.162  17.016  1.2204 -1.1414 -0.1871
15077TIP3    H266647   4.916   5.245  17.050 -0.4981  0.7552  1.6183
15078TIP3   OH266648   2.534   0.626   2.047 -0.4715  0.3533  0.3940
15078TIP3    H166649   2.594   0.570   2.095  0.0508  0.6858  0.1403
15078TIP3    H266650   2.488   0.567   1.988 -1.8828 -0.2365  2.0010
15079TIP3   OH266651   2.296   0.012   1.557 -0.6408  0.0351  0.5573
15079TIP3    H166652   2.267  -0.076   1.534 -1.6565  0.8743 -1.6005
15079TIP3    H266653   2.371   0.029   1.501 -0.5879  0.6354  0.7976
15080TIP3   OH266654   4.269   6.727  13.049 -0.0982 -0.1328 -0.1639
15080TIP3    H166655   4.292   6.783  12.975 -0.9052 -0.4607 -0.6742
15080TIP3    H266656   4.300   6.640  13.024  1.6252  0.1318  0.8453
15081TIP3   OH266657   3.166   0.089  17.221  0.0604  0.3356 -0.5344
15081TIP3    H166658   3.087   0.138  17.245  0.0905  0.9404 -1.5767
15081TIP3    H266659   3.238   0.137  17.262 -0.0592  0.1410 -0.0940
15082TIP3   OH266660   3.109   1.015   4.115  0.5432  0.4164  0.4590
15082TIP3    H166661   3.159   1.062   4.181 -0.6650  0.6165  1.2523
15082TIP3    H266662   3.176   0.969   4.063  1.4815 -1.0645  2.7961
15083TIP3   OH266663   5.796   6.444  15.393  0.1393 -0.3316 -0.3208
15083TIP3    H166664   5.745   6.520  15.364  0.6591 -0.1261 -0.7135
15083TIP3    H266665   5.870   6.483  15.439 -0.8642 -0.6493  1.6785
15084TIP3   OH266666   1.731   5.847  12.040 -0.1841 -0.6778  0.2807
15084TIP3    H166667   1.652   5.793  12.034 -0.6029  0.0303 -0.8781
15084TIP3    H266668   1.800   5.793  12.001 -0.3210 -0.8522  0.2760
15085TIP3   OH266669   6.237   0.693   6.514 -0.3473  0.1429 -0.0784
15085TIP3    H166670   6.148   0.703   6.481 -0.7068  1.1111  1.0925
15085TIP3    H266671   6.288   0.759   6.466 -0.6833  0.9274  0.6089
15086TIP3   OH266672   5.944   1.139   1.075 -0.3215  0.1437  0.1986
15086TIP3    H166673   5.976   1.225   1.050  0.2522 -0.2271 -0.3595
15086TIP3    H266674   5.848   1.147   1.073 -0.2812  1.0598  1.1923
15087TIP3   OH266675   4.691   6.380   0.621  0.1025  0.5658  0.5768
15087TIP3    H166676   4.778   6.364   0.658  0.4082 -0.8002 -0.6655
15087TIP3    H266677   4.631   6.344   0.687  0.5921 -0.6929  0.3690
15088TIP3   OH266678   0.139   2.585  17.059 -0.2753  0.2460 -0.5990
15088TIP3    H166679   0.233   2.605  17.062 -0.2200 -0.1072  1.5616
15088TIP3    H266680   0.131   2.500  17.102 -1.3324 -1.0175 -3.1312
15089TIP3   OH266681   0.276   0.012  11.408 -0.1456 -0.1899 -0.4961
15089TIP3    H166682   0.255   0.099  11.374  0.4503 -0.2426 -1.0144
15089TIP3    H266683   0.205  -0.007  11.470  1.6831  2.3338  2.7241
15090TIP3   OH266684   1.494   6.581   5.855 -0.2247  0.1001  0.1609
15090TIP3    H166685   1.414   6.577   5.907 -0.9516 -0.1254 -0.9366
15090TIP3    H266686   1.530   6.668   5.874 -0.2434 -0.1222  1.3228
15091TIP3   OH266687   6.272   4.503  16.781 -0.7450  0.5465  0.3588
15091TIP3    H166688   6.203   4.478  16.719 -0.7606 -1.9374  1.2641
15091TIP3    H266689   6.270   4.598  16.781 -2.0699  0.6035 -1.9667
15092TIP3   OH266690   2.400   3.411   3.461 -0.6852 -0.4156 -0.1690
15092TIP3    H166691   2.378   3.318   3.455 -1.7532 -0.2455  0.6696
15092TIP3    H266692   2.360   3.439   3.543 -3.0679  1.4566 -1.7992
15093TIP3   OH266693   6.035   4.956  12.860  0.2898 -0.4908 -0.3834
15093TIP3    H166694   6.108   4.980  12.917  1.5180 -2.3322 -1.1076
15093TIP3    H266695   5.975   4.907  12.917  1.3454 -2.0270 -0.5356
15094TIP3   OH266696   1.663   1.830  12.640  0.1954  0.0017 -0.0376
15094TIP3    H166697   1.575   1.806  12.668  0.5101 -0.3697  0.6478
15094TIP3    H266698   1.654   1.851  12.547 -0.3575 -1.4591 -0.3462
15095TIP3   OH266699   0.261   5.798   5.178 -0.1896 -0.2671  0.1186
15095TIP3    H166700   0.222   5.741   5.112 -0.0977 -0.7914  0.5077
15095TIP3    H266701   0.189   5.854   5.208 -0.3698 -0.4406  0.0062
15096TIP3   OH266702   5.357   5.983   1.611 -0.5414 -0.4131  0.4895
15096TIP3    H166703   5.323   6.032   1.685  0.4950 -0.4036  0.9785
15096TIP3    H266704   5.385   5.899   1.648 -0.1068 -0.4435  0.1071
15097TIP3   OH266705   2.511   4.148   4.003 -0.4934 -0.3935  0.1431
15097TIP3    H166706   2.509   4.084   4.074  1.9144  1.9009  2.5073
15097TIP3    H266707   2.564   4.220   4.037 -1.7669  2.2294 -2.9039
15098TIP3   OH266708   4.369   1.575  15.430  0.2501 -0.1039 -0.4581
15098TIP3    H166709   4.393   1.661  15.465 -0.0292  0.4983 -1.7036
15098TIP3    H266710   4.274   1.574  15.432  0.1554  0.5586 -2.5555
15099TIP3   OH266711   6.395   1.743  14.922 -0.0545 -0.2795  0.2711
15099TIP3    H166712   6.320   1.746  14.981 -0.0127 -0.2824  0.3242
15099TIP3    H266713   6.371   1.801  14.849 -1.5105 -2.7582 -1.3647
15100TIP3   OH266714   0.052   6.475  13.767 -0.1300  0.5242 -0.2812
15100TIP3    H166715   0.129   6.445  13.718  1.5069  0.6251  2.0173
15100TIP3    H266716   0.004   6.394  13.787  0.3016  0.2577 -0.3030
15101TIP3   OH266717   6.042   0.889  13.831  0.5076  0.0549  0.5899
15101TIP3    H166718   5.997   0.858  13.752 -0.8274  1.7123  0.6203
15101TIP3    H266719   5.994   0.969  13.855  1.4379  0.0666  2.5799
15102TIP3   OH266720   6.037   4.211  11.234  0.0107  0.5760 -0.5792
15102TIP3    H166721   5.947   4.210  11.200  0.0669  0.6498 -0.7321
15102TIP3    H266722   6.056   4.119  11.251 -0.9983  0.7411  1.8992
15103TIP3   OH266723   5.226   3.649   0.713 -0.5803 -0.3335 -0.2982
15103TIP3    H166724   5.316   3.675   0.731  0.5336 -2.5077 -2.2521
15103TIP3    H266725   5.188   3.725   0.669  1.0624 -0.2063 -1.5917
15104TIP3   OH266726   5.308   5.808   0.666  0.1485 -0.6978  0.2124
15104TIP3    H166727   5.294   5.868   0.593 -0.3372 -0.6619  0.3302
15104TIP3    H266728   5.276   5.857   0.743 -1.2021 -1.4750  0.1770
15105TIP3   OH266729   1.817   1.909  17.371  0.3454 -0.3695  0.0675
15105TIP3    H166730   1.780   1.891  17.457  1.0721 -1.2574  0.2071
15105TIP3    H266731   1.911   1.896  17.381  0.8743  2.5720 -0.1014
15106TIP3   OH266732   3.308   3.015   4.678  0.2499 -0.1343 -0.1578
15106TIP3    H166733   3.324   2.968   4.761  1.8152 -2.4736 -1.6612
15106TIP3    H266734   3.383   2.993   4.624 -1.2180  0.5046 -2.5785
15107TIP3   OH266735   6.141   2.333   0.017  0.0563  0.2880 -0.3333
15107TIP3    H166736   6.083   2.334  -0.058  1.4343 -0.9421 -1.4793
15107TIP3    H266737   6.153   2.240   0.038 -0.5677  0.5939  1.6610
15108TIP3   OH266738   2.616   2.997  12.088  0.0103  0.2275  0.0931
15108TIP3    H166739   2.665   3.007  12.006 -0.7022  0.5337 -0.3063
15108TIP3    H266740   2.558   2.922  12.071 -0.4891  0.6026  0.1416
15109TIP3   OH266741   6.051   3.543  15.056  0.6532 -0.2954  0.4648
15109TIP3    H166742   6.073   3.493  14.978  1.1024  1.9729 -0.9763
15109TIP3    H266743   5.964   3.511  15.081  0.1065 -0.5251 -1.5197
15110TIP3   OH266744   6.401   3.075   6.316  0.3517 -0.3341  0.4607
15110TIP3    H166745   6.401   3.061   6.221  1.0472  0.4171  0.3368
15110TIP3    H266746   6.404   3.170   6.326  1.0012 -0.4277  1.2313
15111TIP3   OH266747   0.760   5.218  12.338 -0.3710  0.1395  0.3600
15111TIP3    H166748   0.701   5.173  12.399 -0.7091  1.2411  0.8738
15111TIP3    H266749   0.710   5.224  12.257  0.4931 -2.3499 -0.4773
15112TIP3   OH266750   5.192   3.186  11.734  0.4825 -0.3038  0.4112
15112TIP3    H166751   5.253   3.128  11.780 -0.2694 -0.9494  0.6182
15112TIP3    H266752   5.133   3.217  11.802  0.9209  0.7874  0.3140
15113TIP3   OH266753   4.556   1.262   4.973  0.3618  0.0504  0.1567
15113TIP3    H166754   4.586   1.189   5.027 -1.3635  0.2726  1.5057
15113TIP3    H266755   4.461   1.251   4.968  0.0480  2.1676  0.4205
15114TIP3   OH266756   3.447   4.343  11.393 -0.1804  0.0181  1.0431
15114TIP3    H166757   3.434   4.358  11.487 -0.7120 -0.9284  1.1255
15114TIP3    H266758   3.431   4.428  11.353 -0.4496  0.3134  1.7620
15115TIP3   OH266759   0.632   2.567   3.534  0.2896  0.2047 -0.0901
15115TIP3    H166760   0.689   2.607   3.468  0.4191 -1.2630 -0.9158
15115TIP3    H266761   0.692   2.519   3.591  0.0448  0.2168  0.1764
15116TIP3   OH266762   2.389   2.905   3.792  0.1349  0.6420 -0.3787
15116TIP3    H166763   2.396   2.809   3.787  1.9622  0.6871  0.7540
15116TIP3    H266764   2.305   2.920   3.835 -1.3263 -0.3456 -2.6557
15117TIP3   OH266765   2.512   2.766   5.247  0.3434  0.4937 -0.2789
15117TIP3    H166766   2.509   2.737   5.156  0.0027 -0.1417 -0.0725
15117TIP3    H266767   2.532   2.859   5.242  1.2261  0.2723 -0.9647
15118TIP3   OH266768   1.093   2.568  10.439  0.2031 -0.4732  0.4292
15118TIP3    H166769   1.087   2.663  10.452  0.2523 -0.5457  0.9966
15118TIP3    H266770   1.181   2.554  10.406 -0.0805 -0.2372 -0.4697
15119TIP3   OH266771   5.048   0.582   3.456 -0.2772 -0.3088  0.5339
15119TIP3    H166772   5.040   0.625   3.371 -1.7837  0.4673  1.0263
15119TIP3    H266773   5.136   0.603   3.486 -0.2920  0.7432 -0.1365
15120TIP3   OH266774   4.559   2.736  14.548  0.1927 -0.5092  0.3423
15120TIP3    H166775   4.519   2.723  14.462 -2.1828 -2.2565  1.5759
15120TIP3    H266776   4.620   2.662  14.557 -0.2846 -0.8890  0.5143
15121TIP3   OH266777   1.980   4.179   6.209  0.3967  0.5187 -0.2111
15121TIP3    H166778   2.070   4.177   6.241  0.5490  0.8202 -0.6246
15121TIP3    H266779   1.957   4.272   6.207  0.0296  0.4361  0.0244
15122TIP3   OH266780   0.610   2.888   4.035  0.3319 -0.4015 -0.1176
15122TIP3    H166781   0.541   2.928   4.088  0.2843  1.7047 -1.6371
15122TIP3    H266782   0.567   2.816   3.990 -1.0824  1.1623 -1.4113
15123TIP3   OH266783   5.886   1.426  11.955  0.2460  0.1426  0.0324
15123TIP3    H166784   5.873   1.506  12.006  1.9970 -0.7963  2.1082
15123TIP3    H266785   5.801   1.383  11.954 -0.4614  1.5059 -0.2132
15124TIP3   OH266786   1.643   0.025  14.088 -0.1203  0.0293  0.1744
15124TIP3    H166787   1.658  -0.069  14.078 -0.8893 -0.1736  0.7982
15124TIP3    H266788   1.568   0.030  14.148 -0.5956  1.0192 -0.4860
15125TIP3   OH266789   5.433   0.199   0.418  0.2049  0.4743 -0.7916
15125TIP3    H166790   5.474   0.160   0.495 -2.0935 -0.3630  0.0767
15125TIP3    H266791   5.486   0.166   0.344  0.1547 -1.9029  0.1421
15126TIP3   OH266792   6.146   4.031   2.212  0.0654  0.5021 -0.6218
15126TIP3    H166793   6.082   3.961   2.226 -0.1106  0.4863 -1.4239
15126TIP3    H266794   6.101   4.094   2.156  0.6984  0.5691 -1.0666
15127TIP3   OH266795   5.500   3.863  15.963 -0.1410 -0.0134  0.6291
15127TIP3    H166796   5.589   3.893  15.945  0.1118 -0.7370  0.6590
15127TIP3    H266797   5.511   3.788  16.021 -0.7906  0.1251  0.9434
15128TIP3   OH266798   2.956   0.108   1.690  0.0624 -0.2853 -0.6316
15128TIP3    H166799   2.977   0.201   1.677 -1.3529  0.1248 -0.1048
15128TIP3    H266800   2.921   0.079   1.606  0.4881 -0.3569 -0.7906
15129TIP3   OH266801   5.951   5.495  17.231 -0.0436 -0.8274 -0.3589
15129TIP3    H166802   5.973   5.584  17.205  2.1124 -1.4163 -0.8067
15129TIP3    H266803   5.882   5.468  17.170  0.6676 -0.1032 -1.5270
15130TIP3   OH266804   2.227   4.239  15.776 -0.5138  0.3026  0.0600
15130TIP3    H166805   2.169   4.309  15.745 -0.2796  0.2327 -0.5432
15130TIP3    H266806   2.201   4.225  15.867 -0.0118  1.7504  0.4533
15131TIP3   OH266807   4.060   3.557   2.383  0.7053 -0.1082 -0.3098
15131TIP3    H166808   4.058   3.472   2.339 -1.0216 -0.7227  0.8310
15131TIP3    H266809   3.984   3.604   2.348 -0.1483 -0.2489  1.2565
15132TIP3   OH266810   3.070   4.812   6.896  0.1544 -0.1534  0.1610
15132TIP3    H166811   3.133   4.777   6.959  0.1695  0.5289  0.5295
15132TIP3    H266812   3.077   4.754   6.820  1.0512 -0.2160  0.2895
15133TIP3   OH266813   4.709   5.369  14.449  0.4262  0.3071  0.2861
15133TIP3    H166814   4.619   5.389  14.477  1.0985  1.3060  1.8385
15133TIP3    H266815   4.704   5.279  14.415 -1.0332  0.1172  0.9292
15134TIP3   OH266816   2.674   1.813   2.669  0.2647 -0.2970  0.0608
15134TIP3    H166817   2.685   1.756   2.593  1.7621  1.7308 -1.3561
15134TIP3    H266818   2.752   1.798   2.723  0.8294  0.5751 -0.4810
15135TIP3   OH266819   6.582   0.515   2.944  0.5848  0.8422 -0.0508
15135TIP3    H166820   6.641   0.553   2.879  1.4683 -0.9132 -0.3580
15135TIP3    H266821   6.547   0.436   2.902  0.6019  0.0699  1.3021
15136TIP3   OH266822   2.176   2.630  12.047  0.1557 -0.5294 -0.4964
15136TIP3    H166823   2.166   2.710  12.099 -3.0205 -0.9509 -0.2415
15136TIP3    H266824   2.089   2.615  12.010  1.0102 -3.1231 -1.6883
15137TIP3   OH266825   3.122   4.914   2.825 -0.1186  0.4836  0.2505
15137TIP3    H166826   3.085   4.923   2.738  1.9236  1.9474 -0.5464
15137TIP3    H266827   3.063   4.855   2.871 -1.1844 -0.4037 -2.1416
15138TIP3   OH266828   6.399   4.129   0.242  0.0461  0.5574  0.0037
15138TIP3    H166829   6.358   4.183   0.309  0.3037 -1.2640  1.7268
15138TIP3    H266830   6.343   4.139   0.165 -2.6312 -0.3821  1.6924
15139TIP3   OH266831   5.988   4.597   0.369 -0.0749  0.1461 -0.6597
15139TIP3    H166832   5.936   4.649   0.307 -0.1935  0.1006 -0.6001
15139TIP3    H266833   5.974   4.507   0.341 -0.1959  0.1198 -0.5162
15140TIP3   OH266834   1.752   2.580   0.574  0.2588 -0.2053  0.2124
15140TIP3    H166835   1.764   2.675   0.569 -0.1854 -0.1368  0.3853
15140TIP3    H266836   1.665   2.565   0.539  1.2852 -0.8314 -2.2928
15141TIP3   OH266837   5.620   2.999  14.030 -0.1698  0.1281  0.6000
15141TIP3    H166838   5.667   3.079  14.008 -1.2069  0.4403 -0.5802
15141TIP3    H266839   5.687   2.941  14.066  1.3274  0.2300 -1.8164
15142TIP3   OH266840   3.019   2.274  14.436  0.3466  0.0385  0.4921
15142TIP3    H166841   3.028   2.369  14.439 -0.9267  0.1582  1.8564
15142TIP3    H266842   3.107   2.241  14.451  1.2154  0.9490 -2.0626
15143TIP3   OH266843   2.336   4.106   0.712 -0.0711  1.1137 -0.1282
15143TIP3    H166844   2.368   4.039   0.772 -0.3755  1.1547  0.0805
15143TIP3    H266845   2.324   4.061   0.629  0.0751  0.9927 -0.0842
15144TIP3   OH266846   0.553   0.582   5.820 -0.5301 -0.5409 -0.5026
15144TIP3    H166847   0.496   0.514   5.854 -0.7061 -0.0014  0.3250
15144TIP3    H266848   0.641   0.558   5.850 -0.2588 -1.5267 -2.0238
15145TIP3   OH266849   0.785   6.080  16.353 -0.0329 -0.4102 -0.1485
15145TIP3    H166850   0.845   6.155  16.351 -0.9284  0.3586  0.6882
15145TIP3    H266851   0.793   6.045  16.441  0.4776 -1.3986 -0.5796
15146TIP3   OH266852   0.203   4.456  15.324  0.2227  0.9759 -0.3404
15146TIP3    H166853   0.117   4.492  15.346 -0.0604  0.6854 -0.9362
15146TIP3    H266854   0.225   4.400  15.399 -1.0290 -0.5217 -1.0406
15147TIP3   OH266855   4.933   6.314  17.052 -0.5342 -0.3765 -0.3309
15147TIP3    H166856   4.896   6.279  16.971  0.2753 -0.6604 -0.5919
15147TIP3    H266857   4.962   6.237  17.101  0.2742 -0.1429 -0.4244
15148TIP3   OH266858   6.393   6.036   1.387 -0.7780 -0.3217 -0.2400
15148TIP3    H166859   6.364   6.124   1.363 -4.8103 -1.3415  0.1450
15148TIP3    H266860   6.403   6.039   1.482  2.1529  0.3913 -0.4956
15149TIP3   OH266861   3.086   3.826   1.517  0.1302 -0.1281  0.1618
15149TIP3    H166862   3.101   3.875   1.436 -0.5422 -0.1197  0.0305
15149TIP3    H266863   3.030   3.753   1.491  2.0121 -1.6292  0.1578
15150TIP3   OH266864   0.563   6.683  13.641  0.7200 -0.4080  0.1718
15150TIP3    H166865   0.569   6.637  13.557 -0.2331  0.1547 -0.2079
15150TIP3    H266866   0.643   6.657  13.687  0.0606 -2.7732  0.1332
15151TIP3   OH266867   2.932   4.681   5.151  0.7158 -0.2810  0.5501
15151TIP3    H166868   2.983   4.758   5.127 -1.2648  1.1121  0.6299
15151TIP3    H266869   2.968   4.654   5.235 -0.4542  2.3985  2.0164
15152TIP3   OH266870   6.237   0.472   3.161 -0.2736 -0.4786 -0.1462
15152TIP3    H166871   6.258   0.551   3.211 -1.2902 -0.0902 -0.3192
15152TIP3    H266872   6.295   0.405   3.198 -0.8668 -0.1550  1.4324
15153TIP3   OH266873   5.986   5.384   3.952  0.1949 -0.2674 -0.2703
15153TIP3    H166874   5.896   5.361   3.975  0.6897 -0.2667  1.8616
15153TIP3    H266875   6.029   5.398   4.036  1.7690  1.3994 -1.2929
15154TIP3   OH266876   5.623   6.205   0.594 -0.5165 -0.2149 -0.5830
15154TIP3    H166877   5.716   6.222   0.608  0.0264 -1.2052 -2.6451
15154TIP3    H266878   5.585   6.208   0.682  1.5539 -0.3542  0.3810
15155TIP3   OH266879   3.679   5.631  16.225  0.3337  0.0872  0.2418
15155TIP3    H166880   3.613   5.692  16.258 -1.2979 -0.7475 -1.3071
15155TIP3    H266881   3.634   5.547  16.221  1.6163 -0.5903 -0.5125
15156TIP3   OH266882   4.783   1.634  16.077 -0.0349  0.3410  0.3892
15156TIP3    H166883   4.775   1.709  16.018 -0.2482  0.9578  1.1871
15156TIP3    H266884   4.713   1.574  16.049  0.0119  0.5211 -0.1278
15157TIP3   OH266885   5.377   4.647  13.444  0.0827 -0.3244  0.9175
15157TIP3    H166886   5.389   4.580  13.378 -0.5539  0.0003  0.4622
15157TIP3    H266887   5.327   4.716  13.400  1.0656  0.6265  1.2553
15158TIP3   OH266888   0.390   1.637   4.777  0.9324  0.0391 -0.3298
15158TIP3    H166889   0.362   1.559   4.826  0.6312  0.5889  0.3868
15158TIP3    H266890   0.409   1.702   4.844 -1.2029  1.4113 -0.9498
15159TIP3   OH266891   4.941   2.171  14.697 -0.2629  0.6011  0.7301
15159TIP3    H166892   4.847   2.157  14.703 -0.4102  0.7628 -0.8561
15159TIP3    H266893   4.978   2.083  14.699 -0.5353  0.4712  0.1857
15160TIP3   OH266894   3.908   5.876   3.888 -0.2289 -0.2493  0.0059
15160TIP3    H166895   3.818   5.907   3.880  0.0758  0.7952  0.3800
15160TIP3    H266896   3.959   5.956   3.903  1.0310 -0.5225 -2.2323
15161TIP3   OH266897   0.807   5.816  13.292 -0.3959 -0.3674 -0.3317
15161TIP3    H166898   0.873   5.829  13.360 -0.0479 -0.8497 -0.5690
15161TIP3    H266899   0.831   5.733  13.251 -1.7530 -1.1035  0.2671
15162TIP3   OH266900   2.869   4.761   3.974  0.6090 -0.2954 -0.0436
15162TIP3    H166901   2.955   4.756   3.932  0.2493 -0.1256 -0.8278
15162TIP3    H266902   2.866   4.850   4.009  0.9699 -0.4856  0.4916
15163TIP3   OH266903   1.721   5.546   4.170  1.3252  0.2735  0.9785
15163TIP3    H166904   1.790   5.591   4.218  0.7069  0.0462  2.1065
15163TIP3    H266905   1.641   5.590   4.196  0.7289 -1.3210  1.9693
15164TIP3   OH266906   1.864   4.152  10.848 -0.0927  0.3960 -0.2289
15164TIP3    H166907   1.930   4.197  10.901  0.0609  0.2477 -0.2931
15164TIP3    H266908   1.912   4.082  10.803 -0.2383  0.4664 -0.4969
15165TIP3   OH266909   1.547   1.097   2.704  0.4536 -0.5609  0.1739
15165TIP3    H166910   1.569   1.107   2.797  1.5743 -0.8620 -0.0375
15165TIP3    H266911   1.622   1.136   2.658 -0.8223  1.0452 -0.6136
15166TIP3   OH266912   5.395   4.712  12.596 -0.2370 -0.0600 -0.3794
15166TIP3    H166913   5.310   4.678  12.567 -0.3703  0.6487 -0.8360
15166TIP3    H266914   5.451   4.634  12.598 -0.8205 -0.4931 -0.3382
15167TIP3   OH266915   0.226   1.679  13.073  0.3464  0.3340 -0.0144
15167TIP3    H166916   0.202   1.659  12.983 -0.6758 -0.0092  0.3152
15167TIP3    H266917   0.203   1.771  13.084 -1.3656 -0.1170  0.4428
15168TIP3   OH266918   6.586   4.958   2.207  0.4603  0.0020 -0.0800
15168TIP3    H166919   6.626   4.873   2.190 -1.8174 -1.2629  0.3639
15168TIP3    H266920   6.540   4.978   2.125  1.8018  1.3511 -0.5394
15169TIP3   OH266921   0.582   0.480  15.974 -0.6099  0.0374  0.2772
15169TIP3    H166922   0.578   0.548  16.041 -1.5516  0.5662 -0.2821
15169TIP3    H266923   0.628   0.521  15.901  2.1024 -1.1341  1.2071
15170TIP3   OH266924   2.662   5.108   6.077  0.1964 -0.2096 -0.5056
15170TIP3    H166925   2.568   5.116   6.092  0.3919  0.3149  0.4983
15170TIP3    H266926   2.686   5.189   6.030  0.4396  0.5230  0.8286
15171TIP3   OH266927   2.069   6.403  12.350 -0.1207 -0.1550 -0.9403
15171TIP3    H166928   2.116   6.486  12.348  0.4175 -0.3561  0.9872
15171TIP3    H266929   2.139   6.337  12.346 -0.1997 -0.4578  1.3090
15172TIP3   OH266930   5.234   6.395   5.525 -0.0671 -0.8422  0.2332
15172TIP3    H166931   5.282   6.477   5.516 -0.3148 -0.9092 -3.9427
15172TIP3    H266932   5.169   6.412   5.593  1.7511  1.3695  1.5421
15173TIP3   OH266933   1.518   0.067   1.376 -0.5794 -0.5673 -0.2104
15173TIP3    H166934   1.577   0.017   1.432 -0.4677 -1.2638 -0.9428
15173TIP3    H266935   1.473   0.127   1.436  1.7986  0.9419  0.2210
15174TIP3   OH266936   2.297   6.093   1.909 -0.5680  0.0665 -0.4352
15174TIP3    H166937   2.245   6.015   1.930 -0.4706 -0.0249 -0.5347
15174TIP3    H266938   2.240   6.166   1.932 -0.5501 -0.0306 -0.0639
15175TIP3   OH266939   4.534   4.182  16.038  0.2457  0.2374  0.3103
15175TIP3    H166940   4.472   4.243  15.999 -0.0445 -0.2051  0.0709
15175TIP3    H266941   4.485   4.100  16.047  0.1713  0.4272  1.9874
15176TIP3   OH266942   5.607   1.471  16.959  0.0514  0.4948  0.3412
15176TIP3    H166943   5.677   1.481  16.894 -0.4438  2.3393  0.0217
15176TIP3    H266944   5.653   1.462  17.042  0.6777  0.4262 -0.0045
15177TIP3   OH266945   3.919   6.220  11.723  0.3564 -0.3720  0.7662
15177TIP3    H166946   4.011   6.247  11.727  0.5885 -1.0960  0.3838
15177TIP3    H266947   3.881   6.276  11.656  0.3773  0.3140  1.3125
15178TIP3   OH266948   3.209   2.054   2.314  0.2393  0.5398 -0.1957
15178TIP3    H166949   3.253   2.127   2.270  0.3819  0.5296 -0.0716
15178TIP3    H266950   3.134   2.034   2.259 -0.3228  1.3880  0.2324
15179TIP3   OH266951   4.915   4.361   1.065 -0.4433 -0.3386 -0.5828
15179TIP3    H166952   4.941   4.330   0.979  0.4530 -1.9864  0.2301
15179TIP3    H266953   4.988   4.338   1.122 -0.3130  2.1513  0.3704
15180TIP3   OH266954   5.139   5.696   1.631 -0.2353  0.6572  0.4356
15180TIP3    H166955   5.105   5.611   1.659  0.0604 -0.2122 -1.6516
15180TIP3    H266956   5.227   5.701   1.668  0.9265 -1.3485 -1.7643
15181TIP3   OH266957   2.511   1.380   5.610 -0.7004 -0.3296 -0.8523
15181TIP3    H166958   2.596   1.413   5.639 -0.0032  0.3810 -3.4050
15181TIP3    H266959   2.450   1.451   5.631 -0.3694 -0.1439 -0.4876
15182TIP3   OH266960   3.892   6.159   5.030 -0.2880  0.6078 -0.5065
15182TIP3    H166961   3.881   6.204   4.946  0.1512  1.8721  0.0829
15182TIP3    H266962   3.827   6.199   5.087 -1.0031 -0.6713 -0.3849
15183TIP3   OH266963   6.245   0.904   1.626 -0.3724  0.3994  0.0894
15183TIP3    H166964   6.301   0.978   1.650  0.7080 -0.8270  1.5592
15183TIP3    H266965   6.296   0.854   1.563  0.5233 -1.0288  1.8536
15184TIP3   OH266966   2.337   0.545   0.081  0.0135  0.2574 -0.0074
15184TIP3    H166967   2.418   0.495   0.089  0.3501  0.9422  1.0500
15184TIP3    H266968   2.333   0.569  -0.012 -0.5425 -2.3179 -0.7459
15185TIP3   OH266969   0.660   4.052   1.695  0.7854  0.3428  0.0333
15185TIP3    H166970   0.567   4.073   1.690  0.7020  0.1218  0.5448
15185TIP3    H266971   0.671   4.010   1.781  1.2781 -0.0208 -0.1962
15186TIP3   OH266972   2.499   5.101  12.406 -0.4395  0.0758 -1.1540
15186TIP3    H166973   2.405   5.098  12.422 -0.1017 -0.9837  0.9000
15186TIP3    H266974   2.513   5.039  12.334 -1.0826 -1.4823  0.0089
15187TIP3   OH266975   0.748   1.892   1.114 -0.1552 -0.1247 -0.1947
15187TIP3    H166976   0.817   1.826   1.129  0.5725  0.8104  0.7355
15187TIP3    H266977   0.760   1.955   1.186 -2.5002 -0.3503  0.4556
15188TIP3   OH266978   0.634   5.307   5.419 -0.1794 -0.3457  0.4893
15188TIP3    H166979   0.626   5.401   5.437  2.0331  0.4585 -1.9119
15188TIP3    H266980   0.714   5.280   5.465  1.5862  0.0838 -2.1046
15189TIP3   OH266981   0.255   2.840   2.046  0.3024  0.2061 -0.6151
15189TIP3    H166982   0.304   2.769   2.087  1.8720  0.3663 -2.0906
15189TIP3    H266983   0.222   2.801   1.964 -1.4602  0.3204  0.0102
15190TIP3   OH266984   3.500   1.968   4.114  0.0122  0.0576 -0.3369
15190TIP3    H166985   3.593   1.947   4.116  0.0812  0.3755  1.2985
15190TIP3    H266986   3.466   1.920   4.039  1.8032  1.3760 -2.1030
15191TIP3   OH266987   2.605   0.896  15.487 -0.8015 -0.2022 -0.2878
15191TIP3    H166988   2.553   0.954  15.433 -2.0445 -0.5717  0.4541
15191TIP3    H266989   2.684   0.946  15.508 -1.8751  1.2689  0.4092
15192TIP3   OH266990   5.517   1.030  16.006  0.1790 -0.3683 -0.1507
15192TIP3    H166991   5.421   1.029  15.999  0.0585 -1.0901  1.1644
15192TIP3    H266992   5.543   1.115  15.969 -0.8682 -0.5736 -1.4333
15193TIP3   OH266993   4.984   6.103   5.446 -0.4422  0.1108  0.3041
15193TIP3    H166994   4.970   6.013   5.476  0.9245  0.2844  1.5374
15193TIP3    H266995   4.958   6.157   5.520 -0.8780  0.7258 -0.2921
15194TIP3   OH266996   4.567   4.317   4.480 -0.2954  0.6477 -0.0732
15194TIP3    H166997   4.615   4.254   4.533 -0.0906  1.0378  0.2074
15194TIP3    H266998   4.625   4.335   4.406 -1.7417 -2.1279 -2.0807
15195TIP3   OH266999   5.036   4.519  14.835 -0.0105  0.3269 -0.7672
15195TIP3    H167000   4.961   4.510  14.894  0.3960 -1.5059 -0.4601
15195TIP3    H267001   5.002   4.493  14.750  0.2981 -0.6381 -0.6006
15196TIP3   OH267002   5.093   3.645   5.705 -0.2562  0.2433 -0.2168
15196TIP3    H167003   5.115   3.591   5.629 -1.1734 -0.8229  0.2391
15196TIP3    H267004   5.178   3.673   5.740  0.1712  1.1926 -1.9074
15197TIP3   OH267005   5.028   0.380   3.696 -0.2824 -0.3055  0.2829
15197TIP3    H167006   4.987   0.299   3.666  0.1308 -1.0109  1.5960
15197TIP3    H267007   5.000   0.446   3.631 -0.6257 -1.4707 -0.7907
15198TIP3   OH267008   3.117   4.961   6.056  0.2143  0.0110 -0.6640
15198TIP3    H167009   3.110   4.960   5.960 -2.6599 -1.4143 -0.5442
15198TIP3    H267010   3.046   4.905   6.086  0.8680  0.6143  2.3606
15199TIP3   OH267011   2.555   4.256  10.936  0.1611  0.4636  0.3235
15199TIP3    H167012   2.465   4.273  10.963  0.2733 -0.0304  1.0430
15199TIP3    H267013   2.550   4.172  10.890  0.0917  0.9395 -0.5476
15200TIP3   OH267014   4.375   1.231   3.450 -0.2136 -0.0159 -0.4176
15200TIP3    H167015   4.296   1.177   3.443 -0.8280  0.8523 -0.3401
15200TIP3    H267016   4.429   1.204   3.375 -1.7272  1.2005 -2.0173
15201TIP3   OH267017   4.267   4.421   2.037  0.6309 -0.2123 -0.3973
15201TIP3    H167018   4.361   4.415   2.021  0.6803 -2.5971  0.3298
15201TIP3    H267019   4.237   4.491   1.979  2.8379  0.6606 -0.5883
15202TIP3   OH267020   0.516   5.425  13.654  0.4871  0.5428  0.7292
15202TIP3    H167021   0.513   5.506  13.603  1.6322  0.4782  0.5260
15202TIP3    H267022   0.519   5.356  13.587 -3.5922  0.0606  0.8092
15203TIP3   OH267023   5.849   4.450   4.387  0.0834  0.2901  0.2951
15203TIP3    H167024   5.759   4.481   4.391 -0.1333 -0.3497  0.5871
15203TIP3    H267025   5.859   4.416   4.298  0.8075  2.5690 -0.5476
15204TIP3   OH267026   4.903   0.394  12.188  0.0156 -0.5404 -0.5702
15204TIP3    H167027   4.860   0.366  12.107 -1.4809 -1.5816  0.5441
15204TIP3    H267028   4.977   0.334  12.197 -0.7686 -1.4868 -0.3358
15205TIP3   OH267029   0.492   5.344  11.817 -0.3565  0.9705  0.2552
15205TIP3    H167030   0.538   5.425  11.839  0.3625  1.0493 -1.4054
15205TIP3    H267031   0.478   5.349  11.723 -0.7774 -0.6049  0.2047
15206TIP3   OH267032   0.272   2.606   3.229 -0.4224  0.6973 -0.0716
15206TIP3    H167033   0.313   2.528   3.190 -1.0233  0.0190  0.6119
15206TIP3    H267034   0.340   2.673   3.227  0.2171  0.0499 -0.3584
15207TIP3   OH267035   1.088   5.696   5.851 -0.2127 -0.4345 -0.0551
15207TIP3    H167036   1.154   5.726   5.789 -1.1418  0.4202 -0.6628
15207TIP3    H267037   1.133   5.630   5.904  1.1680  0.2652 -0.3218
15208TIP3   OH267038   3.395   1.337   0.036  0.8999  0.3544 -0.4004
15208TIP3    H167039   3.341   1.282  -0.020  0.7325  0.9503 -0.8371
15208TIP3    H267040   3.359   1.425   0.025  0.0086  0.3070  1.6594
15209TIP3   OH267041   2.286   5.706  12.775 -0.5298  0.5787 -0.0873
15209TIP3    H167042   2.235   5.775  12.733  0.0124  1.0118 -0.0542
15209TIP3    H267043   2.314   5.649  12.703  1.2257  1.8635 -0.4863
15210TIP3   OH267044   2.765   5.768  12.004  0.2761  0.3761  0.5655
15210TIP3    H167045   2.703   5.836  12.031 -0.0968  0.8214 -1.2951
15210TIP3    H267046   2.787   5.790  11.913 -1.8972 -3.3951 -1.0924
15211TIP3   OH267047   2.478   0.317   5.887 -0.3209  0.1713 -0.7960
15211TIP3    H167048   2.449   0.384   5.949  2.7964  2.0651 -1.1626
15211TIP3    H267049   2.475   0.235   5.936 -0.5419  1.1931  0.9625
15212TIP3   OH267050   1.142   5.589   3.439 -0.2378  0.1709  0.1156
15212TIP3    H167051   1.071   5.615   3.498 -2.1183 -1.0024 -1.5099
15212TIP3    H267052   1.160   5.498   3.463 -1.6628 -0.6287 -1.6007
15213TIP3   OH267053   1.757   5.875  11.219 -0.1202  0.2116 -0.4354
15213TIP3    H167054   1.843   5.838  11.239 -0.2268 -0.6003 -1.3820
15213TIP3    H267055   1.772   5.969  11.216  0.9229  0.0372 -1.3493
15214TIP3   OH267056   4.484   6.219  14.078 -0.3104 -0.0405  0.7901
15214TIP3    H167057   4.422   6.145  14.082 -1.5590  1.0300  2.2772
15214TIP3    H267058   4.566   6.183  14.112 -0.5649 -1.0494  0.3872
15215TIP3   OH267059   4.927   2.269   0.560 -0.0235  0.0336 -0.1833
15215TIP3    H167060   4.950   2.299   0.648  1.3911 -1.4758 -0.0006
15215TIP3    H267061   4.836   2.298   0.548  0.4740  2.2745  0.8487
15216TIP3   OH267062   2.458   5.426   5.985  0.8735 -0.2883 -0.3184
15216TIP3    H167063   2.452   5.466   5.898  2.0158  0.1375 -0.2225
15216TIP3    H267064   2.409   5.344   5.977 -1.9204  1.2534 -0.3859
15217TIP3   OH267065   1.592   2.736  11.485 -0.0500  0.1519 -0.1861
15217TIP3    H167066   1.619   2.826  11.467 -1.5441  0.4100 -1.3370
15217TIP3    H267067   1.606   2.690  11.402 -0.6838 -0.3222 -0.0388
15218TIP3   OH267068   4.331   1.854   2.850  0.2495 -0.0308 -0.0483
15218TIP3    H167069   4.258   1.815   2.800  0.5457 -0.2392 -0.3261
15218TIP3    H267070   4.396   1.876   2.783  0.9891 -1.0508  0.3153
15219TIP3   OH267071   1.864   3.855  14.355 -0.2950  0.1178 -0.1009
15219TIP3    H167072   1.913   3.923  14.402 -2.0443  1.1963  0.2310
15219TIP3    H267073   1.894   3.773  14.393 -0.1778  0.8590  1.4580
15220TIP3   OH267074   2.968   0.740  17.056 -0.3456  0.2451 -0.2877
15220TIP3    H167075   2.914   0.663  17.074 -0.6475  0.4903 -0.1431
15220TIP3    H267076   2.951   0.799  17.130 -0.6069  0.7173 -0.7193
15221TIP3   OH267077   6.358   6.262  13.617  0.0478 -0.0347 -0.3624
15221TIP3    H167078   6.294   6.283  13.549  1.0057  0.1050 -1.2401
15221TIP3    H267079   6.406   6.187  13.582  1.2354  0.6818 -0.3007
15222TIP3   OH267080   1.197   4.535  15.701  0.1486  0.7361  0.1152
15222TIP3    H167081   1.126   4.571  15.648  2.1966  1.9029 -2.0371
15222TIP3    H267082   1.188   4.440  15.692 -2.1675  0.7385  1.4735
15223TIP3   OH267083   1.903   0.723  14.303 -0.4529 -0.6298 -0.5665
15223TIP3    H167084   1.901   0.727  14.207 -0.1741  0.4355 -0.5434
15223TIP3    H267085   1.908   0.814  14.330 -0.1960 -0.9393  0.4607
15224TIP3   OH267086   6.345   5.844  12.384  0.4717  0.4513  0.1912
15224TIP3    H167087   6.249   5.841  12.389  0.4788 -0.6013  0.0582
15224TIP3    H267088   6.363   5.903  12.311 -0.0406  1.5768  0.9541
15225TIP3   OH267089   4.092   5.883   4.265  0.3068  0.3390  0.2596
15225TIP3    H167090   4.025   5.933   4.311  1.6101  0.5402  2.0321
15225TIP3    H267091   4.117   5.814   4.326  0.9237 -0.4354 -0.8237
15226TIP3   OH267092   0.520   4.518   1.076 -0.0171  0.7323  0.3596
15226TIP3    H167093   0.481   4.604   1.089  0.7143  1.2477 -0.7047
15226TIP3    H267094   0.612   4.536   1.055 -0.2060 -0.1922 -1.4462
15227TIP3   OH267095   6.548   0.743  13.907  0.5077 -0.0380 -0.0636
15227TIP3    H167096   6.579   0.813  13.850  0.1868  0.2807  0.1519
15227TIP3    H267097   6.533   0.669  13.848 -1.1932  0.7141 -0.6139
15228TIP3   OH267098   1.938   6.532   3.216 -0.7713 -0.2388 -0.4546
15228TIP3    H167099   1.917   6.523   3.123  0.4676  0.4907 -0.8226
15228TIP3    H267100   1.862   6.495   3.261 -2.6796  1.9551 -1.6893
15229TIP3   OH267101   3.842   5.343   1.906  0.7070  0.6773  0.2609
15229TIP3    H167102   3.925   5.389   1.920  0.2612  1.1491  1.4524
15229TIP3    H267103   3.794   5.398   1.844  0.6546  1.2131  0.7762
15230TIP3   OH267104   3.043   3.535  13.307 -0.1454 -0.3490  0.2748
15230TIP3    H167105   3.007   3.587  13.378 -0.3030  0.0274 -0.0784
15230TIP3    H267106   2.999   3.450  13.314 -1.7558  0.3601 -0.6517
15231TIP3   OH267107   0.397   2.936   1.606 -0.1531  0.2642  0.1300
15231TIP3    H167108   0.339   2.891   1.545  0.2726  0.1688 -0.2141
15231TIP3    H267109   0.340   2.995   1.655 -1.0458 -1.9014  1.8425
15232TIP3   OH267110   2.899   2.286  15.617 -0.3620 -0.4140 -0.2801
15232TIP3    H167111   2.822   2.327  15.656  0.0884 -1.7529  2.1865
15232TIP3    H267112   2.967   2.354  15.621 -0.8911  0.1428 -0.6864
15233TIP3   OH267113   4.513   0.488  13.106  0.2875  0.8963 -0.4858
15233TIP3    H167114   4.529   0.542  13.183 -0.7390 -1.2893  1.3466
15233TIP3    H267115   4.578   0.417  13.112 -0.4396  0.1530 -1.0747
15234TIP3   OH267116   6.335   2.211   5.475 -0.5292  0.0358  0.3545
15234TIP3    H167117   6.249   2.228   5.514 -0.6964 -2.2967  1.1819
15234TIP3    H267118   6.387   2.288   5.498 -1.7762  0.5153  1.7698
15235TIP3   OH267119   1.846   3.372   2.757  0.3871 -0.7422  0.0271
15235TIP3    H167120   1.822   3.285   2.725  2.2618 -1.3225  0.1024
15235TIP3    H267121   1.900   3.355   2.834 -0.5172  0.5522  0.9938
15236TIP3   OH267122   1.037   0.901  13.997 -0.0480  0.0338 -0.7560
15236TIP3    H167123   0.956   0.876  13.953 -0.4657 -2.6795  1.3408
15236TIP3    H267124   1.009   0.937  14.081  0.7616  4.6281 -2.1512
15237TIP3   OH267125   6.137   1.173   0.116  0.2312  0.5488 -0.2316
15237TIP3    H167126   6.114   1.264   0.133 -1.3660 -0.1420  1.8565
15237TIP3    H267127   6.097   1.153   0.032  0.2798  1.6665 -0.5342
15238TIP3   OH267128   0.199   0.210   1.540  0.2242  0.8078 -0.2163
15238TIP3    H167129   0.104   0.203   1.541  0.2268  0.0397 -1.9427
15238TIP3    H267130   0.220   0.246   1.454  1.5659 -0.7653 -0.5958
15239TIP3   OH267131   6.030   6.174  11.298  0.3323  0.4912 -0.6724
15239TIP3    H167132   6.072   6.160  11.213 -0.5121 -0.9380 -0.8929
15239TIP3    H267133   6.014   6.268  11.303 -0.6617  0.4682 -2.6238
15240TIP3   OH267134   2.377   0.423  13.367 -0.0266  0.3196  0.0114
15240TIP3    H167135   2.405   0.407  13.277 -0.8268 -1.2024  0.0067
15240TIP3    H267136   2.283   0.440  13.361 -0.1995 -0.3544  0.5877
15241TIP3   OH267137   3.319   3.069   1.653 -0.0937  0.0490  0.6799
15241TIP3    H167138   3.362   3.089   1.736 -2.0917  0.7114  1.6271
15241TIP3    H267139   3.362   3.125   1.589  1.3162 -0.2925  1.2931
15242TIP3   OH267140   6.332   2.413   5.009 -0.2376  0.0752  0.1965
15242TIP3    H167141   6.399   2.470   5.046 -0.3265  0.3127 -0.0102
15242TIP3    H267142   6.287   2.466   4.944 -0.7385 -0.0226  0.4487
15243TIP3   OH267143   1.619   3.446   3.039 -0.7762 -0.1110 -0.2172
15243TIP3    H167144   1.645   3.355   3.057  1.0730  0.3916 -0.1195
15243TIP3    H267145   1.687   3.479   2.981 -2.2926  0.7623 -1.5801
15244TIP3   OH267146   5.644   3.056   4.994  0.1353  0.1667 -0.1775
15244TIP3    H167147   5.675   3.119   4.929  1.5882  1.8841  2.0369
15244TIP3    H267148   5.723   3.027   5.039 -0.7069 -1.8958  0.0769
15245TIP3   OH267149   3.859   0.842   5.731  0.0301  0.3644  0.0533
15245TIP3    H167150   3.886   0.903   5.800  0.7054 -1.0690  1.0992
15245TIP3    H267151   3.770   0.868   5.710  0.0027  1.1707  1.0869
15246TIP3   OH267152   5.760   0.058   1.387 -0.6164  0.2904  0.1522
15246TIP3    H167153   5.687   0.011   1.427 -0.5483 -0.4686 -0.6046
15246TIP3    H267154   5.765   0.140   1.437 -0.9169 -0.3706  1.2976
15247TIP3   OH267155   1.608   1.980  12.963 -0.1217 -0.3462  0.0662
15247TIP3    H167156   1.550   1.972  12.888 -2.2595  2.1367  1.2765
15247TIP3    H267157   1.652   2.064  12.951  0.3492 -0.4316  1.0489
15248TIP3   OH267158   2.651   4.915   6.335 -0.0234 -0.4064  0.0954
15248TIP3    H167159   2.603   4.910   6.418 -1.6807  0.6532 -0.7276
15248TIP3    H267160   2.609   4.988   6.289  2.1660  0.3045 -0.8659
15249TIP3   OH267161   5.314   1.969  14.307 -0.2510  0.5059 -0.3367
15249TIP3    H167162   5.386   1.907  14.319 -0.8132 -0.4427 -1.6064
15249TIP3    H267163   5.314   1.988  14.214 -1.1322  1.1382 -0.2201
15250TIP3   OH267164   3.562   3.612  12.035 -0.4192  0.1016  0.3628
15250TIP3    H167165   3.480   3.606  12.084 -1.6358 -0.8963 -1.6417
15250TIP3    H267166   3.608   3.531  12.055 -0.4965  0.1052  0.5534
15251TIP3   OH267167   4.703   0.306   1.586 -0.0900  0.2168 -0.2006
15251TIP3    H167168   4.659   0.263   1.659  0.9316 -0.5508 -0.0095
15251TIP3    H267169   4.734   0.389   1.622 -0.9978  0.5770 -0.2249
15252TIP3   OH267170   5.790   3.413  12.158  0.0939 -0.6044 -0.0628
15252TIP3    H167171   5.729   3.353  12.114  1.3118 -0.8182 -1.5757
15252TIP3    H267172   5.851   3.355  12.203 -1.1542 -0.3803  2.0230
15253TIP3   OH267173   1.899   0.684  13.091  0.3072 -0.5128  0.3495
15253TIP3    H167174   1.813   0.683  13.133 -0.6323 -2.6461 -1.4203
15253TIP3    H267175   1.905   0.598  13.048  2.6209  0.2402 -0.9782
15254TIP3   OH267176   6.500   5.248   4.105 -0.2997  0.5025  0.2664
15254TIP3    H167177   6.564   5.219   4.171 -2.7836 -3.4297  1.3071
15254TIP3    H267178   6.536   5.220   4.022  0.0347 -0.2941  0.6742
15255TIP3   OH267179   6.494   5.727  17.059 -0.0656  0.2240  0.2080
15255TIP3    H167180   6.581   5.695  17.034 -0.1864 -1.4157  1.7242
15255TIP3    H267181   6.469   5.785  16.987  1.8706 -0.0057 -0.7253
15256TIP3   OH267182   2.703   2.055   6.086 -0.1258  0.0553  0.0780
15256TIP3    H167183   2.765   1.992   6.048  0.1783 -0.7761  1.8590
15256TIP3    H267184   2.755   2.103   6.151 -0.7202  1.1882 -0.2587
15257TIP3   OH267185   6.268   1.533  10.991  0.1884 -0.7527  0.1479
15257TIP3    H167186   6.340   1.514  11.052  1.2896 -1.4816 -1.3171
15257TIP3    H267187   6.217   1.452  10.988  0.0818 -0.6860  0.1733
15258TIP3   OH267188   1.704   3.298  13.241  0.2875  0.3067  0.0376
15258TIP3    H167189   1.727   3.216  13.284  0.1220  0.8177  1.1453
15258TIP3    H267190   1.733   3.366  13.302 -0.0770  1.0559 -0.6084
15259TIP3   OH267191   5.380   3.635  13.540  0.5592 -0.1725  0.4952
15259TIP3    H167192   5.394   3.663  13.449  0.3492  1.2459  0.8705
15259TIP3    H267193   5.467   3.612  13.572  0.8542  0.7462  0.3739
15260TIP3   OH267194   4.428   3.782  16.397 -0.6423  0.6598  0.5383
15260TIP3    H167195   4.477   3.841  16.453  1.8394  0.8010 -1.5889
15260TIP3    H267196   4.470   3.697  16.408  0.9922  1.0115 -2.1407
15261TIP3   OH267197   6.743   2.008  16.442  0.0589 -0.4059 -0.4998
15261TIP3    H167198   6.670   2.047  16.491  0.7681  0.8682 -0.4087
15261TIP3    H267199   6.787   2.082  16.401  1.9942 -0.9936  0.3831
15262TIP3   OH267200   3.105   5.722   0.283  0.0850 -0.2708  0.0950
15262TIP3    H167201   3.138   5.802   0.325 -0.4763  0.1176 -0.1800
15262TIP3    H267202   3.094   5.660   0.355  1.3871 -0.4148  0.1954
15263TIP3   OH267203   3.017   3.529  11.943 -0.4336 -0.6484 -0.5707
15263TIP3    H167204   2.993   3.615  11.908  0.2353  0.2499  1.0521
15263TIP3    H267205   2.934   3.489  11.969 -0.6002  0.4185  0.6092
15264TIP3   OH267206   0.925   6.363   5.559 -0.4399 -0.4232  0.4131
15264TIP3    H167207   0.963   6.431   5.615  0.0406 -0.6726  0.3959
15264TIP3    H267208   0.883   6.410   5.487  0.6197 -0.1771 -0.0516
15265TIP3   OH267209   0.592   5.741  15.112  0.4929 -0.4601 -0.3231
15265TIP3    H167210   0.533   5.775  15.179  1.9659  0.9215  0.3436
15265TIP3    H267211   0.580   5.646  15.114 -1.7066 -0.2242 -0.2588
15266TIP3   OH267212   5.256   3.674   3.527 -0.1627 -0.5753 -0.3442
15266TIP3    H167213   5.303   3.625   3.595  1.6200 -0.3602 -1.3431
15266TIP3    H267214   5.283   3.765   3.541  1.1069 -0.6487 -1.9154
15267TIP3   OH267215   2.969   2.393  11.123  0.5680 -0.2142  0.9706
15267TIP3    H167216   2.874   2.401  11.110  0.7075  0.2819  0.1893
15267TIP3    H267217   3.007   2.454  11.059  1.3156  2.6939  3.9058
15268TIP3   OH267218   3.500   4.579  11.603  0.1072  0.1758 -0.3455
15268TIP3    H167219   3.546   4.515  11.658 -1.2451 -0.1087  0.5100
15268TIP3    H267220   3.509   4.662  11.651  1.1819  0.4900 -1.0558
15269TIP3   OH267221   3.906   5.828  12.306  0.6342 -0.4098 -0.3030
15269TIP3    H167222   3.975   5.892  12.326 -0.0769  0.6486 -1.2049
15269TIP3    H267223   3.837   5.847  12.369  1.4572 -2.0367  1.1857
15270TIP3   OH267224   1.694   0.295  12.646  0.0448 -0.0764 -0.2015
15270TIP3    H167225   1.777   0.255  12.622  0.9246  0.8383  1.1401
15270TIP3    H267226   1.719   0.378  12.688 -1.3190 -1.1160  3.0028
15271TIP3   OH267227   4.161   1.233  17.013 -0.0230 -0.0900 -0.5956
15271TIP3    H167228   4.149   1.261  16.923 -1.0568 -0.7492 -0.6944
15271TIP3    H267229   4.080   1.186  17.034 -0.1217  0.6755  0.9151
15272TIP3   OH267230   0.972   1.502  15.866 -0.2499 -0.6951  0.3984
15272TIP3    H167231   1.044   1.551  15.825 -0.2254 -0.0418  1.1918
15272TIP3    H267232   0.960   1.425  15.810 -0.8380  0.6130 -1.3646
15273TIP3   OH267233   3.796   2.437  13.646 -0.8156 -0.3419 -0.2624
15273TIP3    H167234   3.791   2.532  13.635  1.1229 -0.1529  0.1105
15273TIP3    H267235   3.705   2.407  13.640 -1.4093  1.4574 -0.9721
15274TIP3   OH267236   5.408   3.103   4.096  0.2409  0.4586  0.2452
15274TIP3    H167237   5.382   3.026   4.046 -0.4563  0.1175  1.1051
15274TIP3    H267238   5.471   3.069   4.161  0.8435  0.8281 -0.1311
15275TIP3   OH267239   2.802   2.988   2.096  0.3710 -0.4670  0.0279
15275TIP3    H167240   2.880   3.015   2.048  0.8433 -0.9214  0.5324
15275TIP3    H267241   2.753   3.069   2.111  0.8293 -0.1592 -0.1397
15276TIP3   OH267242   4.088   2.641  13.826 -0.3000  0.4833  0.9681
15276TIP3    H167243   4.146   2.585  13.775  1.3332  0.4861  2.7066
15276TIP3    H267244   4.078   2.596  13.910 -1.4327  1.3330  1.3205
15277TIP3   OH267245   1.894   5.586   1.550  0.2098  0.2864  0.4515
15277TIP3    H167246   1.816   5.545   1.587  0.3820  0.4103  0.9517
15277TIP3    H267247   1.901   5.547   1.462  0.3397 -0.7151  0.8943
15278TIP3   OH267248   0.389   3.386  11.830  0.2769 -0.2360  0.2245
15278TIP3    H167249   0.369   3.458  11.771  0.7025 -0.3479 -0.0651
15278TIP3    H267250   0.304   3.349  11.854  0.1174 -0.6524 -0.9046
15279TIP3   OH267251   5.606   2.694   5.603  0.2286 -0.2504  0.5256
15279TIP3    H167252   5.606   2.784   5.570  0.6654 -0.7085 -0.7965
15279TIP3    H267253   5.687   2.688   5.655  2.5211 -1.0074 -2.8199
15280TIP3   OH267254   4.236   2.564   2.184 -0.0659 -0.0783  0.0546
15280TIP3    H167255   4.148   2.556   2.221  0.2124  0.8069  0.9204
15280TIP3    H267256   4.225   2.627   2.112 -0.3608 -0.8782 -0.6254
15281TIP3   OH267257   5.154   4.889  16.279  0.4432 -0.1820 -0.1426
15281TIP3    H167258   5.138   4.921  16.191 -1.0723  1.3494  0.6200
15281TIP3    H267259   5.220   4.949  16.315 -1.5885  1.5734  0.9121
15282TIP3   OH267260   1.346   1.354   1.973  0.0058 -0.3108 -0.3119
15282TIP3    H167261   1.274   1.412   1.949  0.3256 -0.4828 -1.7279
15282TIP3    H267262   1.425   1.401   1.946  0.4207 -0.2941  0.8814
15283TIP3   OH267263   6.470   4.049  15.558 -0.1908 -0.3610 -0.0419
15283TIP3    H167264   6.547   4.082  15.603 -0.2602 -0.7118  0.3439
15283TIP3    H267265   6.412   4.124  15.550  0.6196  0.1630 -1.2873
15284TIP3   OH267266   4.402   2.558   4.449 -0.1416 -0.0055  0.2875
15284TIP3    H167267   4.468   2.613   4.406 -0.3385  1.2049  1.4752
15284TIP3    H267268   4.445   2.525   4.527  0.0109 -1.7033 -0.4663
15285TIP3   OH267269   1.567   1.655  15.438 -0.4171  0.1918 -0.1725
15285TIP3    H167270   1.543   1.738  15.398 -0.4938  0.6017  0.7028
15285TIP3    H267271   1.518   1.589  15.388  0.0051  0.6183 -1.1731
15286TIP3   OH267272   3.581   1.739   6.564 -0.8079 -0.3553 -0.6737
15286TIP3    H167273   3.490   1.740   6.591 -1.1177  0.9077 -1.6589
15286TIP3    H267274   3.613   1.828   6.583  0.0017 -0.5550 -1.0253
15287TIP3   OH267275   4.293   2.284  15.164 -0.2008  0.4703  0.3833
15287TIP3    H167276   4.385   2.258  15.163  0.3828  2.4382 -0.3617
15287TIP3    H267277   4.259   2.256  15.079 -0.2449 -0.0607  0.5728
15288TIP3   OH267278   3.035   1.823   0.455  0.4013 -0.1315  0.5811
15288TIP3    H167279   3.109   1.771   0.485  0.7628 -1.2421 -1.9846
15288TIP3    H267280   2.963   1.799   0.514  1.2336 -1.5727  1.0569
15289TIP3   OH267281   2.556   0.896   2.555  0.4939 -0.1920 -0.7056
15289TIP3    H167282   2.518   0.814   2.524 -1.4824 -0.6868  2.4942
15289TIP3    H267283   2.644   0.873   2.583 -0.0291 -1.2777  0.1155
15290TIP3   OH267284   4.028   3.738  16.221  0.2519  0.4976  0.1046
15290TIP3    H167285   4.016   3.645  16.236 -0.8573  0.4956 -0.6128
15290TIP3    H267286   4.082   3.744  16.142 -0.5236  0.4288 -0.4508
15291TIP3   OH267287   5.749   3.697  13.367  0.1925 -0.1407 -0.1346
15291TIP3    H167288   5.822   3.744  13.326  0.7680 -0.0859  0.9119
15291TIP3    H267289   5.764   3.708  13.461 -0.2001 -1.5979  0.1141
15292TIP3   OH267290   2.339   3.826   1.473  0.3807  0.2485  0.4501
15292TIP3    H167291   2.346   3.793   1.383  0.8906 -0.5478  0.7692
15292TIP3    H267292   2.259   3.786   1.507 -0.2679  1.2019  0.1054
15293TIP3   OH267293   6.398   3.664  11.964  0.0015  0.3185  0.2211
15293TIP3    H167294   6.370   3.702  12.047 -0.8028 -0.6599  0.4187
15293TIP3    H267295   6.319   3.660  11.912  0.5581  1.1961 -0.7275
15294TIP3   OH267296   4.461   3.693  15.281  0.2911  0.3935 -0.1872
15294TIP3    H167297   4.452   3.610  15.234  1.6008  1.3731 -2.3014
15294TIP3    H267298   4.503   3.669  15.363  0.3948 -1.0746 -0.6231
15295TIP3   OH267299   5.381   1.183   5.315 -0.0796 -0.1790 -0.9131
15295TIP3    H167300   5.294   1.204   5.348 -0.1919  1.6400 -2.2234
15295TIP3    H267301   5.384   1.222   5.228  1.7079 -1.0850 -1.3068
15296TIP3   OH267302   3.677   5.355   3.612  0.3714 -0.5664 -0.0998
15296TIP3    H167303   3.726   5.294   3.666  0.5214  0.2950  0.7764
15296TIP3    H267304   3.705   5.442   3.642  0.5071 -0.0534 -1.6116
15297TIP3   OH267305   4.206   6.258  14.332 -0.9061  0.1107 -0.4636
15297TIP3    H167306   4.212   6.277  14.238  3.1434  0.8831 -0.2388
15297TIP3    H267307   4.213   6.344  14.374 -1.0949 -0.3654  0.5637
15298TIP3   OH267308   0.047   2.444   5.870  0.0389 -0.3357 -0.1518
15298TIP3    H167309   0.050   2.500   5.947 -0.6697 -0.1164 -0.2692
15298TIP3    H267310   0.066   2.356   5.902 -2.0066 -0.5520  0.6033
15299TIP3   OH267311   3.954   3.922  11.755 -0.2879  0.1740 -0.3378
15299TIP3    H167312   3.906   4.005  11.761 -1.0784 -0.3374  1.1113
15299TIP3    H267313   3.928   3.886  11.670 -1.4296  0.5609 -0.1829
15300TIP3   OH267314   0.718   0.653   3.820 -0.0864 -0.0351  0.6615
15300TIP3    H167315   0.762   0.578   3.860  0.0334  0.4349  1.4249
15300TIP3    H267316   0.691   0.622   3.734  0.5783 -0.7417  0.6990
15301TIP3   OH267317   2.934   5.484  14.702 -0.9709  0.4238  0.4036
15301TIP3    H167318   2.992   5.488  14.779 -2.0144  0.9786  1.1816
15301TIP3    H267319   2.963   5.555  14.646 -0.9894  0.7963  0.8617
15302TIP3   OH267320   1.156   6.383  15.707  0.1929  0.3465  0.3016
15302TIP3    H167321   1.065   6.414  15.698 -0.6461 -1.8648  0.6538
15302TIP3    H267322   1.155   6.293  15.674  1.3919 -1.0410  3.6340
15303TIP3   OH267323   1.172   4.959   2.009  0.4752 -0.4435  0.1293
15303TIP3    H167324   1.113   5.030   2.032  1.5750 -0.0010  1.7923
15303TIP3    H267325   1.154   4.891   2.074 -0.0564 -1.4146 -1.0024
15304TIP3   OH267326   3.520   0.379   2.266  0.6570  0.6284  0.4559
15304TIP3    H167327   3.609   0.366   2.300  1.0167  0.0398 -0.6611
15304TIP3    H267328   3.488   0.290   2.251  0.4703  0.8607 -0.6063
15305TIP3   OH267329   6.573   5.120  14.131 -0.3222 -0.0515  0.2102
15305TIP3    H167330   6.606   5.099  14.044 -0.5185 -2.4803  0.6538
15305TIP3    H267331   6.637   5.181  14.167  1.9533 -2.0838 -0.1855
15306TIP3   OH267332   6.097   3.734   1.111 -0.3879 -0.6630  0.3716
15306TIP3    H167333   6.041   3.661   1.139 -3.0493  0.9587 -0.3093
15306TIP3    H267334   6.086   3.800   1.180 -0.6656  0.3052 -0.5620
15307TIP3   OH267335   6.211   5.411  17.295 -0.3314  0.4479  0.0838
15307TIP3    H167336   6.129   5.450  17.264 -1.3740 -1.8583 -0.2668
15307TIP3    H267337   6.272   5.424  17.222 -0.4990  1.7526  0.1521
15308TIP3   OH267338   5.785   1.178  16.856 -0.0629 -0.4826 -0.3077
15308TIP3    H167339   5.741   1.127  16.788 -1.7835  2.5162 -1.6106
15308TIP3    H267340   5.748   1.144  16.938 -0.5047 -1.8592 -1.0410
15309TIP3   OH267341   6.007   2.853  13.815 -0.2572  0.2431 -0.2959
15309TIP3    H167342   6.096   2.820  13.831 -0.0475  1.1963  0.6955
15309TIP3    H267343   5.949   2.784  13.848  0.1081 -0.3894 -0.9551
15310TIP3   OH267344   6.403   2.572   4.297  0.3313 -0.6162 -0.1718
15310TIP3    H167345   6.489   2.539   4.271  0.4584  0.3333 -1.0259
15310TIP3    H267346   6.381   2.522   4.375  2.2780  0.0970  0.8882
15311TIP3   OH267347   3.428   1.885  15.187  0.6735  0.0801  0.8914
15311TIP3    H167348   3.388   1.972  15.178  0.2463 -0.1790  0.2164
15311TIP3    H267349   3.355   1.827  15.206  0.9242 -0.1824  1.0675
15312TIP3   OH267350   4.555   1.842   0.144  0.4021  0.7755 -0.3273
15312TIP3    H167351   4.565   1.933   0.170 -0.1396  1.0554 -1.0513
15312TIP3    H267352   4.629   1.825   0.086 -1.9947  2.2905 -4.1994
15313TIP3   OH267353   2.760   1.554   1.378 -0.4298  0.3205  0.2450
15313TIP3    H167354   2.693   1.525   1.316 -0.4002  0.1931  0.2719
15313TIP3    H267355   2.827   1.486   1.375 -0.4900  0.2467  0.5138
15314TIP3   OH267356   2.198   0.655   2.907  0.0238  0.2728 -0.2986
15314TIP3    H167357   2.164   0.674   2.819  1.4625  0.5179 -0.8416
15314TIP3    H267358   2.142   0.705   2.966 -0.0735  1.3001 -1.2155
15315TIP3   OH267359   3.265   3.075   3.293  0.3288 -0.2923 -0.4663
15315TIP3    H167360   3.250   3.148   3.353 -2.2758 -1.3131  0.2757
15315TIP3    H267361   3.223   3.102   3.212  1.8990  0.1587 -1.1745
15316TIP3   OH267362   5.275   1.840   5.299 -0.1120 -0.1278 -0.6029
15316TIP3    H167363   5.270   1.927   5.261 -1.4528  0.3859  0.6481
15316TIP3    H267364   5.344   1.845   5.365 -1.3979  0.5601  0.7467
15317TIP3   OH267365   3.849   3.283  15.454 -0.4774 -0.2190 -0.3449
15317TIP3    H167366   3.816   3.367  15.424 -2.8883 -0.6848  0.8214
15317TIP3    H267367   3.793   3.218  15.411  0.6338 -1.2156 -0.3582
15318TIP3   OH267368   4.127   1.427  16.410 -0.1769 -0.6427  0.4607
15318TIP3    H167369   4.187   1.357  16.438  0.6299 -0.2392 -0.2155
15318TIP3    H267370   4.177   1.507  16.421 -1.1177 -0.1506  1.2686
15319TIP3   OH267371   4.308   4.038   2.004 -0.3516 -0.1650  0.5304
15319TIP3    H167372   4.304   3.970   2.071 -0.0359 -0.1967  0.5220
15319TIP3    H267373   4.397   4.073   2.012  0.3814 -1.4986 -1.1721
15320TIP3   OH267374   6.640   1.583   1.037 -0.7352  0.6654  0.5909
15320TIP3    H167375   6.561   1.543   0.999  0.0605 -1.1677  0.7446
15320TIP3    H267376   6.684   1.625   0.963 -0.3278 -0.9651 -0.1591
15321TIP3   OH267377   0.185   1.528  12.423  0.1285 -0.0409 -0.2455
15321TIP3    H167378   0.108   1.586  12.427  0.4816  0.4424 -0.4382
15321TIP3    H267379   0.174   1.479  12.342  0.2714  0.3711 -0.5115
15322TIP3   OH267380   3.093   2.412   4.679 -0.0243  0.4840 -0.0302
15322TIP3    H167381   3.093   2.366   4.595  0.2425 -0.2439  0.3560
15322TIP3    H267382   3.185   2.419   4.703 -0.0967  0.7110  0.1859
15323TIP3   OH267383   1.630   0.322  14.627  0.3115  0.2170  0.1182
15323TIP3    H167384   1.581   0.361  14.555  0.4375 -0.4043 -0.3080
15323TIP3    H267385   1.571   0.255  14.662  1.0430 -0.9190 -0.7463
15324TIP3   OH267386   3.520   6.481   3.630 -0.5641  0.0789  0.8695
15324TIP3    H167387   3.432   6.466   3.595 -0.5577 -0.1395  0.9426
15324TIP3    H267388   3.524   6.427   3.709 -0.9844  1.4567  1.8737
15325TIP3   OH267389   5.024   4.325   3.408 -0.2025  0.2871 -0.6626
15325TIP3    H167390   4.947   4.340   3.353 -0.2689  0.8121 -0.4266
15325TIP3    H267391   5.006   4.242   3.452 -0.8759  0.6797 -0.1887
15326TIP3   OH267392   0.905   6.480   4.690  0.0192 -0.0774  0.3833
15326TIP3    H167393   0.874   6.423   4.760  1.6119 -1.2534  0.1985
15326TIP3    H267394   0.933   6.419   4.621 -1.1124  1.0287 -1.1397
15327TIP3   OH267395   3.499   6.457   1.992 -0.1785  0.2484  0.0284
15327TIP3    H167396   3.407   6.454   1.966  0.2256 -0.3642 -1.4534
15327TIP3    H267397   3.532   6.368   1.974  0.1490 -0.2859  2.8146
15328TIP3   OH267398   3.714   3.588   0.336 -0.2654  0.8396  0.0216
15328TIP3    H167399   3.685   3.677   0.355  1.0907  1.0504  1.2092
15328TIP3    H267400   3.761   3.560   0.415  0.0874 -0.6046 -0.6667
15329TIP3   OH267401   4.473   4.700   0.406  0.5304 -0.5097  0.4260
15329TIP3    H167402   4.405   4.633   0.415 -1.0300  1.2590  2.4995
15329TIP3    H267403   4.487   4.706   0.311 -1.5563 -1.5262 -0.0114
15330TIP3   OH267404   0.585   6.302   3.500 -0.3421  0.2305  0.0571
15330TIP3    H167405   0.657   6.250   3.464 -0.2607  0.5507 -0.2543
15330TIP3    H267406   0.624   6.386   3.522 -0.7545  0.6492 -0.7633
15331TIP3   OH267407   0.477   4.986  15.077  0.0534 -0.0544 -0.9047
15331TIP3    H167408   0.506   4.901  15.108  0.6254  0.6944  0.7227
15331TIP3    H267409   0.529   5.002  14.998  2.5551  0.2587  0.6885
15332TIP3   OH267410   1.680   0.958   4.025 -0.2077 -0.2292 -0.0122
15332TIP3    H167411   1.658   0.934   4.115 -0.5904  1.4009  0.3535
15332TIP3    H267412   1.645   0.886   3.972  1.0440 -1.8127  1.1841
15333TIP3   OH267413   3.939   4.844   4.641 -0.2465  0.1220  0.0054
15333TIP3    H167414   3.930   4.867   4.549  0.3782 -1.6002 -0.5145
15333TIP3    H267415   3.984   4.920   4.680  2.1046 -0.2778 -1.6927
15334TIP3   OH267416   4.905   3.724   2.939 -0.5079 -0.0390  0.5388
15334TIP3    H167417   4.958   3.703   3.016 -0.4698 -0.0364  0.5138
15334TIP3    H267418   4.962   3.781   2.886 -0.9330  0.8656  1.0264
15335TIP3   OH267419   3.228   6.070  15.073 -0.1632  0.1104 -0.8250
15335TIP3    H167420   3.224   5.988  15.123 -0.5388 -0.7512 -2.2096
15335TIP3    H267421   3.319   6.098  15.081 -0.2980  0.2086  0.6479
15336TIP3   OH267422   4.242   3.271  16.405  0.2925  0.7875 -0.0920
15336TIP3    H167423   4.152   3.256  16.378  0.1829  0.3991  0.4855
15336TIP3    H267424   4.259   3.205  16.471  0.8539  1.1524  0.1390
15337TIP3   OH267425   0.012   0.757  15.070 -0.4415  0.2193  0.2866
15337TIP3    H167426   0.032   0.731  15.160  0.9846  1.8527  0.5100
15337TIP3    H267427  -0.074   0.720  15.052 -0.9841  0.2797  2.5065
15338TIP3   OH267428   2.570   1.565  12.771  1.0925  0.3971  0.0444
15338TIP3    H167429   2.617   1.638  12.812  0.4282  1.6807 -1.3792
15338TIP3    H267430   2.631   1.491  12.777  1.5641  0.8841  2.0183
15339TIP3   OH267431   4.048   3.065  14.589 -0.6689 -0.0616  0.4161
15339TIP3    H167432   3.967   3.026  14.555  0.0603 -0.0776 -1.4248
15339TIP3    H267433   4.032   3.159  14.587 -0.9573 -0.0994  0.9081
15340TIP3   OH267434   2.462   2.952  12.482  0.0580  0.0513 -1.1518
15340TIP3    H167435   2.519   3.019  12.445 -0.0153 -0.6034 -2.5121
15340TIP3    H267436   2.414   2.997  12.551  2.1851  0.6209  0.0406
15341TIP3   OH267437   3.927   6.100   4.367  0.0031  0.0092 -0.0533
15341TIP3    H167438   3.924   6.191   4.397 -0.9832 -0.0423  0.0263
15341TIP3    H267439   3.909   6.048   4.446 -0.1619 -0.2211 -0.2382
15342TIP3   OH267440   5.670   2.140   2.889  0.3640  0.3665  0.1302
15342TIP3    H167441   5.607   2.184   2.832 -0.8986 -2.8077 -1.1335
15342TIP3    H267442   5.617   2.102   2.959  1.6491  2.3075  2.3182
15343TIP3   OH267443   4.136   0.594  14.353 -0.3534  0.3003  0.0953
15343TIP3    H167444   4.164   0.682  14.327 -0.7599  0.5352  0.4472
15343TIP3    H267445   4.214   0.555  14.393 -0.5203  0.9833  1.1439
15344TIP3   OH267446   2.402   3.348   0.720 -0.4775 -0.2369 -0.5127
15344TIP3    H167447   2.317   3.346   0.764 -0.4471  1.3956 -0.3116
15344TIP3    H267448   2.461   3.305   0.782 -1.0566 -0.9022 -0.4137
15345TIP3   OH267449   1.828   1.698  10.588 -0.2112  0.2404 -0.2897
15345TIP3    H167450   1.897   1.764  10.597 -0.2607  0.4021 -1.0584
15345TIP3    H267451   1.860   1.623  10.637 -0.6645  1.2142  1.6154
15346TIP3   OH267452   2.928   2.034   5.717  0.1942  0.3695  0.0914
15346TIP3    H167453   2.963   2.039   5.806  0.9730  2.1170 -0.2603
15346TIP3    H267454   3.004   2.012   5.663  0.3897  2.2167 -0.4493
15347TIP3   OH267455   0.124   3.845  15.247  0.5038 -0.1397 -0.0687
15347TIP3    H167456   0.142   3.753  15.227 -0.9948 -0.1225 -1.7225
15347TIP3    H267457   0.174   3.894  15.181 -1.4605  0.0577 -1.5051
15348TIP3   OH267458   1.646   5.126   4.496  0.3199  0.0479 -0.1036
15348TIP3    H167459   1.644   5.181   4.418 -0.6611  0.8073  0.4316
15348TIP3    H267460   1.739   5.107   4.510  0.4444 -1.0508 -2.0867
15349TIP3   OH267461   3.341   4.600   2.253 -0.2300  0.2359  0.5797
15349TIP3    H167462   3.286   4.530   2.219 -1.6777  0.9363  1.3729
15349TIP3    H267463   3.407   4.555   2.307  0.0105 -0.6202 -0.4025
15350TIP3   OH267464   6.349   4.791   5.272 -0.1644  0.0872 -0.1620
15350TIP3    H167465   6.388   4.783   5.184 -0.6744  0.0157 -0.3820
15350TIP3    H267466   6.419   4.829   5.325 -0.7368  2.7894 -1.2244
15351TIP3   OH267467   3.681   0.651  16.878 -0.2361  0.0686 -0.6252
15351TIP3    H167468   3.697   0.601  16.958  2.2244  1.1974 -0.3101
15351TIP3    H267469   3.613   0.714  16.903  0.3485  0.2686  0.5472
15352TIP3   OH267470   3.553   3.021   5.786  0.2041 -0.2189  0.6733
15352TIP3    H167471   3.585   3.038   5.875 -0.0168  1.2581  0.5040
15352TIP3    H267472   3.523   3.106   5.755  0.2882 -0.7007 -0.8295
15353TIP3   OH267473   1.853   1.576   2.744  0.3027  0.0249  0.1421
15353TIP3    H167474   1.870   1.491   2.784 -0.0038 -0.6865 -1.1874
15353TIP3    H267475   1.909   1.637   2.792  1.9273 -1.2270 -0.0693
15354TIP3   OH267476   3.347   2.560  14.106  0.5566 -0.3400  0.7592
15354TIP3    H167477   3.398   2.537  14.183 -0.7155 -0.5349  1.5729
15354TIP3    H267478   3.295   2.635  14.133 -0.0360 -0.5191  0.1492
15355TIP3   OH267479   2.615   4.583  13.915  0.4281  0.2590 -0.9273
15355TIP3    H167480   2.613   4.668  13.959  0.6086 -1.1824  2.0604
15355TIP3    H267481   2.525   4.569  13.887  0.4962  1.6188 -1.9615
15356TIP3   OH267482   5.512   5.533  15.293 -0.0179 -0.2186 -0.1270
15356TIP3    H167483   5.523   5.628  15.291  1.4871 -0.3418  0.6833
15356TIP3    H267484   5.435   5.517  15.240 -1.2479  1.5910  0.9834
15357TIP3   OH267485   5.273   6.669   5.231  0.0023  0.1270  0.3003
15357TIP3    H167486   5.353   6.657   5.283  0.2610 -0.1562 -0.1474
15357TIP3    H267487   5.241   6.756   5.255 -0.7681 -0.6200  2.1003
15358TIP3   OH267488   2.031   6.466   4.253 -0.3795 -0.2949  0.5579
15358TIP3    H167489   2.090   6.408   4.205 -0.0431  2.1731 -2.3253
15358TIP3    H267490   2.082   6.547   4.266 -1.4720  0.1198  2.5930
15359TIP3   OH267491   6.248   1.661  15.155 -0.3273  0.6328 -0.1404
15359TIP3    H167492   6.159   1.680  15.183 -0.1951  1.1633 -0.0622
15359TIP3    H267493   6.273   1.584  15.205 -0.9226  0.1709 -0.5455
15360TIP3   OH267494   0.949   1.376   1.343 -0.3893 -0.7520 -0.6580
15360TIP3    H167495   0.854   1.365   1.349 -0.3612 -1.4144 -1.2446
15360TIP3    H267496   0.984   1.296   1.381 -0.0514 -0.3700 -0.1546
15361TIP3   OH267497   1.395   3.901  12.225 -0.1016 -0.0473  0.8051
15361TIP3    H167498   1.452   3.879  12.298  2.4420  1.7516 -0.4893
15361TIP3    H267499   1.420   3.838  12.156  1.7214  1.8105 -0.3456
15362TIP3   OH267500   3.285   2.745   5.898 -0.0758  0.0366  0.6335
15362TIP3    H167501   3.368   2.704   5.873 -0.5407 -0.8390  0.4836
15362TIP3    H267502   3.218   2.698   5.848 -0.5409  1.8106 -0.4927
15363TIP3   OH267503   6.577   4.536  16.976  0.1637  0.5091 -0.4407
15363TIP3    H167504   6.498   4.500  17.015  0.1443 -1.1412 -1.8912
15363TIP3    H267505   6.593   4.617  17.024 -0.9288 -0.4304  1.6278
15364TIP3   OH267506   1.693   0.541  17.257 -0.1022  0.9307  0.7347
15364TIP3    H167507   1.724   0.514  17.171  0.5594  3.2707  0.1403
15364TIP3    H267508   1.600   0.562  17.244  0.1802  2.0400  0.3361
15365TIP3   OH267509   6.523   1.040  14.904  0.5810 -0.0687  0.0974
15365TIP3    H167510   6.452   0.976  14.915  0.8380 -0.1168  1.5963
15365TIP3    H267511   6.478   1.120  14.876  0.1155 -0.5171 -0.4682
15366TIP3   OH267512   6.231   5.564   1.841 -0.7279  0.4108  0.0219
15366TIP3    H167513   6.200   5.588   1.928 -0.0855 -0.2537  0.4486
15366TIP3    H267514   6.217   5.642   1.788 -1.5316  0.6831  0.6067
15367TIP3   OH267515   6.215   1.670  11.516 -0.0181  0.0943 -0.1103
15367TIP3    H167516   6.221   1.754  11.470  0.7387 -0.0407 -0.2649
15367TIP3    H267517   6.126   1.639  11.497 -0.4782  1.0725  0.3389
15368TIP3   OH267518   2.233   2.037  16.434  0.0727 -0.2031 -0.3889
15368TIP3    H167519   2.265   1.975  16.500 -1.3787  0.5266  1.0473
15368TIP3    H267520   2.139   2.042  16.449 -0.2574  0.2718 -2.3188
15369TIP3   OH267521   2.880   3.678  17.289  0.5268 -0.1251 -0.3414
15369TIP3    H167522   2.853   3.766  17.262 -1.2713 -0.8851 -1.1901
15369TIP3    H267523   2.921   3.641  17.211  1.3464 -0.0327  0.0369
15370TIP3   OH267524   2.766   4.236  16.400 -0.1023 -0.4377 -0.0179
15370TIP3    H167525   2.758   4.262  16.492 -1.1778  2.6830 -0.8704
15370TIP3    H267526   2.676   4.237  16.367  0.3689 -0.3887 -1.3536
15371TIP3   OH267527   6.067   1.850  12.686 -0.0383  0.2905 -0.8114
15371TIP3    H167528   6.020   1.893  12.614  1.3280 -1.0486 -2.5806
15371TIP3    H267529   6.159   1.856  12.662  0.3966 -0.8794  0.4639
15372TIP3   OH267530   5.307   6.585   1.667 -0.3317  0.3288  0.0162
15372TIP3    H167531   5.313   6.527   1.744 -1.3185  1.6044  1.0882
15372TIP3    H267532   5.221   6.567   1.630  0.5568 -1.1100 -1.5549
15373TIP3   OH267533   5.024   4.805   1.924  0.0326 -0.7196  0.2327
15373TIP3    H167534   4.982   4.744   1.985 -1.5135 -0.9480 -0.9837
15373TIP3    H267535   5.116   4.779   1.922  0.1965 -0.5101  2.6503
15374TIP3   OH267536   2.695   4.486  13.511  0.7409 -0.0599 -0.2064
15374TIP3    H167537   2.704   4.571  13.469  0.2976  0.1089  0.0256
15374TIP3    H267538   2.606   4.487  13.548  0.7792 -0.5699 -0.0895
15375TIP3   OH267539   1.854   5.921   3.538  0.0092 -0.2624 -0.4604
15375TIP3    H167540   1.789   5.990   3.550 -0.5529 -0.4255 -2.2382
15375TIP3    H267541   1.807   5.853   3.490  0.4785 -2.0419  1.4676
15376TIP3   OH267542   1.430   2.587   2.990 -0.1396 -0.6023 -0.1018
15376TIP3    H167543   1.519   2.620   3.003  0.0118 -0.4972 -1.3254
15376TIP3    H267544   1.403   2.558   3.077  1.1166 -0.6933  0.2847
15377TIP3   OH267545   2.070   5.526  12.072  0.0168  0.3659 -0.6590
15377TIP3    H167546   2.150   5.570  12.101 -0.6617  0.8350  0.5840
15377TIP3    H267547   2.078   5.437  12.107  0.6194 -0.0319 -1.7468
15378TIP3   OH267548   6.638   2.267   0.719 -0.5180 -0.3500 -0.1775
15378TIP3    H167549   6.616   2.223   0.801  0.4799  0.8122  0.7637
15378TIP3    H267550   6.700   2.208   0.676 -2.0765 -1.6136 -0.7977
15379TIP3   OH267551   3.337   2.496  15.819  0.0194  0.1325 -0.0489
15379TIP3    H167552   3.415   2.534  15.779  1.8306 -1.5243  1.7072
15379TIP3    H267553   3.319   2.552  15.895 -0.4461  0.4149 -0.3573
15380TIP3   OH267554   1.048   0.559   0.383 -0.1744 -0.2940 -0.6772
15380TIP3    H167555   1.117   0.547   0.317  1.2546 -1.9083  1.0046
15380TIP3    H267556   1.037   0.473   0.423  0.2958  0.9259  2.3631
15381TIP3   OH267557   1.526   4.643   4.637 -0.4201 -0.2506  0.4791
15381TIP3    H167558   1.523   4.734   4.608  2.3390 -0.3074 -0.2538
15381TIP3    H267559   1.617   4.616   4.622 -1.3025 -3.3342  0.0960
15382TIP3   OH267560   5.188   2.495  15.173 -0.1747  0.0161  0.4383
15382TIP3    H167561   5.257   2.449  15.125 -0.3235 -0.8574  1.0391
15382TIP3    H267562   5.194   2.461  15.262 -0.9218  0.4601  0.6679
15383TIP3   OH267563   5.466   5.850   2.584  0.1977  0.3006  1.1055
15383TIP3    H167564   5.538   5.812   2.534 -0.0127  0.7949  0.4134
15383TIP3    H267565   5.496   5.938   2.606 -0.1752  0.4914  0.8545
15384TIP3   OH267566   4.215   5.227   1.244  0.2714  0.3277  0.5374
15384TIP3    H167567   4.302   5.247   1.278  1.4030  0.2993 -2.1253
15384TIP3    H267568   4.176   5.312   1.225 -0.3455  0.3402  1.7077
15385TIP3   OH267569   1.489   4.785   2.088  0.7047 -0.0286 -0.1515
15385TIP3    H167570   1.510   4.774   1.996  1.8760  0.6174  0.0153
15385TIP3    H267571   1.462   4.876   2.096 -1.1119 -0.5459 -0.1492
15386TIP3   OH267572   4.826   3.564  12.156 -0.3894  0.5027  0.0062
15386TIP3    H167573   4.803   3.483  12.112  0.4896 -0.1242  0.6705
15386TIP3    H267574   4.816   3.544  12.249 -0.0169  1.1114  0.1808
15387TIP3   OH267575   2.773   3.448   1.816  0.1342 -0.0534  0.0670
15387TIP3    H167576   2.795   3.513   1.748 -0.9107  0.0871 -0.1562
15387TIP3    H267577   2.681   3.465   1.836  0.4361 -0.0548  1.5790
15388TIP3   OH267578   0.818   1.485  16.390 -0.0798  0.5655 -0.1754
15388TIP3    H167579   0.738   1.446  16.425  0.7459 -0.2679  0.8725
15388TIP3    H267580   0.828   1.446  16.303  0.2755 -1.0001  0.5199
15389TIP3   OH267581   4.301   2.215   5.977  0.4986 -0.1433  0.1346
15389TIP3    H167582   4.210   2.246   5.982  0.5489  0.6605 -2.3977
15389TIP3    H267583   4.296   2.122   5.999 -0.7019  0.1892  1.3865
15390TIP3   OH267584   1.482   3.081  14.808  0.0041 -0.5761  1.0220
15390TIP3    H167585   1.438   3.000  14.835  0.0755 -0.5721  1.1491
15390TIP3    H267586   1.576   3.061  14.817  0.1030 -1.1984 -0.9275
15391TIP3   OH267587   5.129   5.267  11.641  0.0964  0.0284 -0.3198
15391TIP3    H167588   5.221   5.294  11.635  0.3765 -1.0510 -1.3802
15391TIP3    H267589   5.081   5.331  11.590  0.3667  0.1459 -0.4282
15392TIP3   OH267590   0.890   4.527  15.394 -0.5610 -0.3826 -0.0603
15392TIP3    H167591   0.910   4.621  15.389 -1.2005 -0.1486  1.1891
15392TIP3    H267592   0.893   4.508  15.488  1.6062 -2.0961 -0.4012
15393TIP3   OH267593   4.510   4.975  15.115  0.3993 -0.5562  0.1191
15393TIP3    H167594   4.543   4.886  15.127  0.8153 -0.3431  0.5809
15393TIP3    H267595   4.567   5.011  15.047  0.2024 -0.6550 -0.0995
15394TIP3   OH267596   6.711   2.509   0.945 -0.9200  0.3515 -0.1163
15394TIP3    H167597   6.771   2.436   0.962 -0.5765  0.6069 -0.2335
15394TIP3    H267598   6.704   2.554   1.029 -3.0493 -1.2213  0.6310
15395TIP3   OH267599   6.540   0.427  14.922 -0.7598  0.1287  0.4838
15395TIP3    H167600   6.491   0.348  14.900 -0.5709 -0.3382  1.6825
15395TIP3    H267601   6.617   0.395  14.970 -0.5039  1.0152  0.6826
15396TIP3   OH267602   6.530   1.782  11.384  0.2057  0.0201  0.5304
15396TIP3    H167603   6.551   1.874  11.397 -0.7391  0.8751 -2.9997
15396TIP3    H267604   6.497   1.752  11.469  1.8610  2.5012  2.1461
15397TIP3   OH267605   6.642   3.216  16.114  0.4233  0.1180  0.3003
15397TIP3    H167606   6.633   3.220  16.210  0.1150 -0.5752  0.3112
15397TIP3    H267607   6.581   3.146  16.088 -0.9719  1.6057 -0.5985
15398TIP3   OH267608   1.221   1.556  12.103 -0.2587 -0.3384  0.7728
15398TIP3    H167609   1.271   1.490  12.150 -0.6469 -1.2441 -0.0419
15398TIP3    H267610   1.273   1.576  12.025 -0.0416  0.4889  1.1153
15399TIP3   OH267611   5.093   0.250  15.999 -0.1295  0.0711 -0.5286
15399TIP3    H167612   5.117   0.233  16.090  1.3432 -0.9556 -1.0744
15399TIP3    H267613   5.131   0.178  15.950 -0.6652  0.7508 -2.0115
15400TIP3   OH267614   6.207   0.580   5.740 -0.1753 -0.4400  0.1095
15400TIP3    H167615   6.206   0.571   5.835  0.3720 -1.4515  0.0330
15400TIP3    H267616   6.184   0.493   5.707 -1.3437  0.1436 -0.6931
15401TIP3   OH267617   4.184   5.586  15.847 -0.1872  0.6227 -0.0717
15401TIP3    H167618   4.132   5.635  15.783 -0.4151  0.1612 -0.2447
15401TIP3    H267619   4.127   5.576  15.923 -0.6493 -0.5365 -0.5406
15402TIP3   OH267620   3.128   4.894  14.528 -0.4953 -0.2562  0.1168
15402TIP3    H167621   3.046   4.940  14.508 -0.2112  0.6221  0.9010
15402TIP3    H267622   3.190   4.964  14.550  0.2773 -0.9565  0.2114
15403TIP3   OH267623   2.315   3.401  12.228 -0.3041  0.0554  0.0136
15403TIP3    H167624   2.269   3.446  12.158 -1.0586  0.0650  0.4961
15403TIP3    H267625   2.282   3.311  12.224  0.6895 -0.3029 -0.5168
15404TIP3   OH267626   2.996   0.974  14.340  0.3318  0.1259 -0.0743
15404TIP3    H167627   3.031   0.985  14.252  0.3109  0.0262 -0.0946
15404TIP3    H267628   3.030   0.890  14.370 -0.2738 -0.1946 -0.2764
15405TIP3   OH267629   2.590   1.733  15.662  0.1380  0.0191 -0.3071
15405TIP3    H167630   2.625   1.813  15.700 -0.8619 -0.0379  0.8081
15405TIP3    H267631   2.504   1.759  15.628 -0.5209 -0.7025  0.7249
15406TIP3   OH267632   4.469   4.819   5.663 -0.0211 -0.2627  0.2638
15406TIP3    H167633   4.423   4.773   5.733  0.3039  0.8717  1.2419
15406TIP3    H267634   4.507   4.749   5.610  1.0317 -1.1436  2.0886
15407TIP3   OH267635   1.066   0.575   2.953  0.1309  0.3948  0.2656
15407TIP3    H167636   1.074   0.543   2.863  2.2823  1.6652 -0.0512
15407TIP3    H267637   0.978   0.547   2.981  0.4085 -2.3160 -1.2821
15408TIP3   OH267638   0.767   2.679  11.014  0.3435 -0.1198  0.0561
15408TIP3    H167639   0.785   2.592  11.049  1.3475 -0.0671 -0.2943
15408TIP3    H267640   0.680   2.700  11.046  0.2959 -1.0419  0.5701
15409TIP3   OH267641   5.749   0.460   6.875  0.0042  0.6137 -0.1047
15409TIP3    H167642   5.688   0.460   6.802  0.1395 -0.6984 -0.2351
15409TIP3    H267643   5.815   0.395   6.851  0.3223  0.5327  0.9543
15410TIP3   OH267644   6.090   5.171   1.131  0.1463  0.3768 -0.1308
15410TIP3    H167645   6.018   5.138   1.184  0.9192 -0.7052  0.2901
15410TIP3    H267646   6.063   5.259   1.106 -0.9536  0.2965  0.6919
15411TIP3   OH267647   5.416   0.863  16.456  0.3670 -0.1132 -0.2478
15411TIP3    H167648   5.465   0.932  16.412  1.9628 -2.2864 -2.1093
15411TIP3    H267649   5.466   0.845  16.536  1.3746 -0.7642 -1.0041
15412TIP3   OH267650   2.536   2.937   1.348 -0.6249 -0.2030  0.3727
15412TIP3    H167651   2.548   2.843   1.337  0.8536 -0.1672  1.3831
15412TIP3    H267652   2.467   2.960   1.286 -0.5190 -1.8279 -0.3898
15413TIP3   OH267653   5.439   2.108   1.717  0.3846 -0.0087 -0.7715
15413TIP3    H167654   5.531   2.133   1.715  0.2321  1.1292  1.7675
15413TIP3    H267655   5.408   2.139   1.803 -1.6936 -2.6650 -0.4277
15414TIP3   OH267656   0.491   1.062  13.254 -0.3405  0.3498  0.2921
15414TIP3    H167657   0.562   1.126  13.250  0.7227 -0.7868  0.3468
15414TIP3    H267658   0.524   0.987  13.204 -1.6174 -0.1033  0.0955
15415TIP3   OH267659   5.945   5.250   3.089 -0.4163 -0.1263  0.1558
15415TIP3    H167660   5.867   5.195   3.093 -0.8750  0.4930 -0.2220
15415TIP3    H267661   5.992   5.231   3.170  0.4357 -2.5658 -0.8128
15416TIP3   OH267662   0.164   2.453  14.839  0.3244 -0.0789 -0.0676
15416TIP3    H167663   0.225   2.520  14.809 -0.1121 -0.1250 -1.1186
15416TIP3    H267664   0.198   2.425  14.924  1.8736 -0.2568 -0.7162
15417TIP3   OH267665   2.884   1.143   2.677  0.5400  0.3104  0.0940
15417TIP3    H167666   2.891   1.048   2.690  1.2262  0.0993 -1.5649
15417TIP3    H267667   2.972   1.176   2.694  0.3625  0.6151  0.4272
15418TIP3   OH267668   5.513   1.874   5.448  0.5684 -0.0578  0.2860
15418TIP3    H167669   5.492   1.953   5.497  0.7984 -0.1032  0.4593
15418TIP3    H267670   5.606   1.859   5.465  0.0375 -1.7150  2.2153
15419TIP3   OH267671   2.621   0.962  11.056  0.2105  0.1013  0.6720
15419TIP3    H167672   2.585   0.917  11.132 -0.6862 -0.6974 -0.1938
15419TIP3    H267673   2.716   0.951  11.064  0.0847 -0.6685  1.2600
15420TIP3   OH267674   5.775   0.354  15.721  0.2384  0.0006 -0.3103
15420TIP3    H167675   5.693   0.304  15.729  0.7791 -1.0411 -1.0260
15420TIP3    H267676   5.748   0.441  15.691 -0.5419 -0.6186 -1.4781
15421TIP3   OH267677   3.944   3.375  17.221  0.1061 -0.2960  0.2922
15421TIP3    H167678   3.893   3.377  17.139  1.2771  1.9969 -0.4625
15421TIP3    H267679   3.919   3.455  17.267  0.2647 -1.0270  1.7022
15422TIP3   OH267680   5.752   5.788  16.998 -0.1041  0.6445 -0.0644
15422TIP3    H167681   5.743   5.845  16.922  0.2424  0.3201 -0.3519
15422TIP3    H267682   5.831   5.820  17.043  0.4361  0.0227 -0.5538
15423TIP3   OH267683   2.364   2.220  11.299  0.1290  0.5819 -0.3112
15423TIP3    H167684   2.430   2.158  11.268  0.0309  1.0082 -1.4516
15423TIP3    H267685   2.290   2.207  11.239 -0.4764  0.7303  0.3985
15424TIP3   OH267686   5.660   5.626   2.063  0.4125 -0.5243  0.1841
15424TIP3    H167687   5.695   5.604   1.977 -1.1930  2.2236 -1.2896
15424TIP3    H267688   5.725   5.686   2.101 -0.6824  1.4031 -0.8622
15425TIP3   OH267689   1.602   2.818  16.871 -0.4696 -0.9477  0.3261
15425TIP3    H167690   1.619   2.754  16.802  1.2050 -0.1362 -0.0781
15425TIP3    H267691   1.519   2.858  16.847  0.1544 -0.5749 -1.3321
15426TIP3   OH267692   0.776   6.388  15.904 -0.1408  0.0966 -0.3203
15426TIP3    H167693   0.743   6.443  15.833 -0.6841  0.0491 -0.1096
15426TIP3    H267694   0.810   6.450  15.969 -1.8966  0.2600  0.4866
15427TIP3   OH267695   5.340   6.334  13.940  0.0423 -0.4087 -0.3247
15427TIP3    H167696   5.324   6.274  13.867  3.6515 -0.4453 -1.2499
15427TIP3    H267697   5.332   6.421  13.901  0.7034 -0.4083 -0.4663
15428TIP3   OH267698   4.631   5.535  11.341 -0.1062 -0.2953 -0.2034
15428TIP3    H167699   4.575   5.585  11.400  0.7113  0.1939  0.1736
15428TIP3    H267700   4.709   5.589  11.330  1.0209 -1.7067  0.6073
15429TIP3   OH267701   2.441   0.480  12.018  0.4601  0.1198 -0.3795
15429TIP3    H167702   2.496   0.402  12.010  0.5878  0.2259 -0.5261
15429TIP3    H267703   2.491   0.539  12.075  0.6003  0.3084 -0.6983
15430TIP3   OH267704   4.155   2.121   1.655  0.2621 -0.3184  0.4924
15430TIP3    H167705   4.153   2.174   1.575  2.4260  0.8776  1.1509
15430TIP3    H267706   4.194   2.038   1.627  1.0554  0.1127  0.2888
15431TIP3   OH267707   4.284   4.846   1.254  0.2638  0.0046 -0.1231
15431TIP3    H167708   4.257   4.755   1.264 -0.6470 -0.1357 -2.9938
15431TIP3    H267709   4.357   4.857   1.315  0.7561 -2.7875 -0.1041
15432TIP3   OH267710   4.219   4.932   4.657 -0.4214  0.9094  0.1506
15432TIP3    H167711   4.302   4.885   4.664 -0.7979  0.3290  0.8241
15432TIP3    H267712   4.230   4.989   4.581  1.0245  1.7285  0.9501
15433TIP3   OH267713   5.473   6.177   3.951 -0.1317  0.1549  0.1897
15433TIP3    H167714   5.533   6.243   3.918  1.9151 -1.0131  1.3962
15433TIP3    H267715   5.422   6.150   3.874 -0.9201  2.9029 -0.3779
15434TIP3   OH267716   0.486   5.755  16.534  0.4187 -0.8820  0.0070
15434TIP3    H167717   0.481   5.711  16.449  1.6153 -0.7802 -0.1395
15434TIP3    H267718   0.397   5.753  16.568 -0.3322  0.0948 -1.7589
15435TIP3   OH267719   2.985   1.926   1.829 -0.0066  0.3247 -0.2553
15435TIP3    H167720   3.041   1.854   1.800  0.3869 -0.1025  1.4626
15435TIP3    H267721   2.898   1.903   1.797 -0.3050 -2.0081  1.9546
15436TIP3   OH267722   5.560   3.697  12.974 -0.0121  0.1634  0.1744
15436TIP3    H167723   5.579   3.710  12.881 -1.0163 -0.9898 -0.2211
15436TIP3    H267724   5.575   3.783  13.014 -1.4943  1.2109 -1.3948
15437TIP3   OH267725   0.800   5.678  16.075  0.4079 -0.4151  0.0767
15437TIP3    H167726   0.794   5.586  16.046  0.6146 -0.1261 -0.9233
15437TIP3    H267727   0.891   5.701  16.062  0.1714  0.2002 -0.5350
15438TIP3   OH267728   1.351   1.798   4.298 -0.1477  0.5343  0.1108
15438TIP3    H167729   1.274   1.752   4.263  0.0344 -0.2705  0.7494
15438TIP3    H267730   1.425   1.746   4.267  0.0715  0.5155  0.6622
15439TIP3   OH267731   3.431   4.046   4.144 -0.2183  0.8130 -0.2779
15439TIP3    H167732   3.358   4.069   4.087 -0.1549 -0.2242 -0.8038
15439TIP3    H267733   3.391   3.998   4.217 -0.0857  0.3672 -0.4941
15440TIP3   OH267734   5.077   0.160   1.039  0.1721  0.1751 -0.1913
15440TIP3    H167735   5.032   0.242   1.062 -1.6479 -0.3390 -1.6477
15440TIP3    H267736   5.168   0.186   1.025 -0.3989  2.0175 -0.8509
15441TIP3   OH267737   5.693   6.199   1.485  0.1914 -0.1313  0.5479
15441TIP3    H167738   5.675   6.136   1.555 -1.8768 -1.1356 -0.7810
15441TIP3    H267739   5.785   6.184   1.463  0.1513 -1.6612  1.2697
15442TIP3   OH267740   4.468   1.112   3.214 -0.1529  0.2983 -0.6561
15442TIP3    H167741   4.480   1.191   3.162 -0.4636  1.0761  0.4125
15442TIP3    H267742   4.462   1.041   3.150 -1.6575  1.3390 -1.7325
15443TIP3   OH267743   6.448   3.427  12.824 -0.3237 -0.1628  0.1112
15443TIP3    H167744   6.368   3.475  12.803 -0.6638 -1.0761 -0.7567
15443TIP3    H267745   6.434   3.339  12.789  1.0613 -0.3312 -0.1023
15444TIP3   OH267746   5.216   1.854  15.083 -0.2084  0.1249  0.2109
15444TIP3    H167747   5.236   1.947  15.091  0.0665  0.0927 -0.0609
15444TIP3    H267748   5.167   1.833  15.162 -1.2079  0.7450 -0.2228
15445TIP3   OH267749   6.459   4.311   2.803 -0.1946 -0.0411  0.6129
15445TIP3    H167750   6.515   4.384   2.778 -1.2026  0.0180 -1.7369
15445TIP3    H267751   6.519   4.237   2.815  0.6475  0.7177  1.1072
15446TIP3   OH267752   3.214   5.094  17.094  0.5627  0.0920 -0.0585
15446TIP3    H167753   3.167   5.019  17.131 -3.0436  1.4259 -1.4719
15446TIP3    H267754   3.245   5.142  17.171  1.6198 -1.9469  0.8961
15447TIP3   OH267755   2.386   2.464   5.031 -0.2217 -1.0759 -0.0462
15447TIP3    H167756   2.385   2.514   4.950 -0.8007 -1.6094 -0.3708
15447TIP3    H267757   2.346   2.522   5.096  0.7489 -0.4339 -0.0050
15448TIP3   OH267758   2.152   4.048  13.638 -0.8602  0.2144 -0.0249
15448TIP3    H167759   2.081   4.055  13.574 -0.2725  3.6515 -0.4738
15448TIP3    H267760   2.230   4.030  13.586 -0.7773  0.4952 -0.0002
15449TIP3   OH267761   4.237   3.048   2.969 -0.1478 -0.4507 -0.7530
15449TIP3    H167762   4.156   3.040   3.019 -0.2891  0.7079 -0.7547
15449TIP3    H267763   4.209   3.045   2.877 -0.2128  0.0016 -0.7540
15450TIP3   OH267764   4.912   3.649  15.621  0.4642  0.1199  0.2074
15450TIP3    H167765   4.946   3.736  15.598  1.2582 -0.7230 -2.1290
15450TIP3    H267766   4.991   3.596  15.635 -0.0119 -0.2955  1.4842
15451TIP3   OH267767   0.311   2.926   4.075 -0.2214 -0.2038  0.1292
15451TIP3    H167768   0.338   2.989   4.009 -0.9967 -2.7066 -2.8068
15451TIP3    H267769   0.220   2.949   4.094 -0.8741 -0.9882 -1.7872
15452TIP3   OH267770   3.182   2.704  13.047  0.1226 -0.7695  0.2318
15452TIP3    H167771   3.127   2.741  13.116  1.3187  1.2622  0.1559
15452TIP3    H267772   3.168   2.761  12.972  1.3568 -0.9942 -0.1862
15453TIP3   OH267773   0.084   4.369  12.522 -0.3726  0.1326  0.4450
15453TIP3    H167774   0.097   4.284  12.481  0.7848  0.5216 -0.0191
15453TIP3    H267775   0.001   4.400  12.486 -1.5941 -1.4246  1.7568
15454TIP3   OH267776   3.858   5.215   3.014  0.0022  0.1988 -0.2263
15454TIP3    H167777   3.797   5.261   3.072  0.5305  0.1197  0.4141
15454TIP3    H267778   3.857   5.266   2.933 -0.6748  0.3725 -0.1134
15455TIP3   OH267779   0.695   1.447   5.258  0.3503  0.4549 -0.0281
15455TIP3    H167780   0.679   1.399   5.177  1.0386  0.5344 -0.2168
15455TIP3    H267781   0.736   1.383   5.316 -2.2100 -0.2746  1.1065
15456TIP3   OH267782   5.164   1.809  11.884 -0.0453 -0.0737  0.5264
15456TIP3    H167783   5.211   1.763  11.954  0.4507 -0.7935 -0.2572
15456TIP3    H267784   5.210   1.893  11.876  0.8580 -0.6052  0.0482
15457TIP3   OH267785   5.008   1.868  14.413  0.0198 -0.0351  0.3092
15457TIP3    H167786   5.045   1.891  14.498  0.0419  1.4128 -0.0750
15457TIP3    H267787   4.956   1.944  14.388 -1.7027 -1.2510 -0.0357
15458TIP3   OH267788   3.400   2.611   5.023 -0.1646  0.3190 -0.2793
15458TIP3    H167789   3.367   2.569   4.943 -0.9962 -0.5523  0.5114
15458TIP3    H267790   3.456   2.545   5.064 -0.4742  0.4316  0.3322
15459TIP3   OH267791   6.748   1.754   2.067 -0.0798 -0.3297 -0.0033
15459TIP3    H167792   6.713   1.824   2.012  1.7726 -0.1510 -1.0205
15459TIP3    H267793   6.723   1.780   2.156  0.0169  1.2960 -0.4109
15460TIP3   OH267794   4.250   3.597  14.155 -0.6806 -0.0645  0.1146
15460TIP3    H167795   4.237   3.522  14.213 -4.3337  0.9101  0.8500
15460TIP3    H267796   4.289   3.560  14.076 -0.9798 -2.4927  1.0212
15461TIP3   OH267797   2.746   5.773  13.240  0.4573 -0.3514 -0.0589
15461TIP3    H167798   2.813   5.749  13.304  0.8361  0.5400 -0.1060
15461TIP3    H267799   2.765   5.719  13.164  1.1815 -0.0633 -0.0953
15462TIP3   OH267800   2.141   4.219  11.924 -0.3897 -0.4509  0.2124
15462TIP3    H167801   2.114   4.162  11.852 -2.0605  1.7059 -0.9747
15462TIP3    H267802   2.060   4.259  11.954  0.5694  0.3054  1.8989
15463TIP3   OH267803   2.660   1.973  15.808  0.5007 -0.0527 -0.2373
15463TIP3    H167804   2.709   2.036  15.860 -0.7534  1.3915 -0.7413
15463TIP3    H267805   2.571   2.007  15.806 -0.0108 -1.3520 -1.3127
15464TIP3   OH267806   0.533   1.403  14.953  0.6277  0.2178 -0.9802
15464TIP3    H167807   0.568   1.321  14.918  1.2081  0.1170 -0.1865
15464TIP3    H267808   0.557   1.402  15.045 -1.4830  0.1699 -0.3977
15465TIP3   OH267809   5.063   2.551   5.335 -0.2228 -0.4609 -0.0028
15465TIP3    H167810   5.065   2.478   5.398 -0.3685 -0.3446  0.1372
15465TIP3    H267811   5.029   2.625   5.385 -0.1345 -0.3123 -0.1629
15466TIP3   OH267812   4.179   6.639   4.852  0.0311  0.2338 -0.5039
15466TIP3    H167813   4.147   6.726   4.825  0.3541  0.7732  0.7901
15466TIP3    H267814   4.111   6.579   4.823 -2.1155  1.3135  1.9302
15467TIP3   OH267815   6.313   2.328  15.199  0.4979  0.0407  0.2184
15467TIP3    H167816   6.383   2.263  15.189  0.2311 -0.4552  1.3912
15467TIP3    H267817   6.263   2.297  15.275 -0.7476  0.6135 -0.3508
15468TIP3   OH267818   3.342   1.166   4.198  0.1542 -0.5135  0.2343
15468TIP3    H167819   3.376   1.186   4.111 -0.2538  1.4550  0.4835
15468TIP3    H267820   3.394   1.091   4.228  2.5748  0.8290 -0.3809
15469TIP3   OH267821   4.101   2.190  15.803  0.6634  0.1024  0.2619
15469TIP3    H167822   4.097   2.282  15.831  3.4198  0.8822 -1.4596
15469TIP3    H267823   4.118   2.141  15.883 -2.3699  0.7803  1.4716
15470TIP3   OH267824   2.228   2.213  11.729 -0.4291 -0.1593 -0.5718
15470TIP3    H167825   2.149   2.201  11.676 -0.9708 -0.7837  0.3561
15470TIP3    H267826   2.198   2.254  11.810  0.2208 -0.2455 -0.2747
15471TIP3   OH267827   6.187   0.052  10.864  0.1211 -0.3014 -0.4798
15471TIP3    H167828   6.200   0.140  10.898  1.9190 -0.7817  0.1964
15471TIP3    H267829   6.099   0.027  10.895 -0.3077  1.1280 -0.4657
15472TIP3   OH267830   3.782   3.423   6.293 -0.4267  0.2637  0.2206
15472TIP3    H167831   3.692   3.451   6.311 -0.3933  0.4847  0.0465
15472TIP3    H267832   3.805   3.368   6.368  0.0742  1.9703  1.3860
15473TIP3   OH267833   1.520   5.571  12.420 -0.0415 -0.0181 -0.0052
15473TIP3    H167834   1.546   5.637  12.355  2.5526  1.8525  2.6503
15473TIP3    H267835   1.439   5.605  12.457  0.6695  1.1334  0.5438
15474TIP3   OH267836   6.553   5.409  16.186 -0.2683 -0.3811 -0.8125
15474TIP3    H167837   6.635   5.453  16.164  0.2647 -0.5559  0.6559
15474TIP3    H267838   6.569   5.317  16.165  0.0149 -0.4486 -0.3374
15475TIP3   OH267839   5.980   6.205   2.430  0.1931  0.4600 -0.1232
15475TIP3    H167840   6.071   6.185   2.453  0.3671  1.2127 -0.1220
15475TIP3    H267841   5.964   6.290   2.471 -1.2579 -0.6926  1.9040
15476TIP3   OH267842   6.273   6.520  15.430 -0.3516 -0.2543 -0.0450
15476TIP3    H167843   6.328   6.461  15.379  0.1405 -0.8837  1.1697
15476TIP3    H267844   6.334   6.575  15.478 -0.7998  0.1239  0.0988
15477TIP3   OH267845   1.738   0.370   6.339 -0.3212 -0.5199 -0.7820
15477TIP3    H167846   1.711   0.460   6.324  0.4893 -0.2885 -0.8969
15477TIP3    H267847   1.769   0.369   6.430 -1.2027 -0.9112 -0.4697
15478TIP3   OH267848   5.806   5.670   2.902  0.0135 -0.1725 -0.1081
15478TIP3    H167849   5.823   5.579   2.876 -2.6441  0.2892 -4.4532
15478TIP3    H267850   5.879   5.719   2.864  1.0276 -0.3094  1.5623
15479TIP3   OH267851   0.183   4.442   1.839 -0.4694 -0.2353  0.0316
15479TIP3    H167852   0.126   4.519   1.844 -0.5139 -0.2728  0.0999
15479TIP3    H267853   0.128   4.369   1.866 -0.0494 -0.0989  1.3176
15480TIP3   OH267854   1.030   5.160  11.195  0.2692 -0.3868 -0.3302
15480TIP3    H167855   0.976   5.180  11.272  0.3102  1.6089 -0.7437
15480TIP3    H267856   0.997   5.220  11.127  1.9618 -0.2160 -1.0481
15481TIP3   OH267857   2.533   5.868   1.473 -0.8896  0.0351 -0.2470
15481TIP3    H167858   2.488   5.788   1.498 -2.0269  0.7500  0.0364
15481TIP3    H267859   2.541   5.918   1.554  0.6835 -0.1904 -0.2350
15482TIP3   OH267860   3.300   6.160   4.990  0.7867 -0.2500 -0.3775
15482TIP3    H167861   3.330   6.191   5.075  0.2152 -0.4247 -0.1060
15482TIP3    H267862   3.303   6.065   4.996  0.2951 -0.2709 -0.3814
15483TIP3   OH267863   5.875   3.815   6.162 -0.1251 -0.1052  0.4484
15483TIP3    H167864   5.820   3.742   6.136 -0.3145 -0.2285  1.1640
15483TIP3    H267865   5.819   3.892   6.156  0.3327  0.1398 -1.2077
15484TIP3   OH267866   3.429   6.260   6.829 -0.3993  0.3733 -0.0263
15484TIP3    H167867   3.340   6.268   6.793 -0.6699  1.1150  0.7791
15484TIP3    H267868   3.460   6.350   6.837  0.4510  0.1190 -0.3299
15485TIP3   OH267869   5.078   2.509   3.202 -1.0989 -0.4775 -0.2125
15485TIP3    H167870   5.164   2.519   3.160 -0.8136  1.3623  0.6999
15485TIP3    H267871   5.044   2.599   3.209 -1.8503 -0.8761  1.9446
15486TIP3   OH267872   3.494   1.291  15.475  0.0047  0.1129 -0.4091
15486TIP3    H167873   3.399   1.306  15.477  0.2140  1.5861 -0.4861
15486TIP3    H267874   3.532   1.371  15.510  1.2321 -0.5410 -0.1789
15487TIP3   OH267875   3.560   5.049  16.404 -0.0806  0.0158  0.1495
15487TIP3    H167876   3.547   5.110  16.477  1.0175  0.0425  0.3383
15487TIP3    H267877   3.605   4.974  16.443  0.4115 -0.0216 -0.4735
15488TIP3   OH267878   5.842   2.352   1.840 -0.9930 -0.0253 -0.3575
15488TIP3    H167879   5.878   2.393   1.918  2.0751  1.1151 -2.2320
15488TIP3    H267880   5.778   2.415   1.806 -2.7609 -0.7708  1.4285
15489TIP3   OH267881   6.603   5.244  11.047  0.1254 -0.1338 -0.2677
15489TIP3    H167882   6.566   5.296  10.976  0.1725 -0.1777 -0.3242
15489TIP3    H267883   6.562   5.280  11.126 -0.9466 -0.9636 -0.4209
15490TIP3   OH267884   0.064   4.347   3.289  0.1037 -0.4804 -1.2373
15490TIP3    H167885   0.071   4.370   3.382 -0.9422  3.9282 -2.0478
15490TIP3    H267886  -0.019   4.298   3.283 -0.7554  0.7515 -0.0381
15491TIP3   OH267887   0.427   0.642   1.464 -0.2107 -0.2174 -0.5857
15491TIP3    H167888   0.518   0.650   1.436  0.1357  1.7559  0.8566
15491TIP3    H267889   0.430   0.587   1.542 -0.3280 -0.5081 -0.7829
15492TIP3   OH267890   5.728   0.442  14.462  0.5665 -0.3796 -0.7956
15492TIP3    H167891   5.786   0.470  14.532 -1.1968 -0.3394  0.7442
15492TIP3    H267892   5.708   0.522  14.414  0.0204  0.0230  0.0757
15493TIP3   OH267893   1.016   0.494   0.712 -0.0207  0.0257 -0.2854
15493TIP3    H167894   0.980   0.582   0.723  0.1341 -0.1111  1.5393
15493TIP3    H267895   0.940   0.440   0.691 -0.1811  0.4973 -0.9633
15494TIP3   OH267896   1.832   6.234  12.419  0.0663 -0.4148 -0.1220
15494TIP3    H167897   1.913   6.281  12.397 -0.5270  1.4088  1.3222
15494TIP3    H267898   1.813   6.181  12.342  1.4847  0.7581 -1.3397
15495TIP3   OH267899   4.194   0.049   4.162 -0.4703  0.0528 -0.1081
15495TIP3    H167900   4.114  -0.002   4.152 -0.7563  0.1180  1.6424
15495TIP3    H267901   4.188   0.087   4.249  1.2054  0.5402 -0.1754
15496TIP3   OH267902   4.109   1.713  17.298 -0.2021 -0.8411  0.5330
15496TIP3    H167903   4.122   1.789  17.242  1.0116  0.0625  1.9579
15496TIP3    H267904   4.195   1.695  17.335 -0.3400 -3.3348 -0.2452
15497TIP3   OH267905   5.281   3.774   2.139  0.1748  0.2264  0.3316
15497TIP3    H167906   5.349   3.806   2.199 -1.2732  3.7450  0.3710
15497TIP3    H267907   5.227   3.716   2.192  1.2897 -0.0345  1.2156
15498TIP3   OH267908   1.018   3.720  11.266 -0.2826  0.1279 -0.4838
15498TIP3    H167909   1.008   3.671  11.184  1.3522 -0.6858 -0.2296
15498TIP3    H267910   1.065   3.661  11.324 -0.2289  1.1974  0.5999
15499TIP3   OH267911   3.603   1.254  15.068 -0.4817 -0.0482 -0.2117
15499TIP3    H167912   3.685   1.209  15.088 -0.3755  0.6119  0.9373
15499TIP3    H267913   3.541   1.219  15.132 -0.6314  0.7295  0.0800
15500TIP3   OH267914   1.162   2.498   0.532 -0.2036  0.5356  0.0318
15500TIP3    H167915   1.071   2.472   0.528 -0.5398  1.4356  1.1079
15500TIP3    H267916   1.198   2.478   0.446 -1.5834  0.7708 -0.6134
15501TIP3   OH267917   1.698   0.063   1.657 -0.2457  0.1418  0.6165
15501TIP3    H167918   1.663   0.150   1.637  0.0039  0.6026  2.0108
15501TIP3    H267919   1.630   0.021   1.710 -1.8110 -1.8457 -2.6726
15502TIP3   OH267920   5.211   0.848   3.047 -0.9934  0.1535 -0.2005
15502TIP3    H167921   5.164   0.929   3.026  0.3752  0.4174 -2.6267
15502TIP3    H267922   5.188   0.789   2.975 -0.3437 -0.8965  0.4468
15503TIP3   OH267923   3.799   1.898   2.130 -0.1039  0.2014 -0.8060
15503TIP3    H167924   3.873   1.920   2.186  0.1273 -1.4486 -0.3862
15503TIP3    H267925   3.832   1.909   2.040  0.1904  0.8359 -0.6234
15504TIP3   OH267926   4.268   4.531  15.671 -0.3505 -1.1189 -0.0143
15504TIP3    H167927   4.316   4.593  15.726 -1.0640  0.3176 -0.9563
15504TIP3    H267928   4.335   4.492  15.615 -0.0616 -0.1186 -0.3923
15505TIP3   OH267929   1.714   5.545  13.078 -0.0851  0.4266 -0.1009
15505TIP3    H167930   1.654   5.535  13.004  0.9856  0.1763 -0.9524
15505TIP3    H267931   1.680   5.484  13.144  0.3154 -1.1388 -1.2860
15506TIP3   OH267932   1.741   6.420   1.809  0.3485  0.0149 -0.1294
15506TIP3    H167933   1.673   6.466   1.759  0.6987  0.0744 -0.5567
15506TIP3    H267934   1.716   6.433   1.900  0.7382  1.5123 -0.2150
15507TIP3   OH267935   2.014   2.086  12.000  0.1537  0.2835  0.2497
15507TIP3    H167936   1.921   2.076  11.981 -0.1010  1.1559  0.9801
15507TIP3    H267937   2.041   1.999  12.032 -0.6287  0.2714  0.9176
15508TIP3   OH267938   4.265   5.282   3.582 -0.7126  0.5280 -0.2553
15508TIP3    H167939   4.195   5.222   3.558  0.2296  0.1512 -2.2867
15508TIP3    H267940   4.281   5.333   3.503  1.0378  0.8543  0.2566
15509TIP3   OH267941   1.956   5.203  17.357 -0.2274 -0.9475  1.1859
15509TIP3    H167942   1.893   5.244  17.416 -2.2097 -3.0257  0.6326
15509TIP3    H267943   1.994   5.131  17.408  1.8886  0.3584  1.5597
15510TIP3   OH267944   1.842   5.332   4.587  0.0241 -0.2236 -0.2213
15510TIP3    H167945   1.813   5.418   4.558 -0.0631 -0.0899  0.2600
15510TIP3    H267946   1.779   5.306   4.653  0.0910 -0.6289 -0.3118
15511TIP3   OH267947   4.738   5.265   3.079  0.0903  0.4840 -0.0427
15511TIP3    H167948   4.799   5.210   3.030 -0.0598  0.5880 -0.3491
15511TIP3    H267949   4.736   5.347   3.030 -1.9107 -0.2232 -1.2760
15512TIP3   OH267950   4.575   1.798  16.342 -0.4470  0.3789 -0.5477
15512TIP3    H167951   4.566   1.825  16.250 -1.5431  1.6993 -0.0926
15512TIP3    H267952   4.634   1.862  16.380 -2.5139  1.8352  0.3819
15513TIP3   OH267953   6.183   1.534   1.151 -0.3642 -0.3821 -0.0952
15513TIP3    H167954   6.176   1.445   1.185 -3.7037 -0.3511 -0.3402
15513TIP3    H267955   6.136   1.588   1.216 -0.8211  0.7313 -1.3067
15514TIP3   OH267956   2.286   1.323   0.625  0.1232  0.0237 -0.0504
15514TIP3    H167957   2.307   1.233   0.600  0.3731 -0.4115  1.6157
15514TIP3    H267958   2.370   1.369   0.619  0.3037 -0.2188  0.4940
15515TIP3   OH267959   6.609   5.759  13.811 -0.2698  0.4545 -0.1883
15515TIP3    H167960   6.646   5.822  13.873 -0.4590  0.6045 -0.2292
15515TIP3    H267961   6.626   5.673  13.852  0.1414  0.5182 -0.2151
15516TIP3   OH267962   4.887   5.685   1.986 -0.1470 -0.0940 -0.3953
15516TIP3    H167963   4.968   5.735   1.998 -0.9398  1.0835  0.1599
15516TIP3    H267964   4.913   5.612   1.930  1.0822  0.8340 -1.0956
15517TIP3   OH267965   6.399   6.438  14.007  0.3265 -0.9961  0.3491
15517TIP3    H167966   6.358   6.352  14.016  0.0018 -1.0811 -1.6411
15517TIP3    H267967   6.490   6.424  14.033  0.1486 -1.7997  0.5633
15518TIP3   OH267968   3.655   1.019  13.737  0.2033  0.1307  0.1241
15518TIP3    H167969   3.587   1.084  13.753 -0.7363 -0.5213 -1.0392
15518TIP3    H267970   3.608   0.937  13.725  1.1255 -0.2298 -1.3386
15519TIP3   OH267971   5.300   2.198  16.564  0.5179  0.5644 -0.3463
15519TIP3    H167972   5.348   2.279  16.584  0.3369  0.6315 -0.1825
15519TIP3    H267973   5.285   2.158  16.650 -1.2816  1.4281 -0.2154
15520TIP3   OH267974   4.032   3.519  13.861 -0.9085  0.0267  0.2006
15520TIP3    H167975   4.007   3.603  13.900  0.5732 -0.0057  1.2931
15520TIP3    H267976   4.114   3.538  13.815 -0.5630 -0.8256  0.4597
15521TIP3   OH267977   5.830   3.487   5.399  0.2626  0.4370  0.3068
15521TIP3    H167978   5.780   3.506   5.319  1.4400  1.1733 -0.2702
15521TIP3    H267979   5.910   3.446   5.368  0.3241 -0.1378  1.1881
15522TIP3   OH267980   1.366   1.142  13.167  0.0360  0.1551  0.0917
15522TIP3    H167981   1.339   1.164  13.078  1.8705  0.1250 -0.5164
15522TIP3    H267982   1.395   1.226  13.204 -2.0870  0.4584  1.2318
15523TIP3   OH267983   4.922   6.496   6.667  0.1576 -0.2967  0.3816
15523TIP3    H167984   4.828   6.514   6.654  0.3423 -0.2229 -0.9577
15523TIP3    H267985   4.927   6.401   6.673 -0.3215 -0.2440  3.4238
15524TIP3   OH267986   5.486   4.793  12.304 -0.1573  0.0017 -0.5382
15524TIP3    H167987   5.569   4.804  12.351 -0.9134  0.3401  0.7869
15524TIP3    H267988   5.426   4.757  12.370 -1.2696  0.4876 -1.2579
15525TIP3   OH267989   4.627   0.086  12.938 -0.2626 -0.0775  0.0525
15525TIP3    H167990   4.545   0.090  12.890  0.4599 -1.2178 -1.3799
15525TIP3    H267991   4.691   0.127  12.880  0.4469 -0.4914  0.5176
15526TIP3   OH267992   2.345   4.026   3.544  0.6586  0.2068 -0.5891
15526TIP3    H167993   2.413   4.023   3.611  1.3144  1.3874 -1.1629
15526TIP3    H267994   2.297   3.944   3.554  1.6626 -0.2845  0.3580
15527TIP3   OH267995   6.538   5.374   6.664 -0.0197  0.3311  0.9351
15527TIP3    H167996   6.592   5.347   6.738  0.1466  1.1955  1.1376
15527TIP3    H267997   6.449   5.379   6.699 -0.4354 -1.9482  0.3954
15528TIP3   OH267998   2.058   6.439  13.944  0.1021 -0.3147 -0.7178
15528TIP3    H167999   2.062   6.344  13.959 -0.3758 -0.2625 -0.2195
15528TIP3    H268000   2.006   6.472  14.018 -0.6617  0.2039 -1.4734
15529TIP3   OH268001   6.443   4.865  14.411  0.3844 -0.0740 -0.1294
15529TIP3    H168002   6.416   4.832  14.497 -1.0822  0.4654 -0.3667
15529TIP3    H268003   6.372   4.922  14.383  1.8835  1.6172 -0.6872
15530TIP3   OH268004   0.463   5.219  12.698 -0.1312 -0.3272  0.2928
15530TIP3    H168005   0.496   5.211  12.788 -0.8680 -1.2199  0.5057
15530TIP3    H268006   0.368   5.213  12.707 -0.4264  2.2734 -0.2987
15531TIP3   OH268007   6.338   1.647   5.707 -0.3660  0.4342 -0.1391
15531TIP3    H168008   6.423   1.619   5.675  0.3067 -0.4048  2.1783
15531TIP3    H268009   6.289   1.565   5.720 -0.2722  0.6163  1.7034
15532TIP3   OH268010   4.096   1.588   0.579 -0.1730  0.4688  0.0268
15532TIP3    H168011   4.185   1.609   0.607  0.5085 -2.7832  0.6791
15532TIP3    H268012   4.103   1.574   0.485 -0.7970  3.4515 -0.5699
15533TIP3   OH268013   0.541   5.527  14.303  0.2999 -0.0876  0.3630
15533TIP3    H168014   0.512   5.584  14.374 -1.9123 -1.0512  0.2980
15533TIP3    H268015   0.606   5.469  14.343  1.7261  1.6392  0.6992
15534TIP3   OH268016   6.117   3.779   6.000 -0.1441 -0.6048 -0.2843
15534TIP3    H168017   6.064   3.701   5.982 -0.9926  0.1073 -0.9534
15534TIP3    H268018   6.056   3.838   6.045  0.5107 -0.3384  0.2603
15535TIP3   OH268019   6.104   4.337   5.048  0.0414  0.2829  0.7778
15535TIP3    H168020   6.166   4.399   5.086  0.6061 -0.9302  1.9079
15535TIP3    H268021   6.125   4.336   4.954 -0.5239  2.3753  0.5874
15536TIP3   OH268022   1.163   5.758   0.149  0.3006 -0.1801 -0.3207
15536TIP3    H168023   1.165   5.845   0.110  0.4053 -0.0679 -0.0714
15536TIP3    H268024   1.071   5.731   0.145  0.5499 -0.8613 -2.1291
15537TIP3   OH268025   2.892   6.585  15.183  0.2328 -0.6023  0.5379
15537TIP3    H168026   2.861   6.551  15.099  2.0067 -1.0234  0.0226
15537TIP3    H268027   2.853   6.672  15.188  1.3372  0.0832 -1.4940
15538TIP3   OH268028   5.982   4.556   4.010 -0.7565 -0.4071  0.4450
15538TIP3    H168029   5.906   4.583   3.959 -2.1340 -1.2096  1.9801
15538TIP3    H268030   6.011   4.474   3.969 -0.8655 -0.2244  0.0000
15539TIP3   OH268031   3.336   0.274   4.861  0.3080 -0.2221 -0.1232
15539TIP3    H168032   3.278   0.260   4.936  0.1686  0.9833  0.0161
15539TIP3    H268033   3.309   0.210   4.796 -1.8773  0.9593 -0.4653
15540TIP3   OH268034   5.792   5.471  15.650 -0.0165  0.2627  0.2420
15540TIP3    H168035   5.701   5.499  15.644  0.6414  3.1659  1.7751
15540TIP3    H268036   5.837   5.520  15.582  0.6066 -0.2684  0.2594
15541TIP3   OH268037   3.132   1.771  15.416  0.0783  0.3478 -0.4935
15541TIP3    H168038   3.159   1.761  15.325  1.4263 -0.2178 -0.0539
15541TIP3    H268039   3.113   1.864  15.426  2.9898  1.0192 -0.5677
15542TIP3   OH268040   5.438   0.582  15.641 -0.1557 -0.1093  0.3096
15542TIP3    H168041   5.372   0.516  15.661  0.5396 -0.3113  2.1059
15542TIP3    H268042   5.395   0.665  15.662 -0.3520 -0.1277 -0.0118
15543TIP3   OH268043   2.976   3.747   3.319 -0.1544  0.4126 -0.3884
15543TIP3    H168044   2.970   3.842   3.315 -0.8136  0.3180 -2.4377
15543TIP3    H268045   2.909   3.715   3.259 -0.4914 -1.3892  0.8434
15544TIP3   OH268046   2.494   2.785   2.517  0.3505  0.3114 -0.3660
15544TIP3    H168047   2.472   2.692   2.529  1.4046 -0.1538 -1.7421
15544TIP3    H268048   2.479   2.824   2.603  2.0075 -1.5952  0.8858
15545TIP3   OH268049   2.918   3.008   0.798  0.3918 -0.5297 -0.2572
15545TIP3    H168050   3.000   2.959   0.801  0.5192 -0.3412 -0.6000
15545TIP3    H268051   2.856   2.950   0.753  0.3712 -0.6182 -0.1162
15546TIP3   OH268052   0.750   5.843   1.231 -0.0591 -0.8435 -0.3924
15546TIP3    H168053   0.685   5.866   1.298  1.2950 -0.5647  0.8863
15546TIP3    H268054   0.709   5.868   1.149 -1.5819 -0.7162  0.3576
15547TIP3   OH268055   1.420   2.579  10.986 -0.0726  0.1618 -0.5328
15547TIP3    H168056   1.493   2.526  11.017  0.2150  0.9117  0.0989
15547TIP3    H268057   1.425   2.659  11.038 -1.3977  0.1857 -0.4116
15548TIP3   OH268058   1.011   1.260   2.049  0.4051 -0.3158 -0.1845
15548TIP3    H168059   0.918   1.243   2.034  0.2052 -0.0584  0.6879
15548TIP3    H268060   1.040   1.306   1.970 -0.4743  0.5532 -0.0263
15549TIP3   OH268061   1.025   2.844   3.092 -0.1702 -0.2666  0.3663
15549TIP3    H168062   0.986   2.877   3.012 -0.3976 -0.1820  0.5135
15549TIP3    H268063   1.082   2.773   3.062  0.3807  0.2982  0.0424
15550TIP3   OH268064   5.993   5.678  14.770  0.3141 -0.0549  0.4900
15550TIP3    H168065   6.048   5.745  14.732  1.3854 -0.6593  0.9172
15550TIP3    H268066   5.953   5.719  14.847 -2.3357  1.3604 -1.4867
15551TIP3   OH268067   5.958   3.643  10.403  0.2455  0.2322  0.1799
15551TIP3    H168068   5.947   3.583  10.478 -1.3777  0.0201 -0.1947
15551TIP3    H268069   6.042   3.686  10.419  0.0978 -0.0611  1.9538
15552TIP3   OH268070   4.647   5.439   6.563  0.3052  0.0898 -0.2297
15552TIP3    H168071   4.581   5.477   6.504 -0.7682 -0.3657  0.6565
15552TIP3    H268072   4.597   5.405   6.637  1.7633  2.5183  2.0371
15553TIP3   OH268073   2.850   4.648   4.531 -0.8033  0.2219  0.1644
15553TIP3    H168074   2.832   4.663   4.438 -1.2973  0.6181  0.3255
15553TIP3    H268075   2.769   4.670   4.576 -0.4129  0.5163  0.7447
15554TIP3   OH268076   0.878   2.793  17.303 -0.6765 -0.1306  0.7842
15554TIP3    H168077   0.901   2.876  17.262  1.6710 -0.8922  0.4191
15554TIP3    H268078   0.802   2.762  17.255 -1.2633  1.5257  0.5787
15555TIP3   OH268079   2.559   4.766   1.031 -0.2233 -0.2685 -0.5266
15555TIP3    H168080   2.551   4.678   0.994 -0.1980 -0.6171  0.2837
15555TIP3    H268081   2.645   4.766   1.074 -0.5107 -0.0825  0.0636
15556TIP3   OH268082   2.022   4.553   3.547 -0.1319 -0.3329  0.2194
15556TIP3    H168083   1.975   4.577   3.467 -1.9462 -0.4127  1.2002
15556TIP3    H268084   1.983   4.608   3.615 -0.2584 -1.8817  1.4544
15557TIP3   OH268085   5.510   5.838   6.027 -0.0376 -0.3589 -0.4676
15557TIP3    H168086   5.592   5.789   6.034 -0.1327 -0.4430  0.0516
15557TIP3    H268087   5.463   5.819   6.108  0.8593  2.2960  0.7929
15558TIP3   OH268088   3.851   2.948  12.826  0.2559 -0.0972  0.0394
15558TIP3    H168089   3.890   3.035  12.836  0.0422 -0.2637  3.6794
15558TIP3    H268090   3.758   2.966  12.809 -0.1642  0.5353  2.5491
15559TIP3   OH268091   4.623   0.953   4.968  0.9800 -0.5894 -0.1883
15559TIP3    H168092   4.587   0.948   4.880 -1.8585  0.8819  0.7778
15559TIP3    H268093   4.559   0.907   5.022  2.1025 -0.4996  1.2751
15560TIP3   OH268094   0.465   2.184  14.983 -0.2280  0.0128 -0.1144
15560TIP3    H168095   0.471   2.277  14.963  0.0331  0.0915  0.3267
15560TIP3    H268096   0.395   2.178  15.048  0.5043  0.0436  0.7023
15561TIP3   OH268097   5.465   0.308   2.150  0.1194 -0.1859 -0.1871
15561TIP3    H168098   5.532   0.352   2.202  0.9308 -1.1100 -0.4125
15561TIP3    H268099   5.459   0.361   2.070  0.9183 -0.3311 -0.3609
15562TIP3   OH268100   2.901   1.098   3.951  0.0046 -0.2305  0.6430
15562TIP3    H168101   2.957   1.078   4.025 -1.5877 -0.2642  1.8959
15562TIP3    H268102   2.925   1.187   3.925 -0.5603  0.4321  2.3075
15563TIP3   OH268103   0.592   4.502   1.627  0.8256 -0.6265 -0.6714
15563TIP3    H168104   0.593   4.587   1.582 -2.8350 -0.2394 -0.3021
15563TIP3    H268105   0.654   4.448   1.578  1.5138  1.5608 -2.3726
15564TIP3   OH268106   1.267   2.115   3.051  0.4915  0.0988 -0.0186
15564TIP3    H168107   1.281   2.036   3.000 -1.0800  1.1034 -2.1636
15564TIP3    H268108   1.172   2.126   3.054  0.6633  1.9571  0.0862
15565TIP3   OH268109   1.311   1.503   4.581 -0.1089 -0.1991  0.4351
15565TIP3    H168110   1.224   1.540   4.596  0.8319  1.8353  1.2246
15565TIP3    H268111   1.369   1.556   4.636  1.5929 -1.7524  0.2276
15566TIP3   OH268112   2.582   5.268  16.570 -0.6014  0.0767  0.2350
15566TIP3    H168113   2.669   5.291  16.604 -0.0475  1.6902 -2.0326
15566TIP3    H268114   2.599   5.212  16.495 -1.5239  0.3938 -0.2265
15567TIP3   OH268115   4.035   1.087  16.668  0.1393  0.4195  0.0293
15567TIP3    H168116   4.129   1.107  16.676  0.5198 -1.2472  0.1334
15567TIP3    H268117   4.002   1.091  16.758 -0.1867  2.1560 -0.1264
15568TIP3   OH268118   5.674   3.299   4.844 -0.6566 -0.0697  0.2982
15568TIP3    H168119   5.719   3.360   4.903 -1.1700  0.6851 -0.0716
15568TIP3    H268120   5.713   3.316   4.758  0.1860 -1.2600  0.4100
15569TIP3   OH268121   0.846   6.707  16.849 -0.2676 -0.2152 -0.0491
15569TIP3    H168122   0.817   6.618  16.867 -0.3295  0.0373  1.2123
15569TIP3    H268123   0.774   6.762  16.880  0.1533  0.2983  0.0254
15570TIP3   OH268124   6.617   4.192  11.485 -0.1176 -0.1500 -0.2053
15570TIP3    H168125   6.618   4.177  11.390 -0.1915 -1.4333 -0.0250
15570TIP3    H268126   6.653   4.280  11.496 -1.5468  0.6523 -1.5149
15571TIP3   OH268127   6.644   0.136   3.932  0.2786 -0.0157 -0.1159
15571TIP3    H168128   6.699   0.195   3.881  0.0650  1.1689  0.9429
15571TIP3    H268129   6.691   0.126   4.015 -1.2457  1.3606  0.9728
15572TIP3   OH268130   2.646   6.555  15.887  0.5458 -0.0602 -1.0681
15572TIP3    H168131   2.653   6.529  15.796 -0.5054  0.4233 -1.2984
15572TIP3    H268132   2.631   6.650  15.885 -1.4329 -0.3131 -0.5081
15573TIP3   OH268133   2.993   2.288   2.478 -0.6677  0.5545  0.1553
15573TIP3    H168134   2.910   2.244   2.458  0.2857 -0.6956 -1.3336
15573TIP3    H268135   3.043   2.223   2.527  0.4180  0.2387 -1.2837
15574TIP3   OH268136   1.209   0.434   4.469 -0.0173  0.4146 -0.0238
15574TIP3    H168137   1.169   0.508   4.423  1.3176  1.3974  0.2992
15574TIP3    H268138   1.303   0.446   4.455  0.2994 -0.4740  1.1509
15575TIP3   OH268139   3.541   5.061   5.359  0.1639  0.1731  0.3080
15575TIP3    H168140   3.510   5.055   5.450  0.8429 -1.4808  0.4751
15575TIP3    H268141   3.517   4.977   5.321  0.5901  0.5547 -0.8288
15576TIP3   OH268142   5.016   0.529  13.727 -0.1896 -0.1685 -0.1859
15576TIP3    H168143   5.107   0.542  13.700 -0.1416 -1.0407 -0.4582
15576TIP3    H268144   5.022   0.489  13.814 -0.3287  0.5927  0.1840
15577TIP3   OH268145   6.447   4.931   4.045 -0.2974  0.2813  0.4017
15577TIP3    H168146   6.512   4.971   3.987  0.1020 -0.1046  0.5739
15577TIP3    H268147   6.365   4.936   3.997  0.0259 -0.0142 -0.1902
15578TIP3   OH268148   3.311   2.818   3.371  0.3634  0.0078 -0.2166
15578TIP3    H168149   3.219   2.801   3.352  0.9240 -1.2701 -2.1147
15578TIP3    H268150   3.330   2.902   3.330  0.0226  0.3612  0.3340
15579TIP3   OH268151   0.759   0.431   4.253 -0.2168 -0.1733 -0.1327
15579TIP3    H168152   0.802   0.494   4.196  0.3245 -0.8594 -0.5105
15579TIP3    H268153   0.816   0.425   4.330  0.3177 -0.9916 -0.5786
15580TIP3   OH268154   4.453   1.757  15.616 -0.0565  0.1383 -0.2602
15580TIP3    H168155   4.541   1.785  15.588  0.1494 -0.2354  0.0068
15580TIP3    H268156   4.415   1.836  15.655 -0.1461  0.5209 -1.0957
15581TIP3   OH268157   0.891   3.732   0.357 -0.6291 -0.0959  0.1605
15581TIP3    H168158   0.937   3.704   0.437 -2.3549  0.5983  1.4593
15581TIP3    H268159   0.903   3.826   0.355  0.7826 -0.2775 -1.3438
15582TIP3   OH268160   2.104   1.489  15.443  0.5026  0.0599  0.1392
15582TIP3    H168161   2.144   1.541  15.374  0.0048  0.7084  0.3308
15582TIP3    H268162   2.025   1.452  15.403 -0.5735  1.5994  0.7430
15583TIP3   OH268163   0.779   0.667   2.784 -0.2641  0.3614  0.5563
15583TIP3    H168164   0.698   0.632   2.822  0.5133 -0.3479  1.6439
15583TIP3    H268165   0.829   0.589   2.759 -1.3337  0.7441 -3.4808
15584TIP3   OH268166   6.390   2.238  13.721 -0.6712 -0.2738 -0.2639
15584TIP3    H168167   6.422   2.173  13.659 -0.1241  0.7316 -1.0782
15584TIP3    H268168   6.301   2.257  13.691 -0.9823 -0.9291  0.2221
15585TIP3   OH268169   5.524   1.269   2.133 -0.0529  0.4209  0.0810
15585TIP3    H168170   5.613   1.235   2.144 -0.0163  0.0827 -1.0729
15585TIP3    H268171   5.468   1.200   2.169  0.1254  0.3058  0.1415
15586TIP3   OH268172   0.917   1.908  13.240 -0.1436 -0.5216 -0.4218
15586TIP3    H168173   0.875   1.972  13.298  1.3525  0.7918 -0.7022
15586TIP3    H268174   0.899   1.939  13.152  0.4053 -0.6129 -0.5706
15587TIP3   OH268175   4.284   0.226   3.632 -0.3327  0.3784  0.3051
15587TIP3    H168176   4.260   0.183   3.714  0.6646 -0.7795  0.0032
15587TIP3    H268177   4.274   0.320   3.651 -0.5788  0.1120  1.5871
15588TIP3   OH268178   3.698   2.102  13.802 -0.3089 -0.4381 -0.1963
15588TIP3    H168179   3.747   2.179  13.774 -1.1987  1.2391  2.4999
15588TIP3    H268180   3.756   2.057  13.864 -0.9321 -0.2498  0.5315
15589TIP3   OH268181   4.376   5.022  13.074 -0.5183  0.2118  0.3584
15589TIP3    H168182   4.300   4.989  13.123 -0.1185 -1.6040 -0.1668
15589TIP3    H268183   4.338   5.065  12.997 -1.0375 -2.0155 -0.7040
15590TIP3   OH268184   4.434   4.937   1.493 -0.2539 -0.6968 -0.0565
15590TIP3    H168185   4.517   4.975   1.464 -0.1153 -0.7828  0.2237
15590TIP3    H268186   4.433   4.952   1.588 -0.2427 -1.3128  0.0413
15591TIP3   OH268187   4.385   2.157  14.868  0.5665 -0.0832 -0.5869
15591TIP3    H168188   4.473   2.149  14.904  0.4419 -0.7225 -0.4074
15591TIP3    H268189   4.364   2.069  14.836 -0.8604 -0.5553  1.4105
15592TIP3   OH268190   6.080   6.558   3.326 -0.2535 -0.3562  0.5193
15592TIP3    H168191   6.113   6.538   3.413  0.1607  0.7354  0.6292
15592TIP3    H268192   6.089   6.653   3.318 -2.4445 -0.1208  0.1576
15593TIP3   OH268193   5.471   2.812  16.048  0.1413 -0.3532 -0.7680
15593TIP3    H168194   5.381   2.787  16.028 -0.2877  0.5112  0.0243
15593TIP3    H268195   5.516   2.807  15.964 -1.2930  1.9014 -1.7592
15594TIP3   OH268196   0.920   0.958   1.995  0.4209 -0.0780 -0.5766
15594TIP3    H168197   0.866   0.893   2.039  0.4159  0.0044 -0.4588
15594TIP3    H268198   0.864   1.036   1.991  0.4492 -0.0622 -0.6589
15595TIP3   OH268199   6.474   6.099  14.458 -0.1548 -0.1247  0.5261
15595TIP3    H168200   6.547   6.123  14.401 -0.0140 -2.0687 -0.1963
15595TIP3    H268201   6.485   6.155  14.535  1.2529  0.6339 -0.1828
15596TIP3   OH268202   2.881   6.572  11.681  0.1553  0.0176  0.3444
15596TIP3    H168203   2.823   6.640  11.715  1.3625  2.2091 -1.6033
15596TIP3    H268204   2.926   6.537  11.758  1.0498  3.0216  1.3420
15597TIP3   OH268205   5.763   0.003  16.906  0.8694 -0.3768  0.1434
15597TIP3    H168206   5.822   0.071  16.938 -0.3070  0.9691 -0.4475
15597TIP3    H268207   5.786  -0.075  16.957  2.0946  0.5163  1.0018
15598TIP3   OH268208   5.054   5.978   1.809 -0.3340  0.2758  0.0923
15598TIP3    H168209   5.086   5.893   1.838 -0.1925  0.3272  0.0881
15598TIP3    H268210   4.959   5.969   1.808 -0.5261  0.9682  2.8740
15599TIP3   OH268211   0.456   4.202  17.337 -0.3137 -0.1998 -0.1396
15599TIP3    H168212   0.533   4.217  17.392 -1.5316  2.8668  0.9006
15599TIP3    H268213   0.481   4.236  17.251  0.0805 -0.9870 -0.3549
15600TIP3   OH268214   1.976   1.767   6.463  0.3305  1.2729 -0.2212
15600TIP3    H168215   1.959   1.855   6.429  3.3091  1.9342 -0.3000
15600TIP3    H268216   2.071   1.761   6.469  0.4590 -2.7810 -2.4171
15601TIP3   OH268217   2.195   1.214  10.413  0.1873 -0.2466  0.4533
15601TIP3    H168218   2.162   1.280  10.475 -0.1072 -0.1625  0.2063
15601TIP3    H268219   2.238   1.149  10.469  0.0739 -0.0825  0.7355
15602TIP3   OH268220   2.796   3.981  12.706  0.0028  0.3604 -0.3851
15602TIP3    H168221   2.877   3.931  12.716 -0.0483  0.2616 -0.4708
15602TIP3    H268222   2.756   3.980  12.793 -0.0293  0.2005 -0.4033
15603TIP3   OH268223   1.226   3.997  14.390  0.2704  0.8205 -0.0087
15603TIP3    H168224   1.181   3.914  14.378  1.0616  0.6696 -2.4353
15603TIP3    H268225   1.198   4.051  14.315  1.3683  1.9763  0.3788
15604TIP3   OH268226   4.998   4.255  12.529 -0.1970 -0.5180 -0.2176
15604TIP3    H168227   5.082   4.234  12.486  0.6257 -1.4559  1.7170
15604TIP3    H268228   4.959   4.169  12.548 -1.4493 -0.0887 -0.7847
15605TIP3   OH268229   5.807   6.469  12.698  0.1195 -0.0866 -0.0908
15605TIP3    H168230   5.834   6.389  12.744  0.2638  0.6174  1.0905
15605TIP3    H268231   5.843   6.459  12.610  1.5973 -0.5795  0.5371
15606TIP3   OH268232   2.570   5.328   6.597 -0.0541  0.2300 -0.0181
15606TIP3    H168233   2.499   5.392   6.596  0.0412  0.3322 -0.7338
15606TIP3    H268234   2.564   5.284   6.512  0.6497  0.1418 -0.0249
15607TIP3   OH268235   3.311   3.094   2.438 -0.5261 -0.2145  0.1699
15607TIP3    H168236   3.346   3.079   2.525 -1.5675  0.6571  0.7647
15607TIP3    H268237   3.250   3.021   2.423 -0.9781  0.0844  0.5284
15608TIP3   OH268238   4.794   0.965  10.883  0.5423  0.3132 -0.0408
15608TIP3    H168239   4.700   0.964  10.865  0.8817 -1.5142 -2.0231
15608TIP3    H268240   4.820   1.057  10.872 -0.6628  0.5097 -1.4370
15609TIP3   OH268241   3.594   0.813   1.484 -0.5465  0.6406  0.4349
15609TIP3    H168242   3.602   0.724   1.450  1.8794  0.7523  0.5251
15609TIP3    H268243   3.600   0.869   1.407 -0.8698  0.7715  0.5008
15610TIP3   OH268244   4.073   0.113  14.743  0.1054  0.9398 -0.5064
15610TIP3    H168245   4.028   0.182  14.791  0.1053  0.3698  0.3438
15610TIP3    H268246   4.139   0.158  14.690 -0.7015  1.6808 -0.9013
15611TIP3   OH268247   4.260   4.280   1.163  0.0546 -0.1511  0.2730
15611TIP3    H168248   4.214   4.327   1.094  0.2018  0.8226  0.8145
15611TIP3    H268249   4.349   4.316   1.160  0.3683 -0.9158  0.2335
15612TIP3   OH268250   0.543   0.175   3.823  0.6525 -0.0422 -0.1790
15612TIP3    H168251   0.635   0.162   3.847  0.3973 -0.4259  0.6220
15612TIP3    H268252   0.509   0.234   3.891  0.9195  2.1904 -1.8471
15613TIP3   OH268253   4.197   2.962   3.909 -0.4626 -0.3982  0.6650
15613TIP3    H168254   4.286   2.981   3.879 -0.7798 -1.9430 -1.5263
15613TIP3    H268255   4.144   3.034   3.877 -0.9518 -2.4248 -3.7466
15614TIP3   OH268256   6.705   5.309  15.354 -0.3953 -0.2416 -0.0769
15614TIP3    H168257   6.800   5.316  15.365 -0.1854 -0.2637 -1.6444
15614TIP3    H268258   6.673   5.281  15.440  0.8913  0.7787  0.7692
15615TIP3   OH268259   1.169   2.469  17.172 -0.0198 -0.2750 -0.4363
15615TIP3    H168260   1.249   2.417  17.177  0.5950  0.5491 -1.4246
15615TIP3    H268261   1.156   2.486  17.079 -2.0140 -1.3691 -0.4177
15616TIP3   OH268262   5.925   0.312  16.624 -0.3517  0.3660  0.4271
15616TIP3    H168263   5.958   0.287  16.538  0.6592 -0.8141  1.1234
15616TIP3    H268264   5.942   0.406  16.630 -0.5804  0.4874 -0.7173
15617TIP3   OH268265   6.034   3.940  13.526 -0.4600 -0.2147  0.9661
15617TIP3    H168266   6.118   3.898  13.542 -1.1421 -1.0780  2.4835
15617TIP3    H268267   6.013   3.986  13.607  0.2884  3.2938 -0.6502
15618TIP3   OH268268   6.198   2.244  15.444 -0.5097 -0.2478  0.5045
15618TIP3    H168269   6.191   2.156  15.480 -0.6061  0.5551  2.5924
15618TIP3    H268270   6.109   2.277  15.443 -0.4062  0.0243  0.2648
15619TIP3   OH268271   0.837   3.923   1.483  0.7137  0.1975 -0.1307
15619TIP3    H168272   0.770   3.986   1.459 -0.3979 -0.4059  1.2398
15619TIP3    H268273   0.919   3.972   1.477 -0.1041  1.7481  0.7658
15620TIP3   OH268274   6.583   2.641   0.177  0.5973  0.3638  0.1927
15620TIP3    H168275   6.670   2.673   0.153  0.8685 -0.4054  0.1202
15620TIP3    H268276   6.562   2.576   0.110 -0.6547  1.5487 -0.5995
15621TIP3   OH268277   3.638   1.923  10.817  0.2164  0.4989  0.3932
15621TIP3    H168278   3.634   1.850  10.879  1.1149 -0.1376 -0.2850
15621TIP3    H268279   3.549   1.930  10.783  0.3243 -0.8759 -0.2127
15622TIP3   OH268280   1.597   1.567  17.001  0.2831  0.6329  0.3053
15622TIP3    H168281   1.597   1.648  17.052  2.3724  0.4025  0.7827
15622TIP3    H268282   1.679   1.571  16.951  1.7681 -2.2291  2.1896
15623TIP3   OH268283   4.422   0.470  17.041 -0.6699  0.7422 -0.1324
15623TIP3    H168284   4.407   0.376  17.038  0.2067  0.5783  0.1012
15623TIP3    H268285   4.382   0.504  16.961 -1.9286  0.3281  0.2996
15624TIP3   OH268286   3.620   6.571   4.555  0.1554  0.0492 -0.0943
15624TIP3    H168287   3.556   6.588   4.486  1.8782  0.2015 -1.7362
15624TIP3    H268288   3.613   6.645   4.615 -1.8714 -0.4432  0.3321
15625TIP3   OH268289   2.711   0.699   4.059  0.7701  0.0277  0.0868
15625TIP3    H168290   2.735   0.773   4.002 -0.7428 -0.9281 -1.9088
15625TIP3    H268291   2.794   0.673   4.099  2.4476 -0.5814 -3.3602
15626TIP3   OH268292   5.280   3.176  12.778 -0.1189  0.3299  0.3707
15626TIP3    H168293   5.286   3.117  12.703  0.8672  0.9636 -0.0616
15626TIP3    H268294   5.348   3.145  12.838  0.3931  1.0090  0.1457
15627TIP3   OH268295   1.804   0.823   2.673  0.3635 -0.2271 -0.1730
15627TIP3    H168296   1.827   0.733   2.647  1.7995  0.2507 -0.6774
15627TIP3    H268297   1.752   0.856   2.599 -1.1753 -0.9950  0.5272
15628TIP3   OH268298   3.352   5.851  12.917 -0.3176 -0.2471  0.5465
15628TIP3    H168299   3.321   5.925  12.969 -1.1291 -0.4152  0.3185
15628TIP3    H268300   3.423   5.814  12.969  0.6952  1.2044  0.2474
15629TIP3   OH268301   0.004   2.019   0.552 -0.6458  0.0234 -0.1911
15629TIP3    H168302  -0.004   1.938   0.602 -2.2944  0.5511  0.4653
15629TIP3    H268303   0.080   2.005   0.496 -0.7630 -1.8823  0.0600
15630TIP3   OH268304   6.368   5.826   3.676  0.3949  0.6220  0.1828
15630TIP3    H168305   6.421   5.905   3.686 -0.3605  1.6203 -2.6563
15630TIP3    H268306   6.285   5.847   3.719  0.8438  0.6009  1.0920
15631TIP3   OH268307   3.714   2.580   4.957 -0.1337  0.2057  0.2398
15631TIP3    H168308   3.622   2.596   4.938 -0.6581 -2.0351  0.6659
15631TIP3    H268309   3.745   2.662   4.996 -1.5076  1.5339 -1.3054
15632TIP3   OH268310   5.604   1.847   2.067 -0.2736  0.3931  0.3188
15632TIP3    H168311   5.656   1.813   1.994  1.2542  0.5808  1.2743
15632TIP3    H268312   5.623   1.788   2.139 -1.0016  0.7709  0.8285
15633TIP3   OH268313   6.438   3.843  14.277  0.3993 -0.1584 -0.4463
15633TIP3    H168314   6.507   3.817  14.338  0.6362  1.3121 -0.0485
15633TIP3    H268315   6.385   3.764  14.266  1.4994 -0.9954  0.1082
15634TIP3   OH268316   1.518   6.223  17.199  0.2104 -0.6932  0.1689
15634TIP3    H168317   1.556   6.216  17.111 -0.5858 -0.8388 -0.1675
15634TIP3    H268318   1.532   6.315  17.223 -2.8033  0.3785 -1.6411
15635TIP3   OH268319   2.442   4.971  17.240 -0.2281  0.1862  0.1047
15635TIP3    H168320   2.395   5.049  17.270 -0.2588  0.1926  0.0391
15635TIP3    H268321   2.474   4.931  17.321  0.5043  0.7144  0.0874
15636TIP3   OH268322   4.650   1.335   5.271  0.3616  0.3381 -0.3258
15636TIP3    H168323   4.679   1.418   5.310  0.2188 -0.2275  1.0511
15636TIP3    H268324   4.716   1.316   5.204  0.7708  1.2311 -0.1948
15637TIP3   OH268325   5.835   0.278   5.722 -0.1923 -0.6665  0.1742
15637TIP3    H168326   5.836   0.358   5.775  2.6103  0.2270 -1.0500
15637TIP3    H268327   5.872   0.211   5.780 -1.7287 -0.9431  0.9028
15638TIP3   OH268328   0.354   4.464  11.573 -0.6861 -0.7127 -0.0302
15638TIP3    H168329   0.421   4.397  11.584  0.1046 -0.1933 -1.4945
15638TIP3    H268330   0.272   4.418  11.593  0.1357 -0.8723  3.7109
15639TIP3   OH268331   5.493   0.598   0.846  0.5192 -0.4010  0.2439
15639TIP3    H168332   5.532   0.571   0.763  2.3134  1.6388  0.3176
15639TIP3    H268333   5.567   0.599   0.907 -0.2615  0.5854  1.1991
15640TIP3   OH268334   4.940   6.038   2.089 -0.0548 -0.5877 -0.1039
15640TIP3    H168335   4.950   6.062   2.182 -0.9760  0.1153 -0.1668
15640TIP3    H268336   5.024   5.999   2.065  0.8134  0.7809  0.5780
15641TIP3   OH268337   2.960   1.941  11.158 -0.1352  0.1576 -0.1585
15641TIP3    H168338   2.882   1.954  11.105 -0.3201 -1.5985 -0.3843
15641TIP3    H268339   3.031   1.929  11.095  0.3099  1.5584  0.0445
15642TIP3   OH268340   2.334   4.347   0.613  0.6432 -0.7396 -0.1981
15642TIP3    H168341   2.304   4.340   0.522 -1.2257  1.8063  0.1011
15642TIP3    H268342   2.357   4.258   0.638 -0.2102 -1.7436 -2.6866
15643TIP3   OH268343   6.350   2.723  14.768  0.4611 -0.2971  0.1457
15643TIP3    H168344   6.387   2.647  14.722  1.1983 -0.8004  1.5104
15643TIP3    H268345   6.262   2.732  14.732  0.7191 -1.1770 -0.7585
15644TIP3   OH268346   2.477   5.710   3.046 -0.1809 -0.0631  0.0719
15644TIP3    H168347   2.457   5.755   2.963 -0.3797 -1.3731 -0.6265
15644TIP3    H268348   2.525   5.632   3.020 -0.9723 -0.9382  1.1069
15645TIP3   OH268349   6.146   3.586   0.386 -0.2988  0.0834  0.1333
15645TIP3    H168350   6.200   3.530   0.331 -0.4648 -0.1366  0.1944
15645TIP3    H268351   6.063   3.540   0.395 -0.4089  0.2989  0.2512
15646TIP3   OH268352   4.808   0.813   2.385  0.2975  0.1373 -0.0187
15646TIP3    H168353   4.758   0.759   2.324  0.8261 -0.1505 -0.2020
15646TIP3    H268354   4.888   0.836   2.337  2.1936 -2.6080  1.5338
15647TIP3   OH268355   4.619   3.831  16.919  0.0506 -0.3885 -0.0177
15647TIP3    H168356   4.555   3.760  16.914 -1.5789  0.8451  1.9144
15647TIP3    H268357   4.568   3.911  16.908  1.6693  0.5815 -0.9733
15648TIP3   OH268358   1.842   6.155   0.590 -0.4897 -0.4501 -0.2962
15648TIP3    H168359   1.909   6.131   0.526  0.1229  2.9840 -1.1096
15648TIP3    H268360   1.881   6.135   0.675  0.6667 -0.5538 -0.8393
15649TIP3   OH268361   1.290   0.556   3.932 -0.1033 -0.4759 -0.7547
15649TIP3    H168362   1.284   0.569   4.026  1.8759  0.6481 -0.7195
15649TIP3    H268363   1.346   0.480   3.922  0.4274 -0.0591 -1.0078
15650TIP3   OH268364   0.438   0.363   3.639 -0.7181 -0.0323  0.3079
15650TIP3    H168365   0.486   0.302   3.695  1.2282  1.9049  0.8951
15650TIP3    H268366   0.388   0.418   3.699  0.8836  1.6418  0.2031
15651TIP3   OH268367   2.434   5.114  14.716  0.8598 -0.5920  0.0121
15651TIP3    H168368   2.352   5.162  14.728  0.5413 -0.9684 -0.6125
15651TIP3    H268369   2.442   5.061  14.795  1.7172  1.1818  1.1790
15652TIP3   OH268370   1.079   5.709  15.358  0.4701 -0.2920  0.8461
15652TIP3    H168371   1.021   5.693  15.433  2.5537  0.4232  2.7054
15652TIP3    H268372   1.150   5.762  15.394  3.3696 -2.7669 -0.7758
15653TIP3   OH268373   0.986   6.165  12.054  0.0674 -0.2865  0.1675
15653TIP3    H168374   0.978   6.108  11.978 -0.1539  0.0317 -0.0490
15653TIP3    H268375   1.080   6.167  12.073  0.0814 -0.6863  0.1505
15654TIP3   OH268376   4.729   3.544   2.022 -0.0599  0.0539  0.0202
15654TIP3    H168377   4.683   3.487   2.084 -0.5098  0.8166  0.4078
15654TIP3    H268378   4.673   3.621   2.014  1.7763  1.6997  1.6448
15655TIP3   OH268379   4.573   3.243  16.487  0.4220  0.2604 -0.0028
15655TIP3    H168380   4.657   3.262  16.529  0.9330  1.3057 -1.3932
15655TIP3    H268381   4.524   3.192  16.551  0.6686  2.7522  2.3367
15656TIP3   OH268382   0.761   3.498   1.933 -0.2600 -0.0848  0.1353
15656TIP3    H168383   0.794   3.471   1.847  0.0246 -1.6490  0.6967
15656TIP3    H268384   0.677   3.540   1.915 -0.8303 -1.5641 -0.8074
15657TIP3   OH268385   3.557   4.063  13.357  0.4931 -0.1946 -0.1777
15657TIP3    H168386   3.538   4.063  13.264 -1.2867  1.6247  0.1264
15657TIP3    H268387   3.498   3.998  13.394 -2.6206  2.6074  0.2320
15658TIP3   OH268388   1.023   2.730  15.939  0.0776 -0.1073 -0.6677
15658TIP3    H168389   1.025   2.636  15.956  0.0950  0.1602  1.0362
15658TIP3    H268390   1.071   2.769  16.013 -2.1519  1.3760  0.1265
15659TIP3   OH268391   4.158   2.223  13.008 -0.1390 -0.0777 -0.0911
15659TIP3    H168392   4.235   2.225  12.951  0.6295 -0.4271  0.9047
15659TIP3    H268393   4.145   2.130  13.028 -0.6131  0.0107  0.0259
15660TIP3   OH268394   4.921   2.170  11.861  0.3695  0.1044 -0.0968
15660TIP3    H168395   4.901   2.171  11.768 -0.8781  0.8662  0.1513
15660TIP3    H268396   4.896   2.257  11.892  2.5577  0.5326  0.6089
15661TIP3   OH268397   6.275   0.207   4.404  0.3481  0.2376 -0.1046
15661TIP3    H168398   6.184   0.198   4.374 -0.0350  0.1750  1.0371
15661TIP3    H268399   6.326   0.155   4.342 -0.3750  0.3964 -0.8487
15662TIP3   OH268400   4.224   2.181   4.636 -0.2554 -0.0446  0.7336
15662TIP3    H168401   4.255   2.224   4.556  1.0387 -1.3030  0.5287
15662TIP3    H268402   4.166   2.246   4.677  0.0621  1.1070 -0.5684
15663TIP3   OH268403   4.137   3.778  16.508  0.1864 -0.0523 -0.3838
15663TIP3    H168404   4.153   3.761  16.416 -2.2318 -0.8803 -0.7063
15663TIP3    H268405   4.132   3.692  16.549 -2.3409  0.1139 -0.2013
15664TIP3   OH268406   1.272   1.499   2.477  0.5192  0.2951 -0.2677
15664TIP3    H168407   1.339   1.506   2.409  0.3186  0.7904 -0.4128
15664TIP3    H268408   1.244   1.407   2.473  3.3375 -0.8083  1.8247
15665TIP3   OH268409   3.047   6.546   0.965 -0.1398 -0.3959  0.6260
15665TIP3    H168410   3.043   6.582   1.053 -1.5846 -3.1624  1.8462
15665TIP3    H268411   2.995   6.465   0.970 -0.1177 -0.7756 -2.7253
15666TIP3   OH268412   3.832   1.279   2.319  0.2133  0.0767 -0.2783
15666TIP3    H168413   3.875   1.194   2.306 -1.4484 -1.0412  1.1006
15666TIP3    H268414   3.738   1.260   2.310 -0.2525  1.5851  0.9478
15667TIP3   OH268415   6.381   4.464   6.025  0.6913  0.8109 -0.2377
15667TIP3    H168416   6.351   4.431   6.110  0.2422  3.1248  0.5955
15667TIP3    H268417   6.476   4.473   6.036  0.7384  0.3612 -0.2636
15668TIP3   OH268418   2.685   0.345  16.277 -0.4008 -0.1128 -0.5293
15668TIP3    H168419   2.678   0.376  16.187  0.5010  0.1180 -0.5255
15668TIP3    H268420   2.778   0.329  16.290 -0.5896 -0.6900  0.1853
15669TIP3   OH268421   6.583   5.707   4.406  0.0876  0.3220 -0.5303
15669TIP3    H168422   6.656   5.697   4.468 -1.1191 -1.9584  0.6621
15669TIP3    H268423   6.548   5.794   4.424 -1.1923 -0.7745  3.2931
15670TIP3   OH268424   2.424   3.717   6.216  0.0919 -0.0977  0.4413
15670TIP3    H168425   2.416   3.753   6.128  0.3417  0.2548  0.5599
15670TIP3    H268426   2.488   3.773   6.259  0.3942 -0.6120  0.6702
15671TIP3   OH268427   1.644   3.413  12.213 -0.4909 -0.0028 -0.4147
15671TIP3    H168428   1.560   3.375  12.190  0.4956 -2.4250 -0.2909
15671TIP3    H268429   1.653   3.398  12.308  0.2054 -0.0371 -0.4773
15672TIP3   OH268430   2.817   2.625  13.919 -0.1257 -0.0804 -0.0521
15672TIP3    H168431   2.785   2.580  13.841  0.6036 -0.2543 -0.2683
15672TIP3    H268432   2.785   2.572  13.992 -0.0078 -0.4608 -0.2746
15673TIP3   OH268433   6.015   2.522   6.520 -0.1301  0.0257 -0.2567
15673TIP3    H168434   6.072   2.447   6.501  1.2841  1.1921 -0.7817
15673TIP3    H268435   6.065   2.598   6.491 -0.8047  1.3358  1.7943
15674TIP3   OH268436   5.811   3.381   4.612  0.4714  0.0204 -0.2758
15674TIP3    H168437   5.791   3.475   4.603 -2.1030 -0.4576 -0.2497
15674TIP3    H268438   5.807   3.347   4.522 -0.5329 -0.3754 -0.0944
15675TIP3   OH268439   0.529   4.815  14.009  0.3153  0.3226  0.1862
15675TIP3    H168440   0.507   4.863  14.089 -1.7478 -0.0587 -0.1038
15675TIP3    H268441   0.496   4.726  14.025  1.0831 -0.1233 -0.5943
15676TIP3   OH268442   0.270   0.865   2.926 -0.4018  1.1839 -0.0936
15676TIP3    H168443   0.310   0.816   2.998 -2.5598 -1.6516 -0.6575
15676TIP3    H268444   0.211   0.927   2.970  0.1404  1.2343  0.5854
15677TIP3   OH268445   0.452   3.333   4.548 -0.2686 -0.8826  0.0257
15677TIP3    H168446   0.535   3.293   4.520  0.1125  0.0373 -0.1745
15677TIP3    H268447   0.469   3.427   4.548 -0.8946 -0.7501  1.3434
15678TIP3   OH268448   5.566   2.368  12.204  0.1175 -0.0614 -0.0168
15678TIP3    H168449   5.551   2.277  12.232 -1.1674 -0.0674 -0.6299
15678TIP3    H268450   5.478   2.406  12.201  0.5794  1.0014 -0.4500
15679TIP3   OH268451   4.489   4.921  14.346 -0.2996  0.0513  0.0283
15679TIP3    H168452   4.509   4.894  14.256  1.8585 -0.1793  0.5453
15679TIP3    H268453   4.422   4.989  14.335 -2.6049 -2.2769 -1.5405
15680TIP3   OH268454   2.709   3.146   1.228 -0.1879 -1.0127  0.1368
15680TIP3    H168455   2.700   3.052   1.213 -1.2933 -0.6380 -1.8743
15680TIP3    H268456   2.742   3.181   1.145  0.0856  0.3993  0.8117
15681TIP3   OH268457   4.242   2.729  14.255  0.6192  0.0925  0.2384
15681TIP3    H168458   4.207   2.788  14.188  1.7741  0.0186 -0.4612
15681TIP3    H268459   4.165   2.686  14.292 -0.0460  0.1248 -1.0548
15682TIP3   OH268460   4.340   3.963  15.269  0.2701  0.1760  0.1672
15682TIP3    H168461   4.277   3.952  15.198  1.5965  1.2213 -1.2387
15682TIP3    H268462   4.364   3.874  15.294  0.9002 -0.2274 -1.7608
15683TIP3   OH268463   4.678   5.647   1.632  0.7672 -0.3651 -0.3111
15683TIP3    H168464   4.583   5.643   1.626  0.6032  0.1665  1.4111
15683TIP3    H268465   4.695   5.704   1.707  2.4070 -1.6118  0.3336
15684TIP3   OH268466   3.421   1.492   6.364  0.3940 -0.1379 -0.6566
15684TIP3    H168467   3.454   1.465   6.450 -0.0798 -0.8935 -0.7037
15684TIP3    H268468   3.338   1.445   6.354  0.5505 -0.2315 -1.6216
15685TIP3   OH268469   0.769   2.478   2.065 -0.1366  0.4659  0.5283
15685TIP3    H168470   0.817   2.414   2.014 -2.3975 -0.7151 -0.2684
15685TIP3    H268471   0.754   2.436   2.150 -0.7316  0.3460  0.3691
15686TIP3   OH268472   1.748   5.834   1.460  0.1825 -0.2517  0.3753
15686TIP3    H168473   1.776   5.925   1.457 -0.0021 -0.2093 -0.0989
15686TIP3    H268474   1.817   5.789   1.509  0.5345  0.0466  0.1527
15687TIP3   OH268475   3.461   2.173   6.210  0.4601 -0.3776  0.3347
15687TIP3    H168476   3.437   2.266   6.215  0.8491  0.1394 -3.7381
15687TIP3    H268477   3.546   2.168   6.254  0.0744  0.9714  1.3257
15688TIP3   OH268478   2.587   4.985   2.122  0.1059 -0.2729  0.1404
15688TIP3    H168479   2.566   4.990   2.028 -1.5438  2.9433  0.5299
15688TIP3    H268480   2.681   5.001   2.127 -0.2533  2.8099 -0.9267
15689TIP3   OH268481   0.825   2.731  13.589  0.1944 -0.4903 -0.1866
15689TIP3    H168482   0.805   2.814  13.545  0.1186 -1.2356 -1.6213
15689TIP3    H268483   0.744   2.681  13.583  1.0521 -1.7746 -1.9648
15690TIP3   OH268484   2.749   2.260  14.576  0.1534  0.2474 -0.1002
15690TIP3    H168485   2.779   2.251  14.666  0.3778  1.0448 -0.0862
15690TIP3    H268486   2.828   2.255  14.523  0.6387  3.9585  0.0388
15691TIP3   OH268487   4.320   6.151   6.054  0.1719  0.6455  0.4024
15691TIP3    H168488   4.284   6.131   6.140  2.7881  1.7587  1.8674
15691TIP3    H268489   4.408   6.114   6.055 -0.2555 -0.7736 -2.4878
15692TIP3   OH268490   5.604   4.322   2.970 -0.7118 -0.0048 -0.4202
15692TIP3    H168491   5.562   4.237   2.978 -0.8548  0.1433  0.4477
15692TIP3    H268492   5.672   4.323   3.037 -1.7958  1.1765  0.7356
15693TIP3   OH268493   3.233   3.166  17.367 -0.3045  0.0966 -0.3205
15693TIP3    H168494   3.273   3.092  17.412  0.9445  0.5977 -0.5911
15693TIP3    H268495   3.188   3.214  17.437 -0.9128 -0.7588 -0.0996
15694TIP3   OH268496   0.372   2.930  11.498  0.0678  0.4412  0.2877
15694TIP3    H168497   0.283   2.965  11.490  0.5191  1.5661  0.0870
15694TIP3    H268498   0.416   2.956  11.417  0.8084  0.5602  0.7181
15695TIP3   OH268499   3.183   4.707  13.741  0.4499  0.4010  0.0129
15695TIP3    H168500   3.266   4.662  13.752  0.1826  0.0792  0.8341
15695TIP3    H268501   3.199   4.795  13.776 -0.7412 -0.9765  4.8902
15696TIP3   OH268502   3.679   4.334   4.638  0.4084 -0.0574  0.2647
15696TIP3    H168503   3.654   4.255   4.590 -0.6721  0.9312 -0.9092
15696TIP3    H268504   3.774   4.340   4.628  0.4066 -0.8155 -0.2864
15697TIP3   OH268505   4.061   4.844   0.748 -0.7636  0.2352  0.9176
15697TIP3    H168506   3.996   4.878   0.687  0.6662  3.6860  1.1323
15697TIP3    H268507   4.107   4.776   0.699 -0.0140  2.5357 -1.7852
15698TIP3   OH268508   2.642   1.902  17.032  0.1129 -0.5525 -0.6946
15698TIP3    H168509   2.595   1.978  17.067  0.1430 -0.3067 -1.1885
15698TIP3    H268510   2.718   1.939  16.987  1.1676 -0.9734  0.6558
15699TIP3   OH268511   2.599   4.388  14.126 -0.2416  0.0609 -1.2173
15699TIP3    H168512   2.667   4.446  14.092  0.3687  0.1764  0.1324
15699TIP3    H268513   2.529   4.446  14.153  0.3050  0.1871 -0.0105
15700TIP3   OH268514   2.017   0.459  15.376  0.5154  0.7750 -0.3251
15700TIP3    H168515   2.080   0.529  15.357  1.1897 -0.1168 -1.4990
15700TIP3    H268516   1.943   0.504  15.418  1.7522  1.9038  0.7491
15701TIP3   OH268517   6.464   1.454   5.465 -0.1421 -0.0891  0.3110
15701TIP3    H168518   6.415   1.409   5.396  0.1667 -0.0038  0.0336
15701TIP3    H268519   6.488   1.384   5.527 -0.7045 -0.1132  0.5075
15702TIP3   OH268520   3.337   3.776  11.880  0.2954 -0.3848  0.1539
15702TIP3    H168521   3.369   3.789  11.791  1.0310 -1.3644  0.2545
15702TIP3    H268522   3.380   3.844  11.931  0.4442 -0.2733 -0.1152
15703TIP3   OH268523   4.247   2.389   3.051  0.1077  0.1931 -0.2042
15703TIP3    H168524   4.259   2.302   3.012 -1.1799 -0.0335 -0.1303
15703TIP3    H268525   4.222   2.444   2.977 -0.5709  0.1553 -0.0104
15704TIP3   OH268526   4.822   2.785  11.787 -0.2607 -0.2518  0.1065
15704TIP3    H168527   4.747   2.759  11.734 -0.5982  1.2014 -0.1794
15704TIP3    H268528   4.807   2.878  11.807 -0.4965 -0.8384  3.3101
15705TIP3   OH268529   0.925   0.223  15.186 -0.3044  0.3482 -0.9586
15705TIP3    H168530   0.835   0.195  15.200  0.4354 -2.3561 -1.2205
15705TIP3    H268531   0.952   0.179  15.105  1.2130  1.2968 -1.0201
15706TIP3   OH268532   3.693   0.119  13.290  0.0465  0.1048 -0.1276
15706TIP3    H168533   3.608   0.163  13.300  0.5711  0.8260  1.2834
15706TIP3    H268534   3.702   0.066  13.369  1.6681  1.3789  0.5823
15707TIP3   OH268535   2.507   4.238  17.366  0.3366 -0.2787 -0.2746
15707TIP3    H168536   2.494   4.150  17.332 -0.5816  0.3905 -1.7756
15707TIP3    H268537   2.420   4.268  17.391  0.9821 -0.7890  3.0025
15708TIP3   OH268538   1.649   0.314   3.314  0.2628 -0.0736  0.6310
15708TIP3    H168539   1.677   0.224   3.297 -0.3156 -0.1346 -0.0095
15708TIP3    H268540   1.565   0.322   3.270  0.7611  1.0851 -0.1616
15709TIP3   OH268541   1.788   3.501  16.982 -0.1708  0.3186 -0.0044
15709TIP3    H168542   1.754   3.420  17.019  0.1098  0.8236  1.4040
15709TIP3    H268543   1.880   3.484  16.966 -0.3893 -0.0484 -0.9395
15710TIP3   OH268544   4.405   3.485   0.621  0.1807  0.4987  0.4681
15710TIP3    H168545   4.331   3.438   0.584  0.0301  1.8770 -1.0648
15710TIP3    H268546   4.420   3.442   0.705 -1.4737 -0.6873  0.2152
15711TIP3   OH268547   5.089   4.098   4.619  0.5909 -0.7032  0.0785
15711TIP3    H168548   5.142   4.080   4.697 -1.0902  0.6146  1.6065
15711TIP3    H268549   5.003   4.061   4.639  0.5316 -1.7603 -1.8600
15712TIP3   OH268550   3.903   2.741  13.122  0.1982  0.2120  0.3002
15712TIP3    H168551   3.973   2.803  13.139 -1.0702  2.3234 -1.6441
15712TIP3    H268552   3.912   2.718  13.029 -1.5198  0.3759  0.0565
15713TIP3   OH268553   4.646   2.133   1.594 -0.4079 -0.1123 -0.1971
15713TIP3    H168554   4.597   2.051   1.598 -0.1313 -0.3686 -1.4749
15713TIP3    H268555   4.731   2.112   1.633 -1.2763  0.3554  2.1032
15714TIP3   OH268556   1.597   2.367   3.466 -0.2375 -0.1570 -0.0856
15714TIP3    H168557   1.578   2.287   3.514  1.0550 -0.2848  0.2579
15714TIP3    H268558   1.683   2.351   3.426 -0.6792  0.4511 -1.3526
15715TIP3   OH268559   0.022   6.613  12.502 -0.3290 -0.4353  0.1448
15715TIP3    H168560   0.045   6.662  12.423  1.1043  0.2162  0.9278
15715TIP3    H268561  -0.019   6.533  12.470 -0.8753  0.3652 -1.2194
15716TIP3   OH268562   2.510   3.913   5.152 -0.2248  0.3230 -0.2008
15716TIP3    H168563   2.568   3.947   5.084  0.4086  1.5013  0.8876
15716TIP3    H268564   2.446   3.983   5.165 -1.9856 -0.9711 -1.4220
15717TIP3   OH268565   4.923   5.353  13.942 -0.3018 -0.3944  0.6040
15717TIP3    H168566   4.849   5.414  13.947  0.7599  0.8137  2.4997
15717TIP3    H268567   4.918   5.301  14.022  1.3424  0.2741  1.1852
15718TIP3   OH268568   0.096   3.597  11.658  0.0172  0.2871 -0.1546
15718TIP3    H168569   0.038   3.609  11.733  0.9390 -0.0388  0.6322
15718TIP3    H268570   0.040   3.612  11.581 -0.8802  0.8623  0.5948
15719TIP3   OH268571   3.194   1.639   6.136  0.2454 -0.3647 -0.3717
15719TIP3    H168572   3.233   1.597   6.213  1.9950 -1.3813 -1.7181
15719TIP3    H268573   3.191   1.732   6.158  1.4685 -0.5344  0.6375
15720TIP3   OH268574   5.690   2.766  16.948  0.6946  0.0906  0.7601
15720TIP3    H168575   5.745   2.844  16.941  0.3315  0.2277 -1.0010
15720TIP3    H268576   5.752   2.693  16.941  0.7442  0.2458 -0.7319
15721TIP3   OH268577   5.398   3.443  16.111  0.2647 -0.0668  0.4770
15721TIP3    H168578   5.387   3.392  16.192  0.3657 -0.4327  0.2623
15721TIP3    H268579   5.491   3.437  16.091  0.0346 -1.0360 -0.3528
15722TIP3   OH268580   6.358   3.052   1.822  0.3956  0.2731 -0.3885
15722TIP3    H168581   6.414   3.012   1.755  0.8493 -0.2730  0.2999
15722TIP3    H268582   6.382   3.008   1.903 -0.6329  0.4419  0.0281
15723TIP3   OH268583   5.495   5.426  12.208  0.5620  0.1569  0.1626
15723TIP3    H168584   5.461   5.364  12.272  0.3474 -1.9653 -1.8858
15723TIP3    H268585   5.417   5.459  12.163  0.7760  0.8866  0.3088
15724TIP3   OH268586   1.014   5.243   5.865  0.0397 -0.3959 -0.5427
15724TIP3    H168587   1.020   5.242   5.960  1.9842 -0.5482 -0.6155
15724TIP3    H268588   1.104   5.256   5.836 -0.4044 -1.1045 -2.3779
15725TIP3   OH268589   3.554   5.699   6.046  0.3632 -0.2310 -0.2382
15725TIP3    H168590   3.573   5.667   5.958  1.1792 -0.7467  0.1172
15725TIP3    H268591   3.488   5.638   6.080  0.4052 -0.3160 -0.3109
15726TIP3   OH268592   5.322   0.911  14.556  0.5021 -0.3062 -0.0921
15726TIP3    H168593   5.286   0.823  14.569  0.0351 -0.2437 -0.8917
15726TIP3    H268594   5.259   0.954  14.498 -0.0493  1.0697  1.4763
15727TIP3   OH268595   3.757   2.595  11.012 -0.2876  0.4273 -0.5381
15727TIP3    H168596   3.733   2.576  10.921  0.4832 -0.4043 -0.5849
15727TIP3    H268597   3.833   2.539  11.028 -2.1794 -1.7384  1.5565
15728TIP3   OH268598   0.884   1.989  17.059  0.3104  0.4179 -0.1294
15728TIP3    H168599   0.940   2.061  17.030  0.9141 -0.6266 -1.6641
15728TIP3    H268600   0.943   1.913  17.065 -0.2963  0.0319  1.5131
15729TIP3   OH268601   5.734   2.426   3.481  0.5682 -0.2048 -0.4288
15729TIP3    H168602   5.787   2.445   3.559 -0.7655  0.0730  0.4393
15729TIP3    H268603   5.715   2.332   3.487  0.3797 -0.1628 -0.3573
15730TIP3   OH268604   2.175   5.566  12.996 -0.2071 -0.1359 -0.7396
15730TIP3    H168605   2.190   5.627  12.924 -0.2172  0.3991 -0.2944
15730TIP3    H268606   2.246   5.584  13.058  0.3681 -1.2612 -1.0454
15731TIP3   OH268607   5.710   0.512   0.192 -0.0271  0.6145  0.7516
15731TIP3    H168608   5.742   0.439   0.139  1.6488  0.3672  2.0278
15731TIP3    H268609   5.649   0.471   0.254 -0.7402  0.6598  0.0999
15732TIP3   OH268610   5.728   2.306  15.195 -0.3156  0.5547 -0.4454
15732TIP3    H168611   5.785   2.290  15.270  0.2053  1.9459 -0.5182
15732TIP3    H268612   5.640   2.305  15.231 -0.0447  1.7165  0.2919
15733TIP3   OH268613   2.724   4.164  14.201 -0.5741  0.3255 -0.4057
15733TIP3    H168614   2.753   4.137  14.114  0.3297 -0.2480  0.0575
15733TIP3    H268615   2.680   4.248  14.187  1.4353  1.2971 -1.1400
15734TIP3   OH268616   0.048   6.728  16.843  0.1231 -0.0502 -0.6511
15734TIP3    H168617  -0.017   6.791  16.872  2.1731  1.8578  0.0392
15734TIP3    H268618   0.012   6.643  16.869 -2.5131  0.8058 -1.2173
15735TIP3   OH268619   1.238   0.894   6.308 -0.0721 -0.4583  0.2617
15735TIP3    H168620   1.155   0.854   6.332 -1.2247  1.2840 -0.6510
15735TIP3    H268621   1.226   0.988   6.323  1.7867 -0.1732  0.2540
15736TIP3   OH268622   1.876   5.339  15.677 -0.2291 -0.5086  0.2223
15736TIP3    H168623   1.784   5.315  15.686 -0.2055 -0.5001  0.5022
15736TIP3    H268624   1.874   5.430  15.647 -0.3162 -0.7953 -0.6672
15737TIP3   OH268625   2.884   2.102   5.403  0.7465 -0.3319  0.2707
15737TIP3    H168626   2.866   2.090   5.310  1.0313 -0.4067  0.2244
15737TIP3    H268627   2.821   2.045   5.447 -0.0675  0.4665  0.1639
15738TIP3   OH268628   0.180   5.540  16.383  0.0188  0.0924  0.0620
15738TIP3    H168629   0.238   5.464  16.392 -0.7380 -0.7046 -1.4775
15738TIP3    H268630   0.230   5.601  16.328  0.3383  0.4425  0.7199
15739TIP3   OH268631   6.076   3.857  14.260 -0.2003  0.5429  0.1341
15739TIP3    H168632   6.116   3.785  14.211  1.7216  1.9723 -0.5270
15739TIP3    H268633   6.020   3.901  14.197  1.0055  1.4073 -0.3705
15740TIP3   OH268634   2.810   1.640  16.913  0.7963 -0.5143 -0.2613
15740TIP3    H168635   2.770   1.556  16.935  0.3571 -0.3836 -0.5350
15740TIP3    H268636   2.739   1.703  16.923  1.5554  0.0956  1.6602
15741TIP3   OH268637   5.693   4.850   4.332 -0.9067  0.2144 -0.3360
15741TIP3    H168638   5.679   4.945   4.336 -1.8934  0.1943 -2.1846
15741TIP3    H268639   5.744   4.830   4.411  1.0791  2.5736 -0.8781
15742TIP3   OH268640   6.157   5.702  10.819  0.0051  0.1513 -0.2297
15742TIP3    H168641   6.143   5.620  10.773 -1.2345 -0.1433  0.6108
15742TIP3    H268642   6.154   5.679  10.912  2.3483  0.7457  0.0550
15743TIP3   OH268643   3.943   2.322  14.464  0.0657  0.5772 -0.1370
15743TIP3    H168644   3.935   2.301  14.370  0.4625 -1.4914  0.2333
15743TIP3    H268645   4.038   2.326  14.479  0.0173  0.1174  0.3145
15744TIP3   OH268646   6.444   1.277   1.087 -0.1295 -0.4086  0.5002
15744TIP3    H168647   6.462   1.345   1.151 -0.1386  0.8659 -0.8063
15744TIP3    H268648   6.364   1.234   1.119 -1.7123  1.9923 -0.0071
15745TIP3   OH268649   4.770   2.781  15.091  0.0484 -0.6226 -0.2229
15745TIP3    H168650   4.686   2.734  15.096 -0.6584  0.4341 -1.3736
15745TIP3    H268651   4.835   2.713  15.074 -0.7556 -1.3362 -0.5016
15746TIP3   OH268652   1.204   3.465  16.307  0.1444  0.4464  0.2208
15746TIP3    H168653   1.173   3.555  16.297  0.6951  0.6163 -0.0121
15746TIP3    H268654   1.124   3.412  16.313 -0.1992  0.7898 -1.0446
15747TIP3   OH268655   2.518   0.003  12.600 -0.5086 -0.5824  0.2354
15747TIP3    H168656   2.480  -0.028  12.518 -1.3772  0.6919  0.1256
15747TIP3    H268657   2.608   0.026  12.578 -1.1280  1.0898 -0.7404
15748TIP3   OH268658   5.424   0.926   0.635 -0.3753 -0.1285  0.2673
15748TIP3    H168659   5.403   1.015   0.608  2.2786  0.3629 -0.4380
15748TIP3    H268660   5.471   0.936   0.717  2.1424 -0.5937 -1.0285
15749TIP3   OH268661   1.884   3.027  14.702  0.4972  0.2247 -0.0406
15749TIP3    H168662   1.959   2.982  14.740 -0.8897 -0.6516  1.7967
15749TIP3    H268663   1.893   3.117  14.730  0.1668 -0.1566  1.3394
15750TIP3   OH268664   5.792   5.653   5.754 -0.2675  0.2351 -0.3948
15750TIP3    H168665   5.700   5.661   5.733 -0.3750  1.4124  0.4523
15750TIP3    H268666   5.838   5.667   5.671 -0.8615 -1.7226 -1.1057
15751TIP3   OH268667   2.344   4.110  13.094  0.1104  0.0913 -0.4400
15751TIP3    H168668   2.251   4.093  13.079  0.4132 -1.6376 -0.5631
15751TIP3    H268669   2.370   4.041  13.156  1.0379  1.3222  0.5890
15752TIP3   OH268670   4.777   2.951  16.163 -0.1104  0.1382  0.2425
15752TIP3    H168671   4.843   2.998  16.111 -0.9747  0.6970 -0.3735
15752TIP3    H268672   4.693   2.990  16.136 -0.9915 -2.4785 -1.0781
15753TIP3   OH268673   3.645   3.320  14.215 -0.3849 -0.4318 -0.2916
15753TIP3    H168674   3.700   3.358  14.284 -0.4561  0.7185 -0.8473
15753TIP3    H268675   3.684   3.352  14.133 -0.5351 -1.4586 -0.7842
15754TIP3   OH268676   5.481   0.029  13.013  0.1032 -0.7629  0.1273
15754TIP3    H168677   5.480   0.002  12.921  0.7924 -1.5160  0.3334
15754TIP3    H268678   5.568   0.067  13.026  0.2279 -1.2166  0.6282
15755TIP3   OH268679   3.785   1.510  16.897  0.1357 -0.3391 -0.0343
15755TIP3    H168680   3.733   1.530  16.819 -2.0797 -0.8885  1.2339
15755TIP3    H268681   3.831   1.429  16.874  0.8564  0.3847 -1.3290
15756TIP3   OH268682   0.317   5.656   2.601 -0.7626 -0.2644  0.2463
15756TIP3    H168683   0.283   5.734   2.557 -0.4038  0.1543  0.7121
15756TIP3    H268684   0.295   5.668   2.693  0.0530 -0.3093  0.4535
15757TIP3   OH268685   2.783   6.016  11.309  0.1832 -0.4905  0.7217
15757TIP3    H168686   2.743   6.061  11.383 -0.0766  1.1642 -0.3628
15757TIP3    H268687   2.740   6.054  11.232  1.7921 -0.7470 -0.3599
15758TIP3   OH268688   4.602   2.695   2.387 -0.4669  0.8284 -0.4083
15758TIP3    H168689   4.644   2.630   2.444  0.0607  1.4377 -0.0795
15758TIP3    H268690   4.592   2.772   2.443 -2.1379  0.6841 -0.4463
15759TIP3   OH268691   3.268   2.544  11.942 -0.0633  0.0469  0.1860
15759TIP3    H168692   3.225   2.497  11.870 -2.1155  0.2965  1.1835
15759TIP3    H268693   3.248   2.493  12.020 -0.2134  1.2325  0.9470
15760TIP3   OH268694   1.068   6.569   5.650 -0.0132  0.3557  0.2524
15760TIP3    H168695   1.052   6.543   5.741  0.4331  0.0681  0.2539
15760TIP3    H268696   1.124   6.647   5.657  0.7590 -0.1852  0.2197
15761TIP3   OH268697   6.703   5.901   0.719  0.2293 -0.0555  0.1549
15761TIP3    H168698   6.617   5.922   0.684  0.0479  1.5071  1.4002
15761TIP3    H268699   6.764   5.943   0.659 -0.0132  1.0313  0.6313
15762TIP3   OH268700   5.758   4.660   0.828 -0.2310 -0.5476 -0.2907
15762TIP3    H168701   5.694   4.629   0.764 -1.6491  0.1690  0.7268
15762TIP3    H268702   5.812   4.723   0.781 -2.4306  1.3695 -0.3596
15763TIP3   OH268703   3.460   5.917   4.797  0.0387 -0.2169 -0.2885
15763TIP3    H168704   3.495   5.831   4.776  0.1687 -0.8102  2.1394
15763TIP3    H268705   3.418   5.946   4.716  0.6196 -2.2234 -1.3707
15764TIP3   OH268706   4.490   0.894  12.829  0.4340 -0.1804 -0.3940
15764TIP3    H168707   4.424   0.912  12.762  0.7192  3.8162  0.1559
15764TIP3    H268708   4.438   0.875  12.908  0.0244 -0.5349 -0.7421
15765TIP3   OH268709   0.380   5.386   2.847  0.6903  0.5701 -0.5960
15765TIP3    H168710   0.402   5.468   2.892  2.6922  0.6478 -1.6000
15765TIP3    H268711   0.292   5.401   2.812  0.8888  2.1752 -0.5123
15766TIP3   OH268712   2.668   6.230  14.025  0.3767  0.1000 -0.2786
15766TIP3    H168713   2.613   6.179  13.967  1.2226  0.4515 -1.4348
15766TIP3    H268714   2.758   6.205  14.001  0.7573  0.8580  0.3026
15767TIP3   OH268715   3.743   0.971   3.192  0.0373  0.2563 -0.2181
15767TIP3    H168716   3.807   1.037   3.165 -0.7946  0.0368 -3.0535
15767TIP3    H268717   3.660   1.019   3.196 -0.2384 -0.2114 -0.2825
15768TIP3   OH268718   0.770   4.589  13.774  0.1394 -0.0284  0.3806
15768TIP3    H168719   0.731   4.676  13.782  2.3978  1.1485 -0.5313
15768TIP3    H268720   0.826   4.580  13.852  1.5478  0.2708 -0.5625
15769TIP3   OH268721   1.701   1.002  13.746 -0.0352 -0.7018 -0.1253
15769TIP3    H168722   1.725   1.093  13.761  0.3940 -0.3763 -2.4558
15769TIP3    H268723   1.659   1.002  13.660 -0.6343 -2.6230  0.1139
15770TIP3   OH268724   0.168   3.446  16.411 -0.6915  0.2762  0.5850
15770TIP3    H168725   0.120   3.371  16.448 -3.0325  1.3895 -0.0418
15770TIP3    H268726   0.141   3.449  16.320  0.1930  1.2908  0.3430
15771TIP3   OH268727   2.460   1.039   1.613  0.0774  0.3384 -0.2684
15771TIP3    H168728   2.500   0.986   1.544  0.0974 -0.1960  0.1513
15771TIP3    H268729   2.367   1.044   1.588 -0.1269 -0.7554  0.2213
15772TIP3   OH268730   5.552   3.065   2.437  0.0333  0.7560 -0.1467
15772TIP3    H168731   5.485   3.017   2.486 -0.9247 -1.5371 -3.3515
15772TIP3    H268732   5.518   3.154   2.431 -2.8853 -0.3046 -1.5777
15773TIP3   OH268733   0.260   6.238  14.816  0.0742  0.3764  0.1194
15773TIP3    H168734   0.192   6.249  14.751 -0.1581 -1.6039 -0.0347
15773TIP3    H268735   0.333   6.198  14.769  0.7861  1.0894  0.5894
15774TIP3   OH268736   6.271   6.742   5.196  0.6588  0.0488 -0.4612
15774TIP3    H168737   6.355   6.747   5.150  0.6897 -2.4868 -0.7768
15774TIP3    H268738   6.211   6.701   5.134 -0.0488 -0.7988  0.7420
15775TIP3   OH268739   4.656   0.855   6.833  0.2056 -0.0045  0.2712
15775TIP3    H168740   4.730   0.811   6.873  0.4583  1.1180  1.0970
15775TIP3    H268741   4.579   0.820   6.878  0.4116  0.4873  1.0095
15776TIP3   OH268742   1.024   0.188  11.682  0.1117  0.2626  0.1684
15776TIP3    H168743   0.936   0.155  11.667  0.1531  0.0066  0.4750
15776TIP3    H268744   1.051   0.148  11.765  0.6728  0.0032 -0.1364
15777TIP3   OH268745   6.441   1.735   3.268  0.6405  0.3961  0.1907
15777TIP3    H168746   6.359   1.689   3.252  1.2589 -0.7008  0.1114
15777TIP3    H268747   6.445   1.802   3.200 -1.9890  3.0341  2.3779
15778TIP3   OH268748   1.180   2.470  16.901  0.3360 -0.2278  0.3027
15778TIP3    H168749   1.264   2.512  16.885 -0.5083  0.6098 -2.5437
15778TIP3    H268750   1.193   2.380  16.870  0.5096 -0.4508  1.0087
15779TIP3   OH268751   1.209   2.548   1.373  0.1467 -0.0480 -0.1753
15779TIP3    H168752   1.185   2.535   1.465  1.9201 -0.8079  0.2262
15779TIP3    H268753   1.176   2.469   1.329 -2.1865  1.0618 -0.5675
15780TIP3   OH268754   5.738   4.894  14.768  0.1962 -0.3560 -0.1686
15780TIP3    H168755   5.741   4.826  14.700 -1.1981  0.2468 -0.8858
15780TIP3    H268756   5.810   4.873  14.827  0.8148 -1.4927 -1.2835
15781TIP3   OH268757   2.782   2.100   4.900 -0.1563  0.0662  0.2611
15781TIP3    H168758   2.844   2.029   4.888  1.2803  1.3698 -0.4297
15781TIP3    H268759   2.801   2.161   4.828 -1.8968  0.7618  0.3332
15782TIP3   OH268760   0.994   1.046   4.434 -0.3848 -0.3653 -0.4842
15782TIP3    H168761   1.006   1.137   4.408 -2.1483 -0.3516 -1.3949
15782TIP3    H268762   0.918   1.046   4.492  0.4880 -1.0921  0.7107
15783TIP3   OH268763   6.437   5.258  15.210  0.3944 -0.0214 -0.3237
15783TIP3    H168764   6.511   5.302  15.253  0.2975  0.6609 -0.8406
15783TIP3    H268765   6.372   5.250  15.279  0.5107  0.4292 -0.1557
15784TIP3   OH268766   3.946   3.574   4.137  0.9876 -0.1352  0.4728
15784TIP3    H168767   3.919   3.485   4.114  0.8126  0.1249 -0.3420
15784TIP3    H268768   3.882   3.601   4.203  1.2678 -0.7445  1.0054
15785TIP3   OH268769   0.997   3.678   3.709  0.2902  0.3913  0.3666
15785TIP3    H168770   0.905   3.668   3.685 -0.4265 -0.5042  3.0649
15785TIP3    H268771   1.003   3.767   3.744  0.6407  0.7198 -0.5236
15786TIP3   OH268772   3.842   3.843  16.377  0.3020  0.2371  0.1333
15786TIP3    H168773   3.911   3.803  16.324  0.7103  0.9557  0.1078
15786TIP3    H268774   3.852   3.804  16.464 -0.3761 -0.9544 -0.2977
15787TIP3   OH268775   4.151   2.767   4.811 -0.2555 -1.0165  0.1237
15787TIP3    H168776   4.135   2.817   4.731 -1.6775 -0.3856  0.7683
15787TIP3    H268777   4.163   2.833   4.879  0.8647 -1.5468  0.4746
15788TIP3   OH268778   3.446   2.662   4.614 -0.3548 -0.5340 -0.6199
15788TIP3    H168779   3.407   2.575   4.607 -1.0130 -0.4176  1.0777
15788TIP3    H268780   3.538   2.649   4.593 -0.4717 -1.6180 -0.5158
15789TIP3   OH268781   0.450   5.194   0.191 -0.6362  0.2928 -0.3713
15789TIP3    H168782   0.408   5.274   0.157 -1.6258 -0.4688 -1.0211
15789TIP3    H268783   0.458   5.209   0.285  0.2667  1.6242 -0.6354
15790TIP3   OH268784   3.122   1.699  13.884  0.6588  0.2896  0.3871
15790TIP3    H168785   3.077   1.656  13.956 -0.4205  0.5255 -0.1225
15790TIP3    H268786   3.056   1.705  13.815  1.7288 -0.1285 -0.7085
15791TIP3   OH268787   0.580   0.596  12.463  0.3498  0.4745  0.5170
15791TIP3    H168788   0.587   0.670  12.524 -2.0938  1.2733 -0.0632
15791TIP3    H268789   0.566   0.520  12.519  2.7327  0.3852  1.1157
15792TIP3   OH268790   5.308   5.513  14.540  0.0339 -0.8185  0.0599
15792TIP3    H168791   5.386   5.547  14.584  1.6258 -2.9737 -0.8783
15792TIP3    H268792   5.253   5.590  14.525  2.2408  0.9093  0.2323
15793TIP3   OH268793   1.928   4.865  16.830  0.3517 -0.3750  0.1054
15793TIP3    H168794   1.996   4.870  16.763 -0.3911  0.1285 -0.6357
15793TIP3    H268795   1.871   4.940  16.812 -0.0729 -0.4558  1.0697
15794TIP3   OH268796   5.976   5.489   4.519 -0.1955 -0.6608 -0.4994
15794TIP3    H168797   5.950   5.506   4.610  0.0415 -0.2068 -0.5166
15794TIP3    H268798   6.063   5.450   4.526 -0.1023 -0.4597 -0.5410
15795TIP3   OH268799   1.840   1.405   3.537  0.1166 -0.2220  0.5704
15795TIP3    H168800   1.815   1.492   3.568 -0.3956 -0.6541  1.3855
15795TIP3    H268801   1.877   1.362   3.614 -2.4535 -1.8102  1.0097
15796TIP3   OH268802   0.159   0.417  13.162  0.0502 -0.3367  0.4517
15796TIP3    H168803   0.172   0.459  13.247 -0.7156 -1.1505  0.9784
15796TIP3    H268804   0.069   0.437  13.139 -0.1693 -1.2753  0.4730
15797TIP3   OH268805   3.744   1.097   5.255  0.1754  0.3818 -0.3020
15797TIP3    H168806   3.650   1.106   5.244  0.1680  1.6329  0.5889
15797TIP3    H268807   3.758   1.003   5.263 -1.0952  0.2247  0.3385
15798TIP3   OH268808   0.727   4.232  13.955  0.2672 -0.5182  0.7076
15798TIP3    H168809   0.631   4.234  13.957  0.2433  1.6597  0.1267
15798TIP3    H268810   0.753   4.305  14.010  1.6183 -1.2127  1.0132
15799TIP3   OH268811   3.529   4.657   3.691 -0.6061 -0.4671 -0.4287
15799TIP3    H168812   3.498   4.590   3.629 -0.2930  0.7902 -2.0000
15799TIP3    H268813   3.578   4.607   3.757 -0.7838 -1.8375 -1.2831
15800TIP3   OH268814   3.927   5.375   4.934 -0.3217  0.4753 -0.1246
15800TIP3    H168815   3.975   5.452   4.963  0.3789  0.6335 -1.6167
15800TIP3    H268816   3.984   5.301   4.958 -0.0614  0.5602 -0.4714
15801TIP3   OH268817   5.881   6.660   2.573 -0.2878 -0.2982  0.8083
15801TIP3    H168818   5.950   6.656   2.638 -2.0264 -0.9171  2.7225
15801TIP3    H268819   5.865   6.568   2.549  0.8376 -0.0417 -1.1330
15802TIP3   OH268820   0.038   5.267  13.530 -0.2018 -0.2721  0.3181
15802TIP3    H168821  -0.036   5.292  13.586 -1.6500 -0.2291 -1.5168
15802TIP3    H268822   0.043   5.336  13.465  0.7642 -0.8431 -0.2357
15803TIP3   OH268823   0.075   5.562   4.593  0.3649  0.5418  0.0955
15803TIP3    H168824   0.012   5.582   4.662  0.1562  1.3361 -0.3150
15803TIP3    H268825   0.139   5.632   4.598  0.7302  0.2245 -0.0708
15804TIP3   OH268826   3.064   5.257   2.004 -0.0051 -0.1848 -0.1420
15804TIP3    H168827   3.111   5.189   1.956  1.7481  0.2441  0.8750
15804TIP3    H268828   3.016   5.210   2.072  1.7644 -0.4068  1.0136
15805TIP3   OH268829   5.050   2.430   4.119  0.4311 -0.6152 -0.1182
15805TIP3    H168830   5.130   2.408   4.072  0.4912 -0.2357 -0.1995
15805TIP3    H268831   5.072   2.416   4.211  1.5532  2.2392  0.1420
15806TIP3   OH268832   6.017   4.121  17.245  0.5436  0.3267 -0.1822
15806TIP3    H168833   5.949   4.179  17.211  0.4601  0.1336 -0.3478
15806TIP3    H268834   5.999   4.036  17.204  1.1858  0.3954 -0.6151
15807TIP3   OH268835   3.296   2.695   3.001  0.3654  0.4489 -0.5271
15807TIP3    H168836   3.307   2.788   3.020 -1.4221  0.6563 -0.2990
15807TIP3    H268837   3.367   2.674   2.941  0.0590  2.2866 -1.6075
15808TIP3   OH268838   1.056   1.494  12.838  0.2466  0.3035  0.6577
15808TIP3    H168839   0.966   1.527  12.842  0.3429  0.5946  0.4054
15808TIP3    H268840   1.074   1.483  12.745  0.5845  0.5512  0.6929
15809TIP3   OH268841   4.623   2.069  16.073 -0.0679 -0.6946  0.0894
15809TIP3    H168842   4.691   2.074  16.140 -1.4784  0.9940  1.4974
15809TIP3    H268843   4.543   2.050  16.122 -1.0768  0.1793 -1.1521
15810TIP3   OH268844   3.164   0.596  12.091  0.3162 -0.5854  0.4878
15810TIP3    H168845   3.137   0.590  12.183 -1.2365  1.9725  0.2816
15810TIP3    H268846   3.115   0.526  12.048 -2.8511  1.1799  0.8986
15811TIP3   OH268847   1.035   4.718  11.565  0.2991 -0.3701 -0.7704
15811TIP3    H168848   0.977   4.667  11.509 -0.4313  0.9242 -1.2154
15811TIP3    H268849   1.101   4.754  11.506 -0.9477  1.6813 -0.9868
15812TIP3   OH268850   4.223   0.517   4.839  0.0547 -0.1406 -0.1873
15812TIP3    H168851   4.255   0.523   4.929  0.2949 -0.4155 -0.2521
15812TIP3    H268852   4.243   0.427   4.812 -0.1918 -0.1181 -0.4487
15813TIP3   OH268853   0.336   4.074   0.287 -0.2728 -0.1128 -0.2746
15813TIP3    H168854   0.246   4.072   0.256 -0.7053  2.1417  0.6712
15813TIP3    H268855   0.367   4.162   0.268  0.7194  0.1412  2.0801
15814TIP3   OH268856   0.386   2.439  11.191 -0.5433 -0.2434 -0.4756
15814TIP3    H168857   0.441   2.505  11.234 -1.6446  0.4870 -0.1622
15814TIP3    H268858   0.429   2.422  11.108 -0.2043  0.8146 -0.5235
15815TIP3   OH268859   4.162   6.113   5.522  0.0723  0.0862 -0.8206
15815TIP3    H168860   4.110   6.035   5.503  0.2057 -0.2126  0.0385
15815TIP3    H268861   4.204   6.095   5.606 -2.7893  2.5010  1.3204
15816TIP3   OH268862   3.435   4.330  15.386 -0.6120  0.0582  0.3990
15816TIP3    H168863   3.420   4.411  15.436  1.2941 -0.2580  1.6082
15816TIP3    H268864   3.516   4.346  15.338 -0.1453 -1.1424  0.7377
15817TIP3   OH268865   3.184   0.795   1.488 -0.5038  0.0494 -0.3545
15817TIP3    H168866   3.198   0.805   1.393 -1.9346 -0.9000 -0.6997
15817TIP3    H268867   3.098   0.834   1.503 -0.2500  0.2548  0.5825
15818TIP3   OH268868   6.465   3.501   4.724  0.3366 -0.7120  0.5839
15818TIP3    H168869   6.559   3.483   4.727  0.2199 -1.2000  2.0373
15818TIP3    H268870   6.434   3.453   4.647  1.1785 -1.0067  0.4180
15819TIP3   OH268871   2.880   0.703   1.335 -0.0220 -0.0153  0.2107
15819TIP3    H168872   2.955   0.716   1.277  0.8135 -2.0274  0.7288
15819TIP3    H268873   2.828   0.635   1.291 -1.5784  1.3424 -0.1314
15820TIP3   OH268874   3.917   6.544  14.031 -0.1814 -0.1899 -0.2184
15820TIP3    H168875   3.826   6.537  14.059 -0.4367 -1.3699 -1.2565
15820TIP3    H268876   3.917   6.514  13.940  1.0954  0.6976 -0.5455
15821TIP3   OH268877   5.434   0.021  10.808 -0.5720  0.3155  0.0122
15821TIP3    H168878   5.381  -0.001  10.731 -1.6888  1.8399  0.3053
15821TIP3    H268879   5.381  -0.007  10.882 -0.0491  0.0050  0.2748
15822TIP3   OH268880   2.133   5.679  16.630 -0.1020  0.0928  0.4164
15822TIP3    H168881   2.130   5.706  16.721 -0.5298 -0.2048  0.4977
15822TIP3    H268882   2.070   5.737  16.586  1.6977  1.7648 -0.1328
15823TIP3   OH268883   5.851   6.205   4.144 -0.1775 -0.1553  0.1488
15823TIP3    H168884   5.834   6.231   4.235  1.0903 -0.7056  0.5611
15823TIP3    H268885   5.836   6.110   4.143 -1.5913  0.0466 -0.5779
15824TIP3   OH268886   5.161   1.780   0.134 -0.0265  0.3320  0.6053
15824TIP3    H168887   5.103   1.714   0.098 -0.1603  1.1539 -0.7533
15824TIP3    H268888   5.227   1.795   0.066  0.2854  1.2324  1.0791
15825TIP3   OH268889   3.776   2.567  12.080 -0.7537  0.3664  0.4380
15825TIP3    H168890   3.711   2.543  12.014  0.4104  1.1181 -1.0407
15825TIP3    H268891   3.772   2.663  12.083  0.7353  0.4746 -0.1969
15826TIP3   OH268892   6.184   0.130   1.732  0.4041  0.1518 -0.1242
15826TIP3    H168893   6.202   0.066   1.801  0.8573 -0.1147 -0.4798
15826TIP3    H268894   6.120   0.087   1.676 -0.3760  0.5793  0.4112
15827TIP3   OH268895   1.272   0.988  13.869 -0.2640 -0.2931  0.4950
15827TIP3    H168896   1.353   0.960  13.911  0.4740  0.7373 -0.2020
15827TIP3    H268897   1.203   0.958  13.928  0.7230  1.2664  2.5737
15828TIP3   OH268898   2.375   5.922   2.455 -0.5654  0.1216  0.1554
15828TIP3    H168899   2.371   5.973   2.535 -0.2954  2.1134 -1.0415
15828TIP3    H268900   2.460   5.877   2.459 -0.1749  0.8833  0.5861
15829TIP3   OH268901   5.245   4.809  11.170  0.6809  0.0664 -0.1983
15829TIP3    H168902   5.228   4.899  11.145  1.8249  0.1840 -0.6345
15829TIP3    H268903   5.230   4.758  11.090 -2.0748 -0.4617  0.5568
15830TIP3   OH268904   1.011   0.682   4.990 -0.4536 -0.6771 -0.2717
15830TIP3    H168905   0.947   0.654   4.924 -0.8805 -0.7324  0.1580
15830TIP3    H268906   0.967   0.752   5.037  0.1966 -0.0161 -0.6248
15831TIP3   OH268907   1.090   3.714   2.239  0.0145  0.3904  0.4246
15831TIP3    H168908   1.052   3.713   2.327 -0.4837  0.8982  0.2244
15831TIP3    H268909   1.030   3.767   2.188  0.0533 -0.2843 -0.3438
15832TIP3   OH268910   0.788   2.770   5.317  0.0447 -0.1935 -0.0881
15832TIP3    H168911   0.843   2.808   5.385  0.3382  0.7319 -0.8146
15832TIP3    H268912   0.699   2.787   5.345  0.1689  0.6301 -0.1652
15833TIP3   OH268913   3.444   0.282   1.654  0.5523  0.1410  0.1605
15833TIP3    H168914   3.422   0.201   1.608 -0.1214  0.7987 -0.7128
15833TIP3    H268915   3.383   0.284   1.728  0.6787 -0.2214  0.2797
15834TIP3   OH268916   1.163   1.557  13.266 -0.0105 -0.2498  0.0256
15834TIP3    H168917   1.228   1.510  13.213  0.4691 -0.2530  0.6068
15834TIP3    H268918   1.134   1.629  13.210 -0.8741 -1.3184 -0.9373
15835TIP3   OH268919   5.150   3.549  12.352  0.5791  0.0416  0.1445
15835TIP3    H168920   5.155   3.460  12.387  2.4100  0.3687  0.8855
15835TIP3    H268921   5.202   3.546  12.272  1.9949  0.7374  0.9889
15836TIP3   OH268922   2.572   2.139   2.021  0.3667 -0.4260  0.2189
15836TIP3    H168923   2.623   2.059   2.033  0.8419 -0.1496  0.0338
15836TIP3    H268924   2.517   2.121   1.945  0.4499 -0.5891  0.1961
15837TIP3   OH268925   3.349   5.297  12.589  0.8648 -0.3626  0.1773
15837TIP3    H168926   3.433   5.263  12.557  0.8966  0.1211 -0.2740
15837TIP3    H268927   3.283   5.252  12.536  0.9440  0.9379 -1.0927
15838TIP3   OH268928   6.100   5.843   3.187 -0.6545  0.0248 -0.3287
15838TIP3    H168929   6.133   5.804   3.268 -0.8321 -0.2987 -0.4122
15838TIP3    H268930   6.087   5.935   3.208  2.0435  0.5973 -0.7949
15839TIP3   OH268931   0.306   1.418  15.711  0.4645 -0.6315  0.2340
15839TIP3    H168932   0.281   1.506  15.738  0.4609 -0.4038 -0.4887
15839TIP3    H268933   0.390   1.402  15.755 -0.3466 -0.9433  1.7204
15840TIP3   OH268934   2.862   1.447   3.455  0.0829  0.3898  0.2708
15840TIP3    H168935   2.883   1.463   3.363 -0.7485 -2.1603 -0.4519
15840TIP3    H268936   2.775   1.485   3.467  0.1003  0.5320 -0.0390
15841TIP3   OH268937   3.058   3.065   4.815 -0.3045 -0.3638 -0.6530
15841TIP3    H168938   3.083   3.131   4.879 -1.0214 -1.0354  0.3469
15841TIP3    H268939   3.138   3.048   4.766  0.3095  0.0124  0.1930
15842TIP3   OH268940   4.807   1.713   5.889  0.4496  0.0227 -0.1109
15842TIP3    H168941   4.861   1.658   5.945  1.8763 -0.3500 -1.7517
15842TIP3    H268942   4.739   1.747   5.947  1.3901 -0.9283  1.6440
15843TIP3   OH268943   1.389   1.663   0.586 -0.4224  0.2968 -0.0430
15843TIP3    H168944   1.323   1.731   0.597  0.0973  0.6932  0.6815
15843TIP3    H268945   1.465   1.695   0.634  0.2166 -0.2692 -0.6611
15844TIP3   OH268946   0.618   2.237   1.116  0.0067 -0.3409  0.7071
15844TIP3    H168947   0.692   2.193   1.159 -0.8476 -1.3370  1.1975
15844TIP3    H268948   0.583   2.297   1.182  0.4877  0.2938  0.4026
15845TIP3   OH268949   2.550   2.461  11.360 -0.1673  0.0257  0.7755
15845TIP3    H168950   2.546   2.490  11.451 -1.0749 -0.5580  0.9317
15845TIP3    H268951   2.472   2.408  11.348 -1.2953  1.9400 -0.9898
15846TIP3   OH268952   6.303   2.828  13.678 -0.1600 -0.7808  0.0836
15846TIP3    H168953   6.390   2.860  13.654 -0.3031 -0.8341 -0.5069
15846TIP3    H268954   6.320   2.764  13.748  0.3129 -1.1050 -0.3237
15847TIP3   OH268955   6.242   5.101   4.870 -0.6402  0.8969  0.0437
15847TIP3    H168956   6.251   5.195   4.888 -1.6578  0.9857  0.1393
15847TIP3    H268957   6.247   5.095   4.774 -2.3149  1.2804 -0.0991
15848TIP3   OH268958   1.401   5.586  15.401 -0.6673  0.3271 -0.8096
15848TIP3    H168959   1.401   5.569  15.307  1.1977  0.9298 -0.9727
15848TIP3    H268960   1.457   5.663  15.411 -0.2825 -0.1232  0.8573
15849TIP3   OH268961   4.256   1.873  12.492 -0.4528 -0.2327 -0.3901
15849TIP3    H168962   4.265   1.859  12.586 -1.5523  2.6769  0.2701
15849TIP3    H268963   4.174   1.831  12.469  0.3061 -1.8200 -0.3018
15850TIP3   OH268964   1.447   4.170  12.769  0.1780 -0.0092 -0.4276
15850TIP3    H168965   1.505   4.138  12.838  0.9142  2.3186  0.1140
15850TIP3    H268966   1.483   4.256  12.745 -2.6083  1.2116 -0.5769
15851TIP3   OH268967   5.688   2.999  15.052  0.6287  0.2195 -0.4874
15851TIP3    H168968   5.622   3.047  15.003  0.2174  0.9370  0.7237
15851TIP3    H268969   5.763   2.995  14.993 -0.1776  0.1527 -1.5523
15852TIP3   OH268970   5.279   4.379   1.372  0.8768 -0.3353 -0.2078
15852TIP3    H168971   5.214   4.309   1.373  0.1040  0.3459  2.0365
15852TIP3    H268972   5.268   4.420   1.286  1.2459 -2.7925 -1.5404
15853TIP3   OH268973   6.318   1.328   3.586  0.0524 -0.6450 -0.9045
15853TIP3    H168974   6.375   1.275   3.642  0.2352 -0.3697 -0.8283
15853TIP3    H268975   6.366   1.410   3.573  0.7958 -1.3245 -2.8325
15854TIP3   OH268976   2.242   0.183   1.285 -0.1949  0.5080  0.4710
15854TIP3    H168977   2.337   0.169   1.294 -0.4302 -1.0371  0.9882
15854TIP3    H268978   2.234   0.247   1.214  1.1865 -1.1298 -1.3006
15855TIP3   OH268979   1.536   1.658   4.140  1.0978 -0.0070 -0.2310
15855TIP3    H168980   1.618   1.684   4.098  1.1477 -0.3166 -0.3272
15855TIP3    H268981   1.538   1.562   4.140  0.4172 -0.0319 -0.8824
15856TIP3   OH268982   2.146   2.315  14.823  0.2344 -0.1490  0.4288
15856TIP3    H168983   2.238   2.288  14.823  0.3393 -0.0285 -2.0857
15856TIP3    H268984   2.098   2.236  14.845  0.8913 -0.4496  0.8196
15857TIP3   OH268985   5.859   2.408   0.113  0.1870 -0.4153 -0.1537
15857TIP3    H168986   5.854   2.313   0.104 -0.9752 -0.1679 -3.4011
15857TIP3    H268987   5.945   2.431   0.078  0.1516 -0.1926 -0.0965
15858TIP3   OH268988   1.176   2.015  16.711 -0.0372 -0.1504  0.2393
15858TIP3    H168989   1.116   2.070  16.660  0.3671 -2.5200 -3.1331
15858TIP3    H268990   1.140   1.926  16.702  2.1401 -1.1735  0.9602
15859TIP3   OH268991   6.445   0.315  12.150 -0.6623 -0.4882 -0.2430
15859TIP3    H168992   6.476   0.246  12.092 -0.1797  0.8042 -1.5732
15859TIP3    H268993   6.512   0.383  12.146 -1.1897  0.1378  0.9093
15860TIP3   OH268994   4.130   0.442  15.801  0.7720  0.3788 -0.5091
15860TIP3    H168995   4.187   0.365  15.792 -0.5023 -0.6795  0.0820
15860TIP3    H268996   4.154   0.498  15.727  0.4859 -1.4249 -2.0588
15861TIP3   OH268997   2.148   6.585   5.893  0.1813 -0.2219 -0.3847
15861TIP3    H168998   2.198   6.628   5.963 -0.6379 -0.6030  0.4465
15861TIP3    H268999   2.184   6.621   5.812  0.2281  1.2406  0.2695
15862TIP3   OH269000   5.653   6.443   1.345 -0.3282  0.2083 -0.3512
15862TIP3    H169001   5.683   6.365   1.391 -0.6119 -0.8137 -1.8454
15862TIP3    H269002   5.650   6.511   1.413  1.8103 -0.5528  0.5976
15863TIP3   OH269003   3.049   4.599  15.985 -0.0173 -0.3795  0.1474
15863TIP3    H169004   3.009   4.674  16.030  0.2420 -0.9623  1.4060
15863TIP3    H269005   3.137   4.629  15.962  0.3443 -0.5181  1.3005
15864TIP3   OH269006   4.580   5.017  15.999  0.1230  0.5676  0.0552
15864TIP3    H169007   4.587   4.943  15.938  0.4145  0.8916 -0.3097
15864TIP3    H269008   4.669   5.030  16.032 -0.2828 -0.5658  1.7188
15865TIP3   OH269009   6.274   4.298  16.231 -0.5004  0.1964 -0.3971
15865TIP3    H169010   6.281   4.384  16.189 -0.3935  0.3807 -0.0152
15865TIP3    H269011   6.350   4.250  16.200 -0.1631  0.4970 -0.0488
15866TIP3   OH269012   2.326   5.831  13.432 -0.0352  0.1234 -0.0421
15866TIP3    H169013   2.357   5.893  13.498  0.8082  0.1742 -0.4772
15866TIP3    H269014   2.284   5.762  13.483 -0.3303  0.6825  0.4900
15867TIP3   OH269015   6.256   3.064  13.092  0.1725  0.1180 -0.1605
15867TIP3    H169016   6.172   3.064  13.138  0.7492 -0.7740  0.9454
15867TIP3    H269017   6.309   2.999  13.138  1.3443  0.3710 -1.0848
15868TIP3   OH269018   3.097   5.737   5.517  0.4677 -0.0760  0.0802
15868TIP3    H169019   3.133   5.750   5.605  0.3606 -0.3189  0.1625
15868TIP3    H269020   3.105   5.822   5.475  0.7281 -0.0164  0.2481
15869TIP3   OH269021   4.430   3.280  12.112 -0.1642  0.2010 -0.2887
15869TIP3    H169022   4.346   3.272  12.158 -1.2562  1.6776 -1.8805
15869TIP3    H269023   4.422   3.220  12.038  0.1143  0.4466 -0.5189
15870TIP3   OH269024   4.798   4.322   4.264  0.0445 -0.0356 -0.2174
15870TIP3    H169025   4.759   4.284   4.185  0.7780 -1.4405  0.0641
15870TIP3    H269026   4.810   4.247   4.323  1.5944  0.6328  0.3611
15871TIP3   OH269027   6.453   3.088  10.383 -0.0152 -0.1933 -0.2302
15871TIP3    H169028   6.372   3.067  10.337  0.4046  1.1948 -1.6884
15871TIP3    H269029   6.432   3.165  10.435 -0.3581 -1.4843  1.6075
15872TIP3   OH269030   4.855   3.888  10.452  0.1609  0.1262  0.2512
15872TIP3    H169031   4.874   3.897  10.546  1.3506 -2.0457  0.2750
15872TIP3    H269032   4.906   3.959  10.412  0.9698  0.0812  1.1350
15873TIP3   OH269033   6.087   0.696   4.398 -0.4760  0.4529 -0.7769
15873TIP3    H169034   6.068   0.752   4.473 -1.4430 -1.2322  0.2968
15873TIP3    H269035   6.181   0.679   4.403  0.0710  2.8233 -1.7870
15874TIP3   OH269036   4.326   0.841  15.076 -0.4903  0.1854  0.0337
15874TIP3    H169037   4.336   0.823  14.983 -1.0253 -1.2890  0.2454
15874TIP3    H269038   4.374   0.771  15.120 -1.6162 -0.0725  0.8862
15875TIP3   OH269039   4.885   4.336  12.044 -0.5868  0.3552 -0.3025
15875TIP3    H169040   4.946   4.387  11.991 -1.2169  0.5850 -0.8168
15875TIP3    H269041   4.847   4.272  11.983 -2.2655  1.4527 -0.4640
15876TIP3   OH269042   6.380   1.294   6.695 -0.4953  0.0403  0.9088
15876TIP3    H169043   6.446   1.300   6.626 -0.7454 -0.8160  0.5845
15876TIP3    H269044   6.419   1.237   6.761 -1.2642 -1.2959  0.2661
15877TIP3   OH269045   5.689   0.638   3.155  0.3599  0.2237 -0.0445
15877TIP3    H169046   5.752   0.675   3.216  0.9470 -1.0193  0.1365
15877TIP3    H269047   5.742   0.604   3.083 -0.2378  0.6456 -0.6926
15878TIP3   OH269048   3.390   4.269   0.475  0.3464 -0.0554 -0.8172
15878TIP3    H169049   3.295   4.266   0.468  0.3151  0.5059 -0.6673
15878TIP3    H269050   3.407   4.316   0.557  0.7429 -2.1934  0.3913
15879TIP3   OH269051   6.405   4.855  12.683 -0.0066  0.0972 -0.2255
15879TIP3    H169052   6.343   4.829  12.615  0.7095  0.1415 -0.9074
15879TIP3    H269053   6.483   4.882  12.636 -0.1514  2.0077  0.5210
15880TIP3   OH269054   5.340   0.522  13.404  0.2533 -0.3387  0.0867
15880TIP3    H169055   5.276   0.565  13.347  1.6634  0.2441 -1.1340
15880TIP3    H269056   5.416   0.507  13.347  0.2497 -3.5010  0.7238
15881TIP3   OH269057   5.807   0.510  11.390 -1.0029 -0.6065 -0.4587
15881TIP3    H169058   5.827   0.460  11.310 -0.6791 -0.3045 -0.5695
15881TIP3    H269059   5.716   0.538  11.378 -1.1804 -1.1556 -0.4011
15882TIP3   OH269060   6.709   4.537   2.853 -0.4287 -0.4189  0.1513
15882TIP3    H169061   6.691   4.588   2.932  0.3478 -0.4940  0.3895
15882TIP3    H269062   6.804   4.521   2.856 -0.4799 -0.9009 -0.5080
15883TIP3   OH269063   5.722   4.851   3.517 -0.4783  0.0627 -0.4939
15883TIP3    H169064   5.667   4.929   3.508  0.4559  0.6308 -1.3613
15883TIP3    H269065   5.659   4.778   3.520 -1.2970  0.7257 -1.1406
15884TIP3   OH269066   0.497   4.962  16.105  0.1365 -0.3306  0.0833
15884TIP3    H169067   0.568   4.917  16.151 -0.6037 -1.0766  0.5262
15884TIP3    H269068   0.423   4.903  16.113 -0.9810  1.1289  1.0025
15885TIP3   OH269069   0.556   4.037  12.111 -0.7440  0.6495  0.1122
15885TIP3    H169070   0.647   4.055  12.088 -0.1843 -1.2791  0.6137
15885TIP3    H269071   0.508   4.050  12.029  0.3805 -0.6388 -0.8034
15886TIP3   OH269072   1.196   0.036   3.300  0.7158 -0.1809 -0.1282
15886TIP3    H169073   1.167   0.107   3.242 -0.1393  0.6343  1.2502
15886TIP3    H269074   1.115  -0.003   3.333  1.1130  0.5953  1.9446
15887TIP3   OH269075   6.429   6.598   0.159 -0.0962 -0.2106  0.0135
15887TIP3    H169076   6.363   6.566   0.097  1.5911 -0.0239 -1.9974
15887TIP3    H269077   6.465   6.676   0.117  0.5760  0.3836  1.6290
15888TIP3   OH269078   5.259   2.453  14.250 -0.1865 -0.5736 -0.3470
15888TIP3    H169079   5.246   2.479  14.159 -2.1903  0.2426  0.1175
15888TIP3    H269080   5.250   2.534  14.300  1.2962 -0.9379  0.5735
15889TIP3   OH269081   3.047   1.095  13.219 -0.4997 -0.0654  0.2773
15889TIP3    H169082   3.095   1.133  13.146  0.0365 -1.1721  0.0334
15889TIP3    H269083   3.061   1.000  13.211 -2.7543 -0.4538  0.1497
15890TIP3   OH269084   4.016   4.521  16.189 -0.0723 -0.6363 -0.1042
15890TIP3    H169085   4.026   4.563  16.103 -1.2557  0.5264  0.3103
15890TIP3    H269086   3.963   4.443  16.171  1.0033 -1.2693 -0.6598
15891TIP3   OH269087   4.119   3.584  13.572 -0.2963  0.2407  0.0338
15891TIP3    H169088   4.118   3.603  13.478 -2.8983 -1.8929 -0.4823
15891TIP3    H269089   4.154   3.495  13.578 -1.1335 -0.0507  0.9598
15892TIP3   OH269090   3.115   4.322  16.557  0.6297 -0.3896  0.5588
15892TIP3    H169091   3.146   4.251  16.613  1.8946 -0.8224 -0.6297
15892TIP3    H269092   3.189   4.383  16.552 -0.2162  0.7224  1.0464
15893TIP3   OH269093   0.063   1.932   4.743  0.1583  0.3157 -0.2891
15893TIP3    H169094   0.043   2.013   4.696 -0.9115 -0.1274 -0.6223
15893TIP3    H269095   0.066   1.958   4.835  1.8572  1.1104 -0.5158
15894TIP3   OH269096   1.895   2.141  11.219  0.5737 -0.0341  0.6480
15894TIP3    H169097   1.954   2.217  11.221 -1.6403  1.7930  0.9235
15894TIP3    H269098   1.864   2.132  11.309 -0.3781 -0.2772  0.3040
15895TIP3   OH269099   1.758   5.091  14.219 -0.8284 -0.2754 -0.8254
15895TIP3    H169100   1.730   5.012  14.173 -2.5495  0.4269 -1.0720
15895TIP3    H269101   1.695   5.100  14.292 -0.0821  0.3578 -0.2402
15896TIP3   OH269102   4.598   0.203   2.112 -0.1661  0.5345 -0.1634
15896TIP3    H169103   4.639   0.122   2.083 -1.9097  0.1264 -1.7414
15896TIP3    H269104   4.562   0.183   2.198 -0.6603 -0.4246 -0.5792
15897TIP3   OH269105   4.182   5.052   0.437  0.3658 -0.2857  0.2344
15897TIP3    H169106   4.209   4.995   0.509 -1.2969 -1.4252  0.0278
15897TIP3    H269107   4.130   5.121   0.479  3.6786  2.1406  0.6831
15898TIP3   OH269108   2.420   4.720  15.930  0.3503  0.0173 -0.1633
15898TIP3    H169109   2.449   4.762  16.011 -0.3445  0.3570 -0.0836
15898TIP3    H269110   2.327   4.742  15.923 -0.0759 -1.5883 -0.0552
15899TIP3   OH269111   3.476   6.476  12.819 -0.2696 -0.2636  0.5812
15899TIP3    H169112   3.549   6.431  12.778 -0.1870  0.9673 -0.6692
15899TIP3    H269113   3.463   6.554  12.767 -1.5142  0.3093  1.6881
15900TIP3   OH269114   4.538   4.008   5.994 -0.0222  1.1938  0.1393
15900TIP3    H169115   4.456   4.042   5.959  0.5400  3.0573  0.5200
15900TIP3    H269116   4.546   4.047   6.081  0.5886 -0.0961  0.6896
15901TIP3   OH269117   1.206   5.582   1.508 -0.3524  0.0305 -0.8058
15901TIP3    H169118   1.242   5.619   1.428  0.4991  2.2947  0.5330
15901TIP3    H269119   1.281   5.567   1.564 -0.8395 -2.3909 -0.6692
15902TIP3   OH269120   5.112   2.046   3.384  0.2437 -0.1042  0.0900
15902TIP3    H169121   5.037   2.024   3.440 -0.4741  2.2767  0.2114
15902TIP3    H269122   5.180   2.075   3.445  0.0756  0.8229 -0.1354
15903TIP3   OH269123   4.579   3.652   4.557  0.1673  0.4223 -0.4745
15903TIP3    H169124   4.574   3.557   4.573 -0.6482  0.6786  0.9645
15903TIP3    H269125   4.540   3.664   4.471 -0.8741 -0.4275 -0.1399
15904TIP3   OH269126   1.442   1.265   3.414  0.8338 -0.1712 -0.2416
15904TIP3    H169127   1.398   1.189   3.453  1.1378  0.0884  0.6353
15904TIP3    H269128   1.469   1.318   3.489 -0.6139  1.5263 -0.8338
15905TIP3   OH269129   0.031   2.184  12.883 -0.5177 -0.0289 -0.2322
15905TIP3    H169130  -0.065   2.187  12.891 -0.4063 -0.4548  2.1277
15905TIP3    H269131   0.062   2.222  12.966  1.3538 -0.1635 -0.8375
15906TIP3   OH269132   4.169   0.887  14.296  0.1358  0.5942 -0.4883
15906TIP3    H169133   4.246   0.887  14.354 -1.1879  0.4539  1.3542
15906TIP3    H269134   4.155   0.980  14.275  3.1082  0.4278 -4.2117
15907TIP3   OH269135   1.091   6.612   2.260  0.5538 -0.0437  0.3164
15907TIP3    H169136   1.145   6.637   2.336  1.9402 -0.6606 -0.4378
15907TIP3    H269137   1.144   6.636   2.184 -0.6733  0.2363 -0.4806
15908TIP3   OH269138   4.851   2.911   2.061  0.4280  0.0978 -0.1110
15908TIP3    H169139   4.865   2.922   2.155  0.4459  0.0395 -0.1070
15908TIP3    H269140   4.815   2.823   2.052  0.8067 -0.0477 -0.1986
15909TIP3   OH269141   4.659   0.949  15.202 -0.5965  0.8930 -1.1031
15909TIP3    H169142   4.708   0.933  15.282 -1.6190 -1.2984 -0.8431
15909TIP3    H269143   4.694   1.032  15.168 -0.3285  2.0431  1.7153
15910TIP3   OH269144   3.457   6.291   3.823 -0.4309  0.4748  0.6125
15910TIP3    H169145   3.522   6.221   3.821  1.1843  1.9149 -0.1374
15910TIP3    H269146   3.402   6.272   3.899  1.1033 -0.6097  1.4843
15911TIP3   OH269147   6.480   5.738  13.551 -1.0986  0.1171  0.3665
15911TIP3    H169148   6.458   5.647  13.533 -2.1148  0.4316 -0.0765
15911TIP3    H269149   6.539   5.734  13.626  0.6946 -1.0161 -1.0299
15912TIP3   OH269150   6.483   4.641  15.614 -0.1008 -0.0864  0.0997
15912TIP3    H169151   6.463   4.727  15.650 -1.4545 -1.3374  2.5965
15912TIP3    H269152   6.413   4.625  15.550 -1.5594 -0.4220  1.6983
15913TIP3   OH269153   0.199   3.511  11.224 -0.6282  0.5469 -0.1686
15913TIP3    H169154   0.129   3.463  11.269  0.1726 -0.7863 -0.2985
15913TIP3    H269155   0.156   3.590  11.191 -1.8314  0.2620  0.6402
15914TIP3   OH269156   6.326   0.823   5.365 -0.6993 -0.0706 -0.2476
15914TIP3    H169157   6.310   0.899   5.420  1.0466 -0.3182  0.6611
15914TIP3    H269158   6.284   0.844   5.282 -1.7909  1.0972  0.5762
15915TIP3   OH269159   3.367   5.575   0.726  0.0915  0.1453 -0.8572
15915TIP3    H169160   3.453   5.613   0.710 -0.2341  0.9386 -0.7699
15915TIP3    H269161   3.305   5.646   0.707 -0.4310  0.4275  1.4828
15916TIP3   OH269162   2.850   2.609  14.818  0.0275  0.2915 -0.2860
15916TIP3    H169163   2.814   2.691  14.851  0.6444 -0.0774  1.4535
15916TIP3    H269164   2.774   2.559  14.789 -0.9443 -0.2230  2.7049
15917TIP3   OH269165   2.278   0.154   5.703  0.4870  0.5033 -0.2144
15917TIP3    H169166   2.371   0.150   5.680  0.4906 -0.6156 -0.0707
15917TIP3    H269167   2.277   0.146   5.798  0.4201  4.2315  0.2317
15918TIP3   OH269168   1.968   6.635  16.424  0.3589 -0.2901  0.0379
15918TIP3    H169169   1.910   6.622  16.349 -0.9152  1.1707  0.6985
15918TIP3    H269170   2.018   6.713  16.402 -0.1774  0.2737  0.7727
15919TIP3   OH269171   1.396   2.167   1.776 -0.4467 -0.7371  0.5361
15919TIP3    H169172   1.316   2.139   1.732 -0.4225 -1.4000  0.8973
15919TIP3    H269173   1.423   2.247   1.730 -0.9467 -0.8835 -0.0140
15920TIP3   OH269174   5.865   4.723  14.131  0.1796  0.5416  0.1654
15920TIP3    H169175   5.897   4.638  14.159 -0.3599 -0.7967 -2.9156
15920TIP3    H269176   5.940   4.782  14.140  1.3469 -0.8641 -0.1115
15921TIP3   OH269177   5.138   1.161  17.221 -0.3310 -0.3422  0.4138
15921TIP3    H169178   5.159   1.238  17.168 -0.4160 -1.6280 -1.6020
15921TIP3    H269179   5.222   1.133  17.257 -0.1725  0.1840  0.4656
15922TIP3   OH269180   5.267   6.344   3.563  0.6299 -0.7569 -0.1479
15922TIP3    H169181   5.230   6.353   3.475 -1.6743 -2.1177  0.5994
15922TIP3    H269182   5.204   6.389   3.620  1.9908 -0.0628  0.8638
15923TIP3   OH269183   0.525   0.836   6.181 -0.3885  0.3749  0.1718
15923TIP3    H169184   0.533   0.830   6.276 -0.3637  0.1236  0.1529
15923TIP3    H269185   0.615   0.831   6.149 -0.4498 -0.2389  0.0933
15924TIP3   OH269186   5.402   0.838   4.900 -0.1036 -0.6073 -0.6160
15924TIP3    H169187   5.441   0.914   4.943  0.0438  0.1351 -2.0045
15924TIP3    H269188   5.449   0.763   4.937 -1.3711 -0.2109  2.0021
15925TIP3   OH269189   1.556   0.304  16.287 -0.1781 -0.3041 -0.1450
15925TIP3    H169190   1.569   0.321  16.194 -0.6719  0.9405  0.0071
15925TIP3    H269191   1.469   0.339  16.307 -0.4082 -1.2507  0.6301
15926TIP3   OH269192   3.011   0.277   3.480 -0.7034  0.3006 -0.3521
15926TIP3    H169193   3.015   0.184   3.505  1.9290  0.2821 -0.5675
15926TIP3    H269194   2.929   0.308   3.516  0.3156 -1.0496  3.6355
15927TIP3   OH269195   2.992   3.022  11.265  0.3748  0.2014  0.4841
15927TIP3    H169196   3.065   2.980  11.220  0.0172 -0.0719  0.1574
15927TIP3    H269197   2.974   2.966  11.340  0.7219  0.4550  0.7644
15928TIP3   OH269198   2.383   6.647  14.773 -0.8135 -0.3675 -0.2004
15928TIP3    H169199   2.364   6.726  14.723  0.1497  0.1537  0.2272
15928TIP3    H269200   2.412   6.584  14.707 -1.8921 -0.4780 -0.5813
15929TIP3   OH269201   2.611   0.671   1.725 -0.4043  0.3630 -0.4242
15929TIP3    H169202   2.589   0.619   1.647 -2.7654  1.0535 -0.2951
15929TIP3    H269203   2.703   0.696   1.711 -0.2151 -1.0058 -2.1023
15930TIP3   OH269204   6.132   5.137   2.192  0.2750  0.3739 -0.6325
15930TIP3    H169205   6.070   5.208   2.175  1.2899  1.4312 -0.0641
15930TIP3    H269206   6.131   5.128   2.288 -0.1146 -0.6460 -0.7204
15931TIP3   OH269207   6.322   3.802   1.860  0.0516 -0.1947  0.1726
15931TIP3    H169208   6.376   3.881   1.865 -0.1605 -0.0511  0.2064
15931TIP3    H269209   6.384   3.730   1.874  0.1895 -0.0183  0.4920
15932TIP3   OH269210   3.351   1.806  16.154 -0.0146 -0.0224  0.9736
15932TIP3    H169211   3.370   1.899  16.160 -0.8164  0.3207 -0.9031
15932TIP3    H269212   3.258   1.799  16.175  0.0865 -0.4325  1.2994
15933TIP3   OH269213   0.405   0.902   0.034 -0.4112  0.3844  0.2659
15933TIP3    H169214   0.429   0.976   0.088 -0.1042  0.5250 -0.0627
15933TIP3    H269215   0.488   0.865   0.004 -0.5823  0.7973 -0.7664
15934TIP3   OH269216   5.114   4.669   5.386  0.1838  0.2496 -0.2148
15934TIP3    H169217   5.167   4.719   5.324  2.2482  0.0350  1.2651
15934TIP3    H269218   5.125   4.578   5.358 -0.2355  0.2837 -0.4963
15935TIP3   OH269219   4.205   2.415  12.272 -0.5040  0.1961 -0.3172
15935TIP3    H169220   4.127   2.426  12.218  0.0244  1.4637 -0.8793
15935TIP3    H269221   4.239   2.329  12.247 -0.3597  0.6763 -1.9402
15936TIP3   OH269222   4.078   5.512  16.089  0.2655 -0.1873  0.6786
15936TIP3    H169223   4.012   5.525  16.157 -2.9253 -1.1417 -1.9619
15936TIP3    H269224   4.068   5.420  16.062  1.3339  0.1589 -1.1155
15937TIP3   OH269225   5.238   2.973   5.441  0.0623 -0.2099  0.2417
15937TIP3    H169226   5.232   2.950   5.348  2.1441  1.1162 -0.3099
15937TIP3    H269227   5.187   3.054   5.450 -1.1044 -0.9602  0.5393
15938TIP3   OH269228   4.087   3.721  11.196 -0.7613 -0.1253 -0.2787
15938TIP3    H169229   4.084   3.709  11.291 -0.4332  0.8578 -0.1332
15938TIP3    H269230   4.165   3.673  11.168 -0.5125  0.0908  0.0360
15939TIP3   OH269231   0.693   6.649  14.284 -0.0113 -0.1332  0.1278
15939TIP3    H169232   0.668   6.703  14.209 -1.4027 -0.0054  0.6534
15939TIP3    H269233   0.686   6.559  14.251 -0.0864 -0.0643 -0.0492
15940TIP3   OH269234   0.361   6.223   5.797  0.2325 -0.5299 -0.3272
15940TIP3    H169235   0.326   6.175   5.721 -0.8436 -0.5995  0.1962
15940TIP3    H269236   0.298   6.206   5.867 -1.2247  2.9971 -0.5503
15941TIP3   OH269237   4.565   2.796   4.447 -0.5626  0.4735  0.2629
15941TIP3    H169238   4.649   2.793   4.402 -0.9365  1.6346 -0.5771
15941TIP3    H269239   4.587   2.794   4.540  0.4312  1.2162  0.0593
15942TIP3   OH269240   5.058   6.625  14.754  0.0363 -0.2405 -0.4355
15942TIP3    H169241   5.061   6.532  14.779  0.7576 -0.6953 -2.0667
15942TIP3    H269242   5.114   6.631  14.677 -2.3745  0.9587 -2.2395
15943TIP3   OH269243   3.771   5.150   0.110  0.9885 -0.4661  0.4449
15943TIP3    H169244   3.720   5.103   0.044  2.3513 -1.8315  0.2829
15943TIP3    H269245   3.782   5.238   0.074  1.6741 -1.1688 -1.1851
15944TIP3   OH269246   5.572   3.163  17.242 -0.8777  0.2564  0.0599
15944TIP3    H169247   5.597   3.099  17.308 -1.1305  1.1601  1.0716
15944TIP3    H269248   5.554   3.112  17.163 -0.3707 -0.8274  0.6326
15945TIP3   OH269249   1.047   5.055  12.443 -0.1260  0.0459  0.8993
15945TIP3    H169250   1.099   5.023  12.517 -0.6925 -1.4720  0.6704
15945TIP3    H269251   0.988   5.120  12.482  1.6350  1.5221  1.2291
15946TIP3   OH269252   2.240   6.179  15.202 -0.0417 -0.3332 -0.3554
15946TIP3    H169253   2.232   6.244  15.272  0.2586 -0.7099  0.0322
15946TIP3    H269254   2.269   6.229  15.126  1.6406 -0.2140  0.3161
15947TIP3   OH269255   4.284   5.058  12.707 -0.7118  0.6938 -0.2187
15947TIP3    H169256   4.239   4.993  12.652 -0.0470  0.1208 -0.1014
15947TIP3    H269257   4.377   5.038  12.695 -0.5328  1.1172  0.4471
15948TIP3   OH269258   0.205   4.885   2.621  0.2100 -0.2772  0.4392
15948TIP3    H169259   0.280   4.875   2.680  1.4399 -2.0828 -1.2726
15948TIP3    H269260   0.180   4.977   2.629  0.0536 -0.5097  3.9507
15949TIP3   OH269261   6.554   4.747  14.709  0.2256  0.0748 -0.6396
15949TIP3    H169262   6.619   4.805  14.747  0.5929 -0.7684  0.0547
15949TIP3    H269263   6.499   4.719  14.783  0.0560 -0.4591 -0.9558
15950TIP3   OH269264   3.712   5.876  12.491 -0.1782  0.7244 -0.2176
15950TIP3    H169265   3.736   5.855  12.581 -0.0612  1.0500 -0.1721
15950TIP3    H269266   3.621   5.846  12.483  0.0923 -0.1123 -0.2571
15951TIP3   OH269267   5.952   4.225  12.172  0.4706  0.8563  0.0292
15951TIP3    H169268   5.898   4.162  12.219 -0.0916  3.3180  3.0556
15951TIP3    H269269   6.037   4.182  12.162 -0.0592 -0.5855  1.4218
15952TIP3   OH269270   5.864   3.810  14.087  0.3522  0.1276  0.1351
15952TIP3    H169271   5.785   3.847  14.048 -1.1001 -1.7863  1.1319
15952TIP3    H269272   5.866   3.719  14.057  3.3848  0.6303 -1.6010
15953TIP3   OH269273   1.636   3.511  16.740 -0.0605 -0.0079 -0.0065
15953TIP3    H169274   1.725   3.503  16.708 -0.0858  1.6222 -0.6011
15953TIP3    H269275   1.644   3.514  16.835  0.6458  1.2319 -0.0912
15954TIP3   OH269276   6.113   5.583  12.974 -0.0952 -0.7481 -0.3079
15954TIP3    H169277   6.132   5.668  12.934 -0.2777  0.7846  2.6306
15954TIP3    H269278   6.198   5.538  12.977  1.0882  1.4163  2.4941
15955TIP3   OH269279   5.518   0.514  15.942 -0.0057 -0.7689  0.2264
15955TIP3    H169280   5.592   0.567  15.912 -0.7066 -0.0552 -0.2921
15955TIP3    H269281   5.457   0.577  15.979  0.0929 -1.4736  1.6184
15956TIP3   OH269282   0.036   0.403  17.164  0.6131  0.3501 -0.0302
15956TIP3    H169283  -0.006   0.445  17.240  0.0537 -2.0901  1.1243
15956TIP3    H269284   0.048   0.474  17.101 -0.8911  2.0773  1.4924
15957TIP3   OH269285   5.781   5.528  14.919 -0.1073  0.0309  0.3407
15957TIP3    H169286   5.842   5.577  14.864 -0.5490  0.4277  0.1991
15957TIP3    H269287   5.706   5.587  14.931 -0.3320 -0.3319  0.7647
15958TIP3   OH269288   6.378   4.894  16.143 -0.7800  0.1891 -0.2129
15958TIP3    H169289   6.405   4.870  16.232 -0.0896 -1.2445 -0.7690
15958TIP3    H269290   6.282   4.896  16.146 -0.8693 -1.9398  0.1191
15959TIP3   OH269291   5.496   4.111  12.041  0.7145 -0.7938 -0.4601
15959TIP3    H169292   5.414   4.092  12.086 -0.2051  1.7255 -0.9118
15959TIP3    H269293   5.469   4.136  11.952  1.8748  0.6748 -0.4327
15960TIP3   OH269294   5.309   6.292   2.529 -0.2862 -0.3253 -0.5444
15960TIP3    H169295   5.231   6.324   2.574 -0.3609 -1.7463  0.4099
15960TIP3    H269296   5.381   6.344   2.566 -0.6479  0.2447 -0.6320
15961TIP3   OH269297   2.513   2.346   0.366 -0.1785 -0.1453  0.4941
15961TIP3    H169298   2.580   2.368   0.431 -0.2379  0.0346  0.4937
15961TIP3    H269299   2.511   2.250   0.366  1.5533 -0.2237 -1.0033
15962TIP3   OH269300   4.509   6.075   0.976 -0.2792  0.0853  0.4062
15962TIP3    H169301   4.450   6.004   0.999 -0.0214  0.4263  2.2185
15962TIP3    H269302   4.583   6.032   0.933 -1.0949 -0.4932 -0.4736
15963TIP3   OH269303   1.980   2.880   4.752 -0.0728 -0.0391 -0.5166
15963TIP3    H169304   1.945   2.943   4.689 -0.4094  1.6403  1.2558
15963TIP3    H269305   1.902   2.841   4.792  0.1338 -0.8817 -0.9218
15964TIP3   OH269306   2.170   6.669  16.063  0.2933 -0.6154  0.1433
15964TIP3    H169307   2.179   6.735  15.995  0.4748 -1.8751 -1.1041
15964TIP3    H269308   2.076   6.668  16.084  0.3277  0.1955  0.3596
15965TIP3   OH269309   3.296   0.457  14.998  0.1831  0.2605  0.0168
15965TIP3    H169310   3.381   0.463  14.954 -0.8597  0.0658 -2.1571
15965TIP3    H269311   3.280   0.363  15.006 -0.1196  0.2938 -0.1968
15966TIP3   OH269312   2.916   5.653   6.505  0.3508  0.1004 -0.0421
15966TIP3    H169313   2.890   5.572   6.548  0.6939  0.5903  1.1433
15966TIP3    H269314   3.000   5.675   6.545  0.4763  0.8122 -0.6710
15967TIP3   OH269315   3.132   4.634   0.465  0.1227  0.1275 -0.2498
15967TIP3    H169316   3.185   4.708   0.436 -0.1190  0.7227  0.7944
15967TIP3    H269317   3.043   4.658   0.440  0.0574  0.1480 -0.0003
15968TIP3   OH269318   1.918   2.679  14.421  0.4558  0.2187  0.3832
15968TIP3    H169319   1.904   2.592  14.384 -0.0227  0.1204  0.7784
15968TIP3    H269320   1.891   2.670  14.513  1.1027  0.5936  0.6176
15969TIP3   OH269321   1.927   2.482   4.200 -0.3316 -0.3922 -0.7535
15969TIP3    H169322   1.982   2.556   4.172 -0.3075  0.5337  1.5505
15969TIP3    H269323   1.858   2.523   4.253 -0.8883 -1.9459 -0.2343
15970TIP3   OH269324   2.492   4.598  11.400 -0.1295  0.2533  0.2590
15970TIP3    H169325   2.482   4.693  11.406  0.4687  0.3753 -0.4604
15970TIP3    H269326   2.571   4.586  11.346 -0.9481 -0.6568 -0.7763
15971TIP3   OH269327   4.804   6.692   4.985 -0.3535  0.1601 -0.5147
15971TIP3    H169328   4.817   6.679   5.079  0.2413  0.5092 -0.5403
15971TIP3    H269329   4.840   6.779   4.968 -0.9422  0.3211 -0.9764
15972TIP3   OH269330   3.406   0.070   1.476 -0.1289  0.2465 -0.0973
15972TIP3    H169331   3.375  -0.018   1.497  0.7794 -0.4919 -1.6309
15972TIP3    H269332   3.332   0.111   1.430  0.1949 -0.5727 -1.4215
15973TIP3   OH269333   5.107   2.781  15.582 -0.0093 -0.2967 -0.3501
15973TIP3    H169334   5.186   2.755  15.629  0.4269  0.2311 -0.7739
15973TIP3    H269335   5.124   2.757  15.491 -0.4258 -0.3759 -0.4105
15974TIP3   OH269336   0.647   4.179   0.377 -0.5499  0.1136  0.6571
15974TIP3    H169337   0.687   4.182   0.290  1.4545 -2.8214  1.3457
15974TIP3    H269338   0.701   4.238   0.430 -1.1134  1.0717  0.1920
15975TIP3   OH269339   0.080   5.915   3.241  0.0874  0.2396 -0.4524
15975TIP3    H169340   0.113   5.995   3.199 -1.1762  1.6467  1.1100
15975TIP3    H269341   0.100   5.845   3.178  2.4156  1.5489 -1.2943
15976TIP3   OH269342   1.196   5.707  14.001  0.2879  0.1804 -0.0672
15976TIP3    H169343   1.178   5.616  13.979 -0.7620  0.1917  0.6206
15976TIP3    H269344   1.291   5.712  14.013  0.3208 -0.8920  0.1863
15977TIP3   OH269345   2.174   1.650   4.739 -0.0033  0.0364 -0.5143
15977TIP3    H169346   2.109   1.597   4.694  0.6695 -0.8867 -0.4335
15977TIP3    H269347   2.242   1.587   4.766  0.0132  0.6643  1.0509
15978TIP3   OH269348   4.363   2.733   6.992  0.0263 -0.1916  0.0397
15978TIP3    H169349   4.288   2.768   7.041 -0.7049 -2.1840  0.4612
15978TIP3    H269350   4.347   2.639   6.990  2.5686 -0.6773  0.1583
15979TIP3   OH269351   6.180   2.510  15.600 -0.2785  0.2583  0.3484
15979TIP3    H169352   6.087   2.494  15.592 -0.2579 -0.0404  0.6626
15979TIP3    H269353   6.221   2.425  15.588 -0.0172  0.4543 -0.1902
15980TIP3   OH269354   1.439   0.734   3.167  0.2793  0.2957  0.1669
15980TIP3    H169355   1.363   0.694   3.209  0.7072  0.5897  1.2444
15980TIP3    H269356   1.511   0.718   3.227  1.1048 -0.0763 -0.8979
15981TIP3   OH269357   1.753   1.058  14.164  0.2747 -0.6286 -0.0568
15981TIP3    H169358   1.681   1.103  14.119  1.2219 -0.0143 -1.0045
15981TIP3    H269359   1.781   1.119  14.232  1.1584 -0.0037 -0.9499
15982TIP3   OH269360   1.027   5.696   3.979 -0.1995 -0.2040 -0.0927
15982TIP3    H169361   0.934   5.676   3.992 -0.4300 -1.2241 -2.7006
15982TIP3    H269362   1.060   5.621   3.930  1.1846  1.6382 -2.1580
15983TIP3   OH269363   5.483   2.253  14.589 -0.0111  0.4388 -0.0661
15983TIP3    H169364   5.502   2.287  14.676 -1.3178 -0.4429  0.6128
15983TIP3    H269365   5.403   2.298  14.563 -1.6951 -1.8470  0.7975
15984TIP3   OH269366   1.501   3.004  15.349  0.0494 -0.3036 -0.4412
15984TIP3    H169367   1.417   3.021  15.391 -0.6264 -0.0104 -1.8565
15984TIP3    H269368   1.515   2.910  15.361 -1.6720 -0.8606 -2.1883
15985TIP3   OH269369   6.229   6.481   4.498 -0.1470  0.0641  0.1404
15985TIP3    H169370   6.207   6.543   4.567  0.6917  0.5802 -0.0494
15985TIP3    H269371   6.144   6.456   4.461 -0.5935 -0.1292  1.2678
15986TIP3   OH269372   3.912   6.455   6.513  0.0759 -0.3182  0.0885
15986TIP3    H169373   3.869   6.397   6.576  0.5470 -0.7193  0.0480
15986TIP3    H269374   3.958   6.518   6.567 -1.2261  0.6360  0.1352
15987TIP3   OH269375   2.910   4.113   3.652 -0.5407  0.4238 -0.2165
15987TIP3    H169376   2.881   4.202   3.634 -2.5236  0.1834  1.3589
15987TIP3    H269377   2.959   4.087   3.574 -1.1753  2.3705 -1.3327
15988TIP3   OH269378   6.437   5.743   5.690  0.3282  0.6412  0.1667
15988TIP3    H169379   6.434   5.735   5.785 -0.5501 -0.6902  0.0484
15988TIP3    H269380   6.434   5.653   5.658 -0.4916  1.1065 -1.1364
15989TIP3   OH269381   0.095   6.556   6.576 -0.3934  0.8163 -0.1005
15989TIP3    H169382   0.020   6.567   6.635  1.8958  2.8004  2.7549
15989TIP3    H269383   0.116   6.645   6.547  0.7962  0.3043 -0.8969
15990TIP3   OH269384   6.317   5.460  13.925  0.1023  0.2531 -0.1082
15990TIP3    H169385   6.304   5.419  13.840  1.1284  1.0472 -0.6733
15990TIP3    H269386   6.412   5.473  13.931  0.0994 -0.2294  1.3671
15991TIP3   OH269387   3.104   5.715  15.406 -0.1082 -0.0316  0.2175
15991TIP3    H169388   3.195   5.740  15.425 -0.3984  1.2780 -0.0627
15991TIP3    H269389   3.099   5.713  15.311 -0.4250  0.0718  0.2329
15992TIP3   OH269390   2.046   2.745   2.139  0.1201 -0.4626 -0.2191
15992TIP3    H169391   1.957   2.723   2.110  0.2565 -0.8733 -0.3310
15992TIP3    H269392   2.060   2.834   2.106  0.2649 -0.9145 -1.4211
15993TIP3   OH269393   1.727   2.526   4.364 -0.3820 -0.0341 -0.0290
15993TIP3    H169394   1.683   2.442   4.363 -1.8261  0.6855  0.0288
15993TIP3    H269395   1.762   2.534   4.453 -2.0777  0.3110  0.6425
15994TIP3   OH269396   1.250   0.353  14.880  0.3015  0.0198  0.1738
15994TIP3    H169397   1.272   0.262  14.861  1.9656  0.5780 -0.7566
15994TIP3    H269398   1.307   0.404  14.823 -0.8346  1.6585  0.4338
15995TIP3   OH269399   5.095   2.261   1.012  0.0709 -0.1897  0.5414
15995TIP3    H169400   5.031   2.190   1.023  1.5723 -1.4436  1.7277
15995TIP3    H269401   5.155   2.228   0.945  0.8858 -0.1580  1.2338
15996TIP3   OH269402   3.533   4.071  11.500 -0.1385  0.1405  0.4212
15996TIP3    H169403   3.456   4.124  11.521 -0.1560  0.1594  0.3109
15996TIP3    H269404   3.584   4.124  11.439 -0.0663  0.1041  0.4494
15997TIP3   OH269405   0.824   4.818  17.127 -0.0501 -0.9221  0.1578
15997TIP3    H169406   0.858   4.880  17.192  1.5988 -0.7354 -0.8508
15997TIP3    H269407   0.734   4.800  17.157 -0.7411  2.2191  0.3067
15998TIP3   OH269408   0.572   1.532   2.756 -0.1532 -0.1009  0.4869
15998TIP3    H169409   0.567   1.437   2.746  0.6192 -0.1947  0.9119
15998TIP3    H269410   0.653   1.557   2.712 -0.5929  0.4253 -0.0302
15999TIP3   OH269411   3.923   4.461  15.387  0.3379 -0.0938  0.2252
15999TIP3    H169412   3.952   4.472  15.478  0.6958 -0.5037  0.1646
15999TIP3    H269413   3.966   4.532  15.339  1.4145 -0.7983  0.1034
16000TIP3   OH269414   1.056   3.584   5.652 -0.2851  0.1831  0.1941
16000TIP3    H169415   1.093   3.498   5.673 -2.2488 -1.0099 -0.9550
16000TIP3    H269416   1.023   3.618   5.735 -1.1660 -1.0427  0.3702
16001TIP3   OH269417   5.729   1.846  15.976  1.0806  0.4906 -0.1763
16001TIP3    H169418   5.768   1.925  16.014  1.3988  0.2378  0.0240
16001TIP3    H269419   5.732   1.862  15.881  0.7412  0.9054 -0.1227
16002TIP3   OH269420   4.299   3.965  13.120  0.0401  0.1912 -0.7691
16002TIP3    H169421   4.324   4.009  13.039 -1.8381  1.3254 -0.7793
16002TIP3    H269422   4.207   3.942  13.108 -0.5019  1.0523  1.2801
16003TIP3   OH269423   2.212   0.177   4.496 -0.3130  0.0025  0.2154
16003TIP3    H169424   2.135   0.159   4.549  0.1030 -0.3461  0.7090
16003TIP3    H269425   2.268   0.230   4.551  0.4185 -0.9222  0.3883
16004TIP3   OH269426   4.447   5.217  16.696  0.2947  0.7051  0.4281
16004TIP3    H169427   4.478   5.307  16.707  0.9287  0.6667 -0.8755
16004TIP3    H269428   4.526   5.167  16.674 -0.1931  0.0028  0.2424
16005TIP3   OH269429   1.230   4.293  15.621  0.2141  0.0391  0.1236
16005TIP3    H169430   1.311   4.255  15.589  0.7844  0.6150  0.8403
16005TIP3    H269431   1.172   4.295  15.545  0.5160 -1.3021 -0.1547
16006TIP3   OH269432   2.964   4.546  12.842 -0.3064  0.0973  0.2303
16006TIP3    H169433   2.927   4.633  12.827 -2.2210 -0.6632  0.2732
16006TIP3    H269434   2.924   4.491  12.774  2.2188 -0.4394 -0.9390
16007TIP3   OH269435   3.603   1.681  15.347 -0.0628 -0.1623  0.2113
16007TIP3    H169436   3.526   1.647  15.392  0.4386 -1.9458 -0.1803
16007TIP3    H269437   3.603   1.775  15.367 -1.7001 -0.3071  1.1206
16008TIP3   OH269438   1.207   6.625  13.561 -0.0442 -0.3276  0.1963
16008TIP3    H169439   1.178   6.550  13.510  0.5770 -1.2799  1.2014
16008TIP3    H269440   1.274   6.590  13.620 -0.0069  0.9373  0.9537
16009TIP3   OH269441   4.440   4.611   2.199 -0.2991 -0.2037 -0.1650
16009TIP3    H169442   4.354   4.642   2.173  0.1710  1.1182 -0.2445
16009TIP3    H269443   4.482   4.586   2.116 -1.3680 -3.1032  0.0497
16010TIP3   OH269444   3.152   0.821  14.163 -0.0583 -0.5134 -0.4269
16010TIP3    H169445   3.197   0.779  14.235  1.1929 -0.4811 -1.1595
16010TIP3    H269446   3.220   0.871  14.118 -1.2203  1.1986 -0.3875
16011TIP3   OH269447   1.681   1.387   4.886  0.3958 -0.3605  0.2220
16011TIP3    H169448   1.587   1.391   4.906  0.1833 -3.0384  0.1926
16011TIP3    H269449   1.686   1.333   4.808  2.0214 -1.7850  1.2472
16012TIP3   OH269450   0.207   1.941   0.013  0.6046  0.2816  0.7491
16012TIP3    H169451   0.292   1.985   0.008  0.0293  1.5440  1.5962
16012TIP3    H269452   0.144   2.012   0.027 -0.4155 -0.7602  1.6356
16013TIP3   OH269453   4.436   3.808   5.349  0.0745  0.2618 -0.5933
16013TIP3    H169454   4.444   3.750   5.273 -0.8528 -0.4674 -0.1423
16013TIP3    H269455   4.348   3.792   5.383 -0.1232  1.7642 -0.3171
16014TIP3   OH269456   0.888   1.371  11.883  0.0537 -0.1180  0.0559
16014TIP3    H169457   0.934   1.293  11.852  1.5852 -0.1661  2.1941
16014TIP3    H269458   0.876   1.356  11.977 -0.5269  1.7979  0.3320
16015TIP3   OH269459   6.688   6.523   4.425 -0.1470  0.0848  0.2077
16015TIP3    H169460   6.594   6.538   4.436  0.1618  1.5833  0.9881
16015TIP3    H269461   6.716   6.592   4.365  0.2989 -0.9489 -0.8009
16016TIP3   OH269462   2.822   4.889  11.291  0.1218  0.1961 -0.1311
16016TIP3    H169463   2.736   4.891  11.249  0.1573  2.5596 -0.1949
16016TIP3    H269464   2.807   4.845  11.375 -1.2401  0.9802  0.0473
16017TIP3   OH269465   4.059   4.437   5.768 -0.1399 -0.6395 -0.8971
16017TIP3    H169466   4.051   4.532   5.770 -1.2866 -0.7162 -0.9595
16017TIP3    H269467   4.150   4.421   5.742  0.2908  0.4226 -0.1290
16018TIP3   OH269468   2.918   3.666  12.409  0.2786 -0.0268 -0.1120
16018TIP3    H169469   2.967   3.631  12.334 -0.2529  0.7660 -0.8507
16018TIP3    H269470   2.985   3.683  12.476  0.7664 -0.6895 -0.4216
16019TIP3   OH269471   2.162   3.147   2.927 -0.2519 -0.1252 -0.4620
16019TIP3    H169472   2.224   3.076   2.941 -0.1282  0.0693  0.0052
16019TIP3    H269473   2.155   3.155   2.832  1.5165  0.7903 -0.5623
16020TIP3   OH269474   1.003   1.577   6.242  0.1303  0.1179  0.5843
16020TIP3    H169475   1.004   1.602   6.334  1.6225 -0.3939  0.7305
16020TIP3    H269476   1.090   1.540   6.226 -0.0177  0.4108 -1.0845
16021TIP3   OH269477   1.794   4.755  12.488 -0.1856  0.2520  0.2238
16021TIP3    H169478   1.877   4.709  12.496 -0.9865 -1.2916  0.0383
16021TIP3    H269479   1.734   4.690  12.450 -1.7880  0.9269  1.4890
16022TIP3   OH269480   3.078   3.279   0.947  0.6027 -0.5815  0.4353
16022TIP3    H169481   3.121   3.315   1.024  0.8382  1.6455 -0.6380
16022TIP3    H269482   3.088   3.184   0.955  1.8405 -0.3320  2.4037
16023TIP3   OH269483   4.613   5.851   5.913 -0.2636 -0.6862  0.6203
16023TIP3    H169484   4.698   5.849   5.957  0.4403 -1.1729 -0.6837
16023TIP3    H269485   4.635   5.842   5.820 -1.7994 -1.9207  0.3412
16024TIP3   OH269486   6.669   5.853  13.246  0.0899  0.2025 -0.6281
16024TIP3    H169487   6.724   5.803  13.306  0.0279  0.0344 -0.7105
16024TIP3    H269488   6.720   5.931  13.224  0.7033 -0.4118 -1.4632
16025TIP3   OH269489   5.056   4.827   4.411  0.2058  0.4469 -0.3399
16025TIP3    H169490   5.055   4.754   4.349 -0.3126  0.9312 -0.9083
16025TIP3    H269491   4.976   4.875   4.393  0.4400  1.0442  0.1748
16026TIP3   OH269492   2.146   1.173   6.271 -0.0786 -0.1238 -0.4911
16026TIP3    H169493   2.074   1.237   6.272 -1.9801 -2.1508 -0.7754
16026TIP3    H269494   2.181   1.175   6.360 -0.4264  0.9474 -0.3619
16027TIP3   OH269495   2.272   2.159  14.398 -0.7751  0.5542  0.6628
16027TIP3    H169496   2.291   2.203  14.481  0.8317  0.2975  0.4694
16027TIP3    H269497   2.307   2.218  14.331 -2.0303  0.7461  0.1432
16028TIP3   OH269498   6.309   6.238   4.771  0.1602 -0.1329 -0.2096
16028TIP3    H169499   6.324   6.245   4.677  2.0875  1.6221  0.1408
16028TIP3    H269500   6.341   6.321   4.806 -2.2825  0.0809  1.8325
16029TIP3   OH269501   6.300   0.760   4.130 -0.2958  0.5917  0.5879
16029TIP3    H169502   6.229   0.809   4.172  0.3911  2.2801 -0.1219
16029TIP3    H269503   6.328   0.817   4.058  1.2114 -0.4268  0.3344
16030TIP3   OH269504   1.687   3.960   3.428  0.0234 -0.2568 -0.0257
16030TIP3    H169505   1.778   3.960   3.396 -0.4201  0.3522 -1.3439
16030TIP3    H269506   1.642   3.897   3.372 -0.8532  1.0751 -0.8553
16031TIP3   OH269507   3.153   4.012   4.096  0.5566  0.3076 -0.3339
16031TIP3    H169508   3.128   3.995   4.005 -1.5780 -0.5030  0.3677
16031TIP3    H269509   3.093   4.080   4.125  0.7070 -0.0013  0.7185
16032TIP3   OH269510   5.355   0.768   1.727 -0.2283 -0.0654 -0.1607
16032TIP3    H169511   5.280   0.820   1.756  0.6493 -0.1769  2.6513
16032TIP3    H269512   5.425   0.831   1.714  0.1790 -0.2649  0.9197
16033TIP3   OH269513   1.076   1.804  16.987 -0.6349  0.1471 -0.3637
16033TIP3    H169514   1.060   1.710  16.997  0.4777  0.0681  0.8082
16033TIP3    H269515   1.120   1.812  16.902 -0.4624 -0.4262 -0.3312
16034TIP3   OH269516   0.286   1.414   0.893  0.3440 -0.1011  0.6687
16034TIP3    H169517   0.265   1.339   0.836 -1.0223  0.8374 -0.1071
16034TIP3    H269518   0.382   1.420   0.889  0.3136 -0.1994 -1.3898
16035TIP3   OH269519   6.679   5.565  11.501 -0.0894 -0.1655 -0.3501
16035TIP3    H169520   6.676   5.524  11.587  2.3859  0.2553  0.0134
16035TIP3    H269521   6.680   5.492  11.439 -0.8914 -0.4927  0.0130
16036TIP3   OH269522   3.844   4.369  11.131  0.1821  0.4108 -0.3106
16036TIP3    H169523   3.873   4.278  11.126 -1.2720 -0.0273 -1.7095
16036TIP3    H269524   3.769   4.373  11.071 -1.4166  1.9015  1.6471
16037TIP3   OH269525   5.862   1.747   1.947 -0.6026  0.2202  0.0518
16037TIP3    H169526   5.911   1.680   1.900  0.4136  1.8345 -1.3041
16037TIP3    H269527   5.928   1.807   1.982 -1.5023  1.4283 -0.2193
16038TIP3   OH269528   0.677   0.242   1.624 -0.3056 -0.2729 -0.0747
16038TIP3    H169529   0.749   0.300   1.645 -1.6232  1.9724 -1.3410
16038TIP3    H269530   0.694   0.214   1.533 -1.6393  1.3944 -0.8920
16039TIP3   OH269531   0.857   1.711   0.900  0.9562  0.4763 -0.4940
16039TIP3    H169532   0.949   1.694   0.877  1.6631 -1.1512  2.9153
16039TIP3    H269533   0.811   1.633   0.871  0.8211  0.8093 -1.1992
16040TIP3   OH269534   4.704   3.077   0.756 -0.4925 -0.1195 -0.2678
16040TIP3    H169535   4.659   3.020   0.818 -1.6340 -1.1471 -1.9376
16040TIP3    H269536   4.795   3.077   0.784 -0.5971 -2.2099  0.2211
16041TIP3   OH269537   1.368   4.696  13.143  0.0969  0.0543  0.4991
16041TIP3    H169538   1.389   4.657  13.058  1.2567  0.1434  0.7207
16041TIP3    H269539   1.289   4.746  13.128 -1.0354 -1.7801  0.0320
16042TIP3   OH269540   0.439   2.857   0.528 -0.7157  0.3279  0.3870
16042TIP3    H169541   0.429   2.926   0.593 -1.6788  1.2627 -0.7037
16042TIP3    H269542   0.501   2.893   0.464 -0.0821 -0.4172  0.5652
16043TIP3   OH269543   4.523   1.953  12.466  0.2522  0.2205  0.4060
16043TIP3    H169544   4.522   1.913  12.379 -0.9557  1.0958 -0.0194
16043TIP3    H269545   4.431   1.949  12.494  0.6009  0.1321  1.5595
16044TIP3   OH269546   2.203   6.472   3.332 -0.3708 -0.1963 -0.9306
16044TIP3    H169547   2.118   6.457   3.290  0.5384 -0.6386 -2.6885
16044TIP3    H269548   2.261   6.499   3.261  1.0497 -0.1626  0.1885
16045TIP3   OH269549   2.092   1.323   0.159 -0.1020  0.3070  0.1770
16045TIP3    H169550   2.101   1.323   0.063  0.6298 -0.0682  0.2462
16045TIP3    H269551   2.003   1.292   0.174  0.5889 -2.1419 -0.3220
16046TIP3   OH269552   0.201   6.633  15.451 -0.4027  0.1878  0.1872
16046TIP3    H169553   0.214   6.620  15.357  1.5141 -1.6946  0.6379
16046TIP3    H269554   0.283   6.605  15.491 -0.4901  2.6208  2.3612
16047TIP3   OH269555   4.450   0.896  17.131  0.0462 -0.9319  0.0851
16047TIP3    H169556   4.507   0.897  17.055  0.2940 -2.4745  0.2240
16047TIP3    H269557   4.406   0.812  17.127 -0.1655 -0.9148  1.4879
16048TIP3   OH269558   5.953   5.119   5.684 -0.1872  0.1570 -0.1256
16048TIP3    H169559   5.896   5.065   5.631  1.2978 -0.5781 -1.0382
16048TIP3    H269560   5.958   5.074   5.768  0.5931 -0.8559 -0.6967
16049TIP3   OH269561   2.696   1.298  14.424 -0.0457 -0.1615  0.5090
16049TIP3    H169562   2.679   1.388  14.397 -0.7518 -0.2086  0.7767
16049TIP3    H269563   2.613   1.252  14.411  0.0861 -0.5904  1.0915
16050TIP3   OH269564   4.947   2.469  14.107 -0.1039 -0.2195 -0.5686
16050TIP3    H169565   4.855   2.468  14.082 -0.5332 -1.7439  0.9162
16050TIP3    H269566   4.959   2.554  14.150 -0.9976 -0.2978 -0.1464
16051TIP3   OH269567   2.505   5.543   1.330  0.0216 -0.4103  0.0017
16051TIP3    H169568   2.426   5.585   1.365  0.2935  0.9442 -0.9313
16051TIP3    H269569   2.557   5.523   1.408 -0.0178  1.2282  0.4809
16052TIP3   OH269570   3.813   3.528  13.653  0.1671  0.2267  0.0131
16052TIP3    H169571   3.890   3.520  13.597 -0.2801  0.1308 -0.5950
16052TIP3    H269572   3.842   3.583  13.726  1.0023 -0.3518  0.1400
16053TIP3   OH269573   3.170   0.853  11.994 -0.3419  0.5160  0.7972
16053TIP3    H169574   3.087   0.856  11.947  0.0793 -0.0977 -0.0139
16053TIP3    H269575   3.168   0.771  12.042 -0.3986  0.7200  1.1441
16054TIP3   OH269576   5.116   5.555   2.846 -0.2281  0.0318 -0.4890
16054TIP3    H169577   5.191   5.602   2.809 -0.4555  0.9539  0.1683
16054TIP3    H269578   5.066   5.526   2.770  0.1694  0.4695 -0.9270
16055TIP3   OH269579   3.929   6.426   0.364 -0.2491 -0.3672  0.4627
16055TIP3    H169580   3.933   6.414   0.459 -3.0146  1.5766  0.9577
16055TIP3    H269581   3.888   6.346   0.331  0.1035 -0.7732  0.9969
16056TIP3   OH269582   4.461   2.479   3.254 -0.0461 -0.4508  0.1936
16056TIP3    H169583   4.529   2.416   3.276  0.3069  0.0279  0.4860
16056TIP3    H269584   4.418   2.442   3.177  1.3141 -0.1794 -0.7261
16057TIP3   OH269585   5.562   5.077   1.038  0.5554 -0.0928  0.7623
16057TIP3    H169586   5.524   5.092   0.951 -0.3366  0.5699  1.2467
16057TIP3    H269587   5.636   5.138   1.043  1.8002 -1.4437 -0.2182
16058TIP3   OH269588   6.295   4.793  16.878  0.2385 -0.3467  0.3386
16058TIP3    H169589   6.229   4.794  16.948 -0.1905 -1.4326 -0.0295
16058TIP3    H269590   6.377   4.812  16.923  0.5734 -4.3454  1.8472
16059TIP3   OH269591   2.108   0.841   3.383 -0.5058  0.1138  0.6371
16059TIP3    H169592   2.090   0.762   3.435  2.8736 -0.7018  0.8256
16059TIP3    H269593   2.146   0.903   3.445 -0.9350  1.0225  0.0180
16060TIP3   OH269594   5.937   0.734   6.064  1.0354  0.1100 -0.1110
16060TIP3    H169595   5.928   0.806   6.127  0.7679  1.7655 -1.9545
16060TIP3    H269596   5.852   0.689   6.068  0.8142  0.5474  0.2852
16061TIP3   OH269597   1.871   0.449  11.263 -0.2617 -0.3732 -0.5971
16061TIP3    H169598   1.821   0.497  11.196 -1.7742 -0.3194  0.5169
16061TIP3    H269599   1.846   0.357  11.250  0.2024 -0.4797 -0.7308
16062TIP3   OH269600   4.166   5.202   4.692  0.0320  0.3668  0.0257
16062TIP3    H169601   4.128   5.164   4.772 -0.3477  0.4006 -0.1365
16062TIP3    H269602   4.244   5.150   4.676 -0.4815 -0.3599 -0.1904
16063TIP3   OH269603   0.553   0.214   3.009 -0.0317 -0.0855  0.2059
16063TIP3    H169604   0.590   0.219   3.097  1.3940  0.5292 -0.4000
16063TIP3    H269605   0.611   0.154   2.962 -0.0141  0.5776 -0.6505
16064TIP3   OH269606   2.840   1.163  14.972  0.1635 -0.1796 -0.0669
16064TIP3    H169607   2.773   1.100  14.998  0.6633 -0.9511 -0.6045
16064TIP3    H269608   2.860   1.141  14.881  3.8856 -2.5697  1.0976
16065TIP3   OH269609   3.975   1.134   2.926 -0.0127  0.1943 -0.4760
16065TIP3    H169610   3.965   1.166   2.837  0.6493  0.8028 -0.3417
16065TIP3    H269611   3.903   1.174   2.975 -1.3074 -1.3502 -1.0307
16066TIP3   OH269612   5.445   0.639  15.379  0.0500  0.2328  0.6254
16066TIP3    H169613   5.469   0.607  15.466  0.4623 -0.0282  0.4192
16066TIP3    H269614   5.409   0.562  15.334  1.1577  0.0174  0.0848
16067TIP3   OH269615   6.217   4.873   4.437  0.1172 -1.1408 -0.1398
16067TIP3    H169616   6.256   4.795   4.477  0.6020 -1.5611 -1.3783
16067TIP3    H269617   6.123   4.855   4.437  0.2007 -1.6117 -0.1700
16068TIP3   OH269618   4.544   0.799  16.328  0.2997 -0.3453 -0.4545
16068TIP3    H169619   4.610   0.852  16.372 -0.3381 -0.3545  0.5714
16068TIP3    H269620   4.591   0.750  16.262  1.4288 -0.8072  0.6552
16069TIP3   OH269621   1.458   2.448   5.010  0.0255 -0.0838 -0.1256
16069TIP3    H169622   1.445   2.442   5.104 -1.1020 -3.0686 -0.3590
16069TIP3    H269623   1.544   2.411   4.995 -1.3686 -3.5633 -0.4623
16070TIP3   OH269624   5.130   2.677  11.400 -0.0376 -0.7089 -0.1091
16070TIP3    H169625   5.142   2.645  11.489  1.2739 -0.4189 -0.1594
16070TIP3    H269626   5.113   2.771  11.410 -0.8378 -0.8459 -0.1254
16071TIP3   OH269627   5.170   1.586   0.425 -0.3436 -0.2249  0.8705
16071TIP3    H169628   5.101   1.536   0.382 -0.4259  0.4923  0.1449
16071TIP3    H269629   5.251   1.553   0.387 -0.4550  0.9509 -0.4608
16072TIP3   OH269630   0.508   3.030   5.838  0.0337 -0.5843  0.0982
16072TIP3    H169631   0.523   2.975   5.916 -0.6503 -1.2372 -0.2158
16072TIP3    H269632   0.456   3.103   5.870 -0.2300 -0.8410  0.2688
16073TIP3   OH269633   5.415   4.536   5.296  0.3246  0.3262 -0.0463
16073TIP3    H169634   5.456   4.580   5.371  1.0779  0.3632 -0.4653
16073TIP3    H269635   5.371   4.460   5.333 -0.5632  1.1480  0.6271
16074TIP3   OH269636   2.426   6.352   3.675  0.5288 -0.1700  0.8390
16074TIP3    H169637   2.384   6.324   3.593  1.5426  0.6167  0.0250
16074TIP3    H269638   2.403   6.444   3.683  0.9728 -0.0802  1.0941
16075TIP3   OH269639   1.393   6.450   4.806 -0.3529 -0.0453 -0.3175
16075TIP3    H169640   1.318   6.498   4.840 -1.6814 -0.1965 -2.7636
16075TIP3    H269641   1.403   6.375   4.865 -0.3281  1.4251  1.6379
16076TIP3   OH269642   4.391   0.200  12.078 -0.1517  0.6071  0.5625
16076TIP3    H169643   4.418   0.212  12.169  0.9038  1.0408  0.2135
16076TIP3    H269644   4.471   0.217  12.027 -0.5944 -0.1519 -0.4141
16077TIP3   OH269645   5.321   4.711   2.533  0.0279  0.1628 -0.4136
16077TIP3    H169646   5.293   4.622   2.516 -2.9486  0.8632  0.1755
16077TIP3    H269647   5.339   4.748   2.447  0.9670 -0.8714 -0.6811
16078TIP3   OH269648   5.193   6.308  15.640  0.1877 -0.0065  0.7115
16078TIP3    H169649   5.161   6.220  15.618  1.8026 -0.3643 -0.3920
16078TIP3    H269650   5.264   6.324  15.577 -0.4972  2.3695  0.4542
16079TIP3   OH269651   0.771   3.443  15.055 -0.0557 -0.1630  0.0862
16079TIP3    H169652   0.847   3.464  15.109 -0.3792 -0.2691  0.5953
16079TIP3    H269653   0.804   3.443  14.966  0.3353  0.7605  0.2194
16080TIP3   OH269654   5.973   5.871  13.901 -0.0986  1.1065  0.3718
16080TIP3    H169655   6.017   5.916  13.829  0.0549  0.5515  0.1164
16080TIP3    H269656   6.028   5.795  13.920 -1.3492 -0.0686 -0.4989
16081TIP3   OH269657   4.743   0.226  12.372 -0.0147 -0.3972  0.2409
16081TIP3    H169658   4.755   0.179  12.289  0.2182 -0.2365  0.1810
16081TIP3    H269659   4.773   0.315  12.353  1.9832 -0.8476  1.0381
16082TIP3   OH269660   3.658   6.451  12.224 -0.2823  0.3902  0.6189
16082TIP3    H169661   3.700   6.366  12.236 -2.4325 -1.1946 -1.8474
16082TIP3    H269662   3.723   6.504  12.178  0.1967 -0.8325 -0.1617
16083TIP3   OH269663   6.718   2.698   1.391  0.5065  0.1106 -0.0523
16083TIP3    H169664   6.811   2.694   1.416  0.4822  2.0497  0.5571
16083TIP3    H269665   6.694   2.790   1.406 -1.4491 -0.3007 -0.4520
16084TIP3   OH269666   2.653   6.193   2.973 -0.0972  0.1601 -0.4458
16084TIP3    H169667   2.571   6.186   2.924 -2.8939  1.0073  3.6500
16084TIP3    H269668   2.659   6.285   2.999  1.8471 -0.0196 -0.0493
16085TIP3   OH269669   2.140   4.254   1.151 -0.4861 -0.0270 -0.0774
16085TIP3    H169670   2.202   4.181   1.155 -0.3654  0.1315  1.3558
16085TIP3    H269671   2.162   4.299   1.069  2.0738  0.6626  0.8776
16086TIP3   OH269672   1.009   6.628   3.519 -0.2471  0.7359 -0.2778
16086TIP3    H169673   1.071   6.647   3.589 -0.7209  0.6952  0.1618
16086TIP3    H269674   1.050   6.558   3.468  1.4321  2.6841 -1.7840
16087TIP3   OH269675   3.928   1.955  17.192 -0.0745  0.4107 -0.0435
16087TIP3    H169676   3.908   1.869  17.155  0.4842  1.2029 -2.3932
16087TIP3    H269677   3.932   1.940  17.286  0.4870 -2.2332 -0.3884
16088TIP3   OH269678   2.951   3.262  15.969 -0.2910 -0.2423 -0.3162
16088TIP3    H169679   3.012   3.188  15.970 -1.5200 -1.2897  0.0432
16088TIP3    H269680   2.938   3.281  15.876  2.8248  1.9739 -0.4243
16089TIP3   OH269681   0.321   3.853   3.444  0.3632  0.0518  0.0484
16089TIP3    H169682   0.239   3.843   3.492 -0.4168  3.1003 -0.4133
16089TIP3    H269683   0.302   3.920   3.378  3.1668  0.7332 -0.1944
16090TIP3   OH269684   2.971   2.010   4.622  0.1326 -0.3284 -0.1206
16090TIP3    H169685   2.922   1.939   4.665  1.3213 -0.7477  0.5849
16090TIP3    H269686   2.967   1.989   4.529 -0.5261 -0.6751 -0.0204
16091TIP3   OH269687   0.422   5.056   2.377 -0.4809  0.3743  0.0569
16091TIP3    H169688   0.465   5.096   2.301 -1.1278  1.3857  0.2074
16091TIP3    H269689   0.331   5.043   2.350 -1.2889  2.8101  1.3532
16092TIP3   OH269690   0.542   2.502  15.603 -0.5558 -0.4744 -0.1635
16092TIP3    H169691   0.633   2.495  15.574 -0.5044  1.2131 -0.5260
16092TIP3    H269692   0.528   2.596  15.614 -1.8048 -0.8163  1.4009
16093TIP3   OH269693   2.614   5.625  12.603 -0.2333 -0.3896 -0.2549
16093TIP3    H169694   2.675   5.580  12.661  0.2589  1.2376  0.5443
16093TIP3    H269695   2.664   5.699  12.569 -1.6195  0.7427  0.0868
16094TIP3   OH269696   1.336   0.329   3.220 -0.2220 -0.1678  0.8825
16094TIP3    H169697   1.248   0.292   3.210  0.6963 -2.6442  1.4115
16094TIP3    H269698   1.356   0.367   3.135  0.0476 -4.0150 -0.9766
16095TIP3   OH269699   1.417   3.950   0.446 -0.1722  0.1991  0.0437
16095TIP3    H169700   1.400   3.998   0.527 -1.1106 -0.0245 -0.0084
16095TIP3    H269701   1.409   3.858   0.470  3.0718 -0.0732  0.4782
16096TIP3   OH269702   2.229   1.414   6.068  0.3692 -0.3999  0.0542
16096TIP3    H169703   2.270   1.449   5.989  0.9793 -1.1377  0.0322
16096TIP3    H269704   2.300   1.368   6.114 -0.1394 -0.5875  0.6706
16097TIP3   OH269705   0.658   1.929  11.357  0.5589  0.5009  0.4458
16097TIP3    H169706   0.691   1.847  11.319  0.2447 -0.1456  1.5357
16097TIP3    H269707   0.637   1.907  11.447  0.2995  1.7532  0.7079
16098TIP3   OH269708   6.603   3.935   1.852  0.0534  0.0617  0.4774
16098TIP3    H169709   6.607   3.971   1.940 -0.8326  2.0597 -0.2376
16098TIP3    H269710   6.643   4.002   1.796  2.0267 -1.8238 -0.5160
16099TIP3   OH269711   1.027   6.180   0.780  0.1540  0.5384 -0.2171
16099TIP3    H169712   1.022   6.222   0.694  1.9436  0.8238 -0.2206
16099TIP3    H269713   1.052   6.090   0.762 -0.5578  0.2882 -0.0256
16100TIP3   OH269714   5.052   3.782   3.195  0.0341 -0.4812  0.1836
16100TIP3    H169715   5.081   3.691   3.193  1.2208 -0.1133 -0.6341
16100TIP3    H269716   4.963   3.779   3.229  0.1208 -1.9282  0.3118
16101TIP3   OH269717   3.258   0.880  11.568  0.3390  0.2910  0.2601
16101TIP3    H169718   3.338   0.899  11.519  1.5258  1.3484  2.4565
16101TIP3    H269719   3.284   0.813  11.632 -0.4266  0.8896  1.2275
16102TIP3   OH269720   4.365   0.069   0.243  0.5120  0.3775 -0.2740
16102TIP3    H169721   4.340   0.140   0.302  4.0242  3.3149 -1.9360
16102TIP3    H269722   4.284   0.047   0.197 -1.0939  2.0091  1.5862
16103TIP3   OH269723   5.377   0.296  15.455  0.3138 -0.1157  0.7527
16103TIP3    H169724   5.455   0.341  15.423  0.1567  0.5002  1.2134
16103TIP3    H269725   5.396   0.203  15.442 -0.2619  0.0877 -2.3468
16104TIP3   OH269726   3.474   5.238   0.170 -0.2432  0.0687  0.4188
16104TIP3    H169727   3.514   5.324   0.159  1.1962 -0.7004 -0.7540
16104TIP3    H269728   3.548   5.179   0.188 -0.8281 -1.3281 -1.3714
16105TIP3   OH269729   0.392   5.653   2.248  0.3208 -0.0095  0.5958
16105TIP3    H169730   0.476   5.606   2.245 -0.8755 -2.2512  0.4156
16105TIP3    H269731   0.335   5.598   2.301 -0.5865  2.3620  2.2689
16106TIP3   OH269732   0.711   4.850   0.817  0.1939  0.0555 -0.3792
16106TIP3    H169733   0.671   4.812   0.739 -0.8563  0.7740 -0.2031
16106TIP3    H269734   0.794   4.886   0.786 -0.3312  0.5589 -1.2333
16107TIP3   OH269735   6.690   2.354  15.471 -0.5595  0.0481  0.2858
16107TIP3    H169736   6.659   2.264  15.481  1.4744 -0.7746 -0.3073
16107TIP3    H269737   6.646   2.386  15.392 -0.5611 -0.7748 -0.0507
16108TIP3   OH269738   2.287   2.586   2.056  0.1934 -0.3382  0.5719
16108TIP3    H169739   2.241   2.568   2.138 -0.8604 -0.6854 -0.0808
16108TIP3    H269740   2.221   2.625   1.999  1.0714  0.4866  0.0863
16109TIP3   OH269741   2.953   5.461   2.458 -0.1752  0.1241 -0.0137
16109TIP3    H169742   2.899   5.480   2.535  0.7706  1.4860  0.3481
16109TIP3    H269743   3.006   5.386   2.483 -1.4540 -0.8634 -0.1670
16110TIP3   OH269744   1.994   0.687   0.368  0.2850 -0.2541 -0.0627
16110TIP3    H169745   1.976   0.650   0.455  0.0172 -1.3224 -0.5489
16110TIP3    H269746   2.015   0.611   0.314 -2.6068 -0.0405 -1.6954
16111TIP3   OH269747   2.547   6.204  13.556  0.0312 -0.2694 -0.1097
16111TIP3    H169748   2.537   6.280  13.499  0.7739 -0.3649 -0.3834
16111TIP3    H269749   2.517   6.233  13.642 -0.4506  0.0844 -0.3922
16112TIP3   OH269750   0.432   1.819   1.206  0.0931  0.4953 -0.5435
16112TIP3    H169751   0.433   1.906   1.166 -0.2789 -0.1486 -2.0241
16112TIP3    H269752   0.457   1.759   1.135  2.0631 -0.4683  0.8773
16113TIP3   OH269753   2.954   2.913  12.866 -0.1532  0.0699 -0.0030
16113TIP3    H169754   3.026   2.942  12.809 -0.2075 -1.9290 -1.1620
16113TIP3    H269755   2.885   2.978  12.852  0.5736  0.7235 -0.6864
16114TIP3   OH269756   3.342   1.201   1.289  0.1161 -0.4903 -0.3629
16114TIP3    H169757   3.414   1.257   1.259  0.3729 -0.8116 -0.3563
16114TIP3    H269758   3.263   1.249   1.266  0.3366 -0.0158 -0.1522
16115TIP3   OH269759   6.368   0.599   1.242 -0.2078 -0.3924 -0.5952
16115TIP3    H169760   6.427   0.524   1.231  0.2423 -0.0563 -0.5008
16115TIP3    H269761   6.284   0.570   1.205 -0.4280 -1.4319  0.6591
16116TIP3   OH269762   4.396   6.721   2.251  0.1257 -0.4197  0.2793
16116TIP3    H169763   4.366   6.650   2.193  2.4070 -0.4687 -0.9757
16116TIP3    H269764   4.444   6.676   2.320 -0.2723 -0.1959  0.7057
16117TIP3   OH269765   4.789   3.914   2.480 -0.6097 -0.0993  0.0922
16117TIP3    H169766   4.739   3.972   2.539 -2.2771 -0.3376 -1.0259
16117TIP3    H269767   4.729   3.842   2.461  0.1668 -0.4146 -1.2872
16118TIP3   OH269768   0.602   0.505  14.401 -0.1794  0.0139 -0.1915
16118TIP3    H169769   0.642   0.525  14.486  1.2377 -0.1901 -0.7830
16118TIP3    H269770   0.546   0.580  14.383 -2.1478 -0.8401  1.8411
16119TIP3   OH269771   4.086   1.207  13.247 -0.4037  0.0914  0.0388
16119TIP3    H169772   4.178   1.227  13.228 -0.0470 -1.4479  0.0004
16119TIP3    H269773   4.066   1.259  13.325  0.1103  1.3818 -0.6547
16120TIP3   OH269774   5.861   1.558  15.868 -0.2916 -0.3288  0.0356
16120TIP3    H169775   5.858   1.520  15.780 -2.0906  1.1175 -0.5949
16120TIP3    H269776   5.849   1.652  15.854  2.4929  0.4035  1.6426
16121TIP3   OH269777   4.926   2.644  14.642  0.0371  0.2428  0.1347
16121TIP3    H169778   5.012   2.605  14.625  1.0222  1.8983  1.0608
16121TIP3    H269779   4.873   2.571  14.676  1.1252 -0.7639 -0.2520
16122TIP3   OH269780   0.819   0.985   1.067  0.2135 -0.2058  0.5447
16122TIP3    H169781   0.820   0.933   0.987  0.4127  0.7637 -0.1129
16122TIP3    H269782   0.774   0.931   1.132  2.0241 -1.9553  0.4314
16123TIP3   OH269783   3.596   5.753  13.017 -0.0956 -0.0813 -0.3671
16123TIP3    H169784   3.581   5.660  12.999 -0.2164 -0.2396  0.5324
16123TIP3    H269785   3.597   5.760  13.112  0.8504  0.6878 -0.4131
16124TIP3   OH269786   0.768   2.968  14.464 -0.2516 -0.1748  0.0919
16124TIP3    H169787   0.717   2.921  14.398  0.3098  0.1498 -0.5906
16124TIP3    H269788   0.705   3.030  14.502 -0.4550  0.0060 -0.5180
16125TIP3   OH269789   1.360   4.690   5.948 -0.3036 -0.0430  0.5281
16125TIP3    H169790   1.409   4.768   5.973 -0.5926 -0.4735  2.5963
16125TIP3    H269791   1.421   4.618   5.962 -1.0423 -0.4527  1.7290
16126TIP3   OH269792   5.583   6.135   2.162  0.3424  0.0371  0.7738
16126TIP3    H169793   5.636   6.151   2.240  2.3991  0.1726 -0.5809
16126TIP3    H269794   5.646   6.110   2.095 -1.3096  0.3492 -0.9836
16127TIP3   OH269795   4.980   6.539  13.238  0.9358  0.2027 -0.5534
16127TIP3    H169796   4.965   6.575  13.150  1.7343 -0.0767 -0.8149
16127TIP3    H269797   4.975   6.444  13.226 -1.3322  0.1820  0.1668
16128TIP3   OH269798   2.501   4.467   3.249 -0.3887  0.3846  0.6986
16128TIP3    H169799   2.580   4.419   3.222 -1.6386  0.0513 -2.8886
16128TIP3    H269800   2.476   4.426   3.332  1.6456 -1.4315  0.5068
16129TIP3   OH269801   3.783   0.372  12.512  0.1650  0.2412 -0.7245
16129TIP3    H169802   3.699   0.337  12.540 -0.8503  2.4041 -0.9047
16129TIP3    H269803   3.785   0.359  12.418 -0.1206  0.5024 -0.7664
16130TIP3   OH269804   0.567   1.634   1.050  0.3794 -0.3022 -0.4726
16130TIP3    H169805   0.611   1.575   0.988  0.4636 -0.5709 -0.1576
16130TIP3    H269806   0.638   1.682   1.093  0.2740  0.9591 -1.6239
16131TIP3   OH269807   2.762   3.409   3.533  0.6070  0.0690  0.1080
16131TIP3    H169808   2.704   3.363   3.594 -0.1753  1.8767  0.7861
16131TIP3    H269809   2.745   3.368   3.448 -1.0888  0.0423  0.4334
16132TIP3   OH269810   5.368   4.439   4.318  0.4253  0.0781  0.0509
16132TIP3    H169811   5.320   4.405   4.394  1.3378 -0.9377  0.1998
16132TIP3    H269812   5.373   4.365   4.258  0.9082  0.4707 -0.4054
16133TIP3   OH269813   5.657   3.782  10.814  0.0348 -0.0492 -0.9603
16133TIP3    H169814   5.676   3.868  10.777  1.1014  0.2332  0.1858
16133TIP3    H269815   5.562   3.782  10.829  0.0052  0.8601 -1.1286
16134TIP3   OH269816   4.227   1.676  15.060 -0.0423 -0.4760 -0.1217
16134TIP3    H169817   4.207   1.751  15.117 -1.4337 -0.0582 -1.1080
16134TIP3    H269818   4.274   1.714  14.986 -1.3446 -0.4148 -0.9621
16135TIP3   OH269819   3.441   3.770  15.084 -0.4355 -0.2581  0.2885
16135TIP3    H169820   3.366   3.737  15.134 -2.1481  0.5781 -1.5796
16135TIP3    H269821   3.515   3.718  15.116 -1.2932  0.4637  3.8645
16136TIP3   OH269822   3.032   1.165  16.955 -0.5793  0.1254  0.5051
16136TIP3    H169823   2.976   1.191  17.028 -1.9512 -1.5567  0.0981
16136TIP3    H269824   3.087   1.095  16.991 -2.8698 -2.4151 -0.5323
16137TIP3   OH269825   3.292   5.494  15.211 -0.0726 -0.6607  0.7494
16137TIP3    H169826   3.329   5.500  15.299  0.1132 -2.7846  0.8572
16137TIP3    H269827   3.331   5.415  15.173 -2.5862 -1.6189 -0.0537
16138TIP3   OH269828   5.978   1.429  14.470 -0.4670  0.0166  0.2256
16138TIP3    H169829   5.989   1.454  14.378  0.3676 -1.2286 -0.0438
16138TIP3    H269830   5.979   1.334  14.469 -0.1144 -0.0143  1.5643
16139TIP3   OH269831   2.457   5.440  14.660  0.4625 -0.4534  0.4195
16139TIP3    H169832   2.542   5.483  14.670 -0.1446  0.6539  0.9403
16139TIP3    H269833   2.431   5.459  14.570  0.8841 -1.0619  0.1550
16140TIP3   OH269834   1.472   1.405   6.419  0.0700 -0.4983  0.5412
16140TIP3    H169835   1.475   1.500   6.433  0.2204 -0.2389 -1.1060
16140TIP3    H269836   1.563   1.379   6.409 -0.0808 -0.3538 -1.6460
16141TIP3   OH269837   1.222   2.172   3.658 -0.2751 -0.2665  0.0441
16141TIP3    H169838   1.267   2.089   3.642  0.0874 -0.0861  0.1195
16141TIP3    H269839   1.147   2.148   3.712  0.2770 -0.4428  0.7586
16142TIP3   OH269840   3.680   2.272   3.808 -0.0871  0.1309  0.2209
16142TIP3    H169841   3.620   2.278   3.733 -0.0335 -0.9908  0.0711
16142TIP3    H269842   3.623   2.276   3.884 -0.3897 -1.0678  0.0779
16143TIP3   OH269843   4.159   3.720  17.033 -0.4694  0.2875 -0.1992
16143TIP3    H169844   4.072   3.758  17.022 -0.2002  0.3153 -3.2161
16143TIP3    H269845   4.148   3.628  17.010  0.1475  0.1083  0.1962
16144TIP3   OH269846   6.219   3.117  15.084 -0.4022 -0.0402  0.1016
16144TIP3    H169847   6.128   3.109  15.113 -0.0187 -1.5011  1.0250
16144TIP3    H269848   6.261   3.170  15.152 -0.4027  0.0371  0.0426
16145TIP3   OH269849   0.862   4.960   3.477 -0.1794 -0.4366  0.3274
16145TIP3    H169850   0.795   4.966   3.409 -0.5719  0.5797  0.7879
16145TIP3    H269851   0.944   4.956   3.429 -0.5135 -0.8840 -0.2254
16146TIP3   OH269852   0.257   5.843   2.845 -0.1890  0.0957 -1.0208
16146TIP3    H169853   0.212   5.777   2.899  1.5818 -0.3099  0.0442
16146TIP3    H269854   0.200   5.919   2.848 -0.3539 -0.0494  1.1533
16147TIP3   OH269855   5.681   4.282   0.272  0.4648  0.2693  0.1383
16147TIP3    H169856   5.761   4.261   0.320 -0.5207 -1.6841  1.0024
16147TIP3    H269857   5.625   4.205   0.282 -1.2117  1.2456 -1.1475
16148TIP3   OH269858   3.666   3.629  12.857 -0.7749  0.0267  0.2830
16148TIP3    H169859   3.749   3.672  12.837  0.2456 -0.4504  3.0516
16148TIP3    H269860   3.604   3.664  12.793  1.4965  0.4990 -1.7651
16149TIP3   OH269861   5.608   2.293   2.034  0.4368 -0.4187 -0.2737
16149TIP3    H169862   5.536   2.316   1.975  2.1554  0.2224 -2.2253
16149TIP3    H269863   5.664   2.371   2.035  0.8511 -0.6842  1.6768
16150TIP3   OH269864   2.568   3.539   2.799  0.3679 -0.1356  0.2287
16150TIP3    H169865   2.524   3.482   2.736 -0.0643  0.8843 -0.4270
16150TIP3    H269866   2.515   3.619   2.799  1.1287  0.3824  0.8886
16151TIP3   OH269867   2.659   4.704  12.297  1.0723 -0.2582  0.1882
16151TIP3    H169868   2.719   4.632  12.276  1.2815 -0.2262  0.6615
16151TIP3    H269869   2.600   4.668  12.363 -0.9913 -1.0631 -1.9644
16152TIP3   OH269870   1.776   0.722  11.767 -0.0359  0.1360  0.3967
16152TIP3    H169871   1.820   0.686  11.690  1.0180 -2.5497  2.1048
16152TIP3    H269872   1.782   0.817  11.756  3.0086 -0.1210 -1.2375
16153TIP3   OH269873   1.096   0.525  17.250  0.5069  0.5077 -0.1527
16153TIP3    H169874   1.127   0.574  17.174  0.1981  1.4771  0.3307
16153TIP3    H269875   1.034   0.584  17.293  0.8569  0.0603  0.9928
16154TIP3   OH269876   6.503   0.668  15.073  0.3828  0.1818  0.1238
16154TIP3    H169877   6.421   0.711  15.095 -0.0527  0.0066 -1.0756
16154TIP3    H269878   6.480   0.575  15.065  0.7223  0.1107 -0.0586
16155TIP3   OH269879   6.209   2.523  12.799  0.8388 -0.2698  0.3443
16155TIP3    H169880   6.137   2.490  12.746  0.3569 -0.6452  1.2120
16155TIP3    H269881   6.214   2.616  12.778  2.2073 -0.8066 -2.1161
16156TIP3   OH269882   0.876   1.808   1.593 -0.1066 -0.3257 -0.5455
16156TIP3    H169883   0.818   1.872   1.634 -0.5575 -1.3393  0.4682
16156TIP3    H269884   0.820   1.761   1.531  0.0766 -0.1240 -0.8644
16157TIP3   OH269885   2.461   1.634   2.827  0.7793 -0.5007  0.0972
16157TIP3    H169886   2.553   1.638   2.801  1.3602 -3.2464  1.3555
16157TIP3    H269887   2.417   1.590   2.753  0.4419  0.7909 -0.4945
16158TIP3   OH269888   6.622   4.060   0.754  0.6448  0.0952  0.4567
16158TIP3    H169889   6.600   4.146   0.791 -0.3231 -0.7791  1.9988
16158TIP3    H269890   6.539   4.028   0.718  0.1102 -1.6054  2.9411
16159TIP3   OH269891   1.724   0.878   3.117 -0.2290 -0.6018 -0.6581
16159TIP3    H169892   1.709   0.972   3.127 -0.4877 -0.5276 -1.5730
16159TIP3    H269893   1.737   0.846   3.205 -2.1211 -0.0329 -0.1073
16160TIP3   OH269894   6.710   5.632   6.009 -0.1582  0.1271  0.0619
16160TIP3    H169895   6.734   5.543   5.984  2.6549  1.0606 -0.9096
16160TIP3    H269896   6.752   5.646   6.093 -1.6646  0.1680  0.8416
16161TIP3   OH269897   4.852   0.074   1.551 -0.3900 -0.0253 -0.2227
16161TIP3    H169898   4.783   0.136   1.574  0.5105  1.3338 -1.0785
16161TIP3    H269899   4.805  -0.008   1.536 -1.4954  0.1323  1.9186
16162TIP3   OH269900   3.896   5.943  16.912 -0.1392  0.0064  0.4083
16162TIP3    H169901   3.858   6.028  16.937  0.2202  0.9499 -2.0135
16162TIP3    H269902   3.990   5.953  16.931 -0.3587 -0.5789  1.9018
16163TIP3   OH269903   4.355   1.898   2.271 -0.2388 -0.0845  0.5660
16163TIP3    H169904   4.404   1.845   2.334 -0.7678 -1.2408  0.0290
16163TIP3    H269905   4.287   1.941   2.324 -1.5166 -2.0696  0.6450
16164TIP3   OH269906   0.494   1.735  16.447  0.3107 -0.0646  0.0260
16164TIP3    H169907   0.543   1.781  16.379  1.0292  0.4691  0.8711
16164TIP3    H269908   0.405   1.769  16.441  1.0229  2.1840  1.2207
16165TIP3   OH269909   2.921   5.397   0.205 -0.4164 -0.1739  0.5435
16165TIP3    H169910   2.843   5.372   0.155  0.5011 -1.8721 -0.1168
16165TIP3    H269911   2.929   5.491   0.191 -2.0538 -0.0517  0.2051
16166TIP3   OH269912   2.274   5.169   5.300  0.2488 -0.1462 -0.1131
16166TIP3    H169913   2.326   5.090   5.285  1.7447  0.5326  1.1659
16166TIP3    H269914   2.198   5.138   5.350  1.5617 -0.6267  1.6937
16167TIP3   OH269915   6.240   1.055   2.772 -0.1755  0.0467 -1.0606
16167TIP3    H169916   6.317   1.002   2.751  1.3250  0.9455  1.7294
16167TIP3    H269917   6.184   0.995   2.822  0.5069  0.4131  0.1829
16168TIP3   OH269918   2.452   3.450  11.371  0.2364 -0.5380  1.0554
16168TIP3    H169919   2.461   3.396  11.293 -1.2456 -1.4514  1.4558
16168TIP3    H269920   2.361   3.435  11.399  0.2924  0.9160  2.1051
16169TIP3   OH269921   6.436   1.374   2.416 -1.0056  0.2562  0.3522
16169TIP3    H169922   6.500   1.377   2.486 -0.6393 -2.7825  0.2798
16169TIP3    H269923   6.459   1.447   2.358  2.0896 -0.4414  0.5828
16170TIP3   OH269924   6.398   0.824   1.407 -0.2331  0.4109  0.3484
16170TIP3    H169925   6.392   0.750   1.347  2.5108 -0.8015  1.4253
16170TIP3    H269926   6.437   0.894   1.355 -0.9112  0.4579 -0.1141
16171TIP3   OH269927   2.504   5.828  14.242  0.0398 -0.4232 -0.4499
16171TIP3    H169928   2.503   5.923  14.233  0.8823 -0.1027  1.9422
16171TIP3    H269929   2.422   5.807  14.286 -0.2968 -0.8614 -1.2715
16172TIP3   OH269930   5.003   3.140   2.191 -0.2478  0.2116  0.3802
16172TIP3    H169931   5.005   3.061   2.245 -0.1020  0.7868  1.2496
16172TIP3    H269932   4.923   3.185   2.217 -0.4976  0.1945 -0.3460
16173TIP3   OH269933   5.617   3.425   0.770  0.1705  0.3251  0.4436
16173TIP3    H169934   5.624   3.392   0.860  0.6876 -0.5019  0.1100
16173TIP3    H269935   5.528   3.461   0.765 -0.3354 -0.8195  0.8991
16174TIP3   OH269936   1.791   6.260   0.330 -0.1014  0.2117  0.8052
16174TIP3    H169937   1.781   6.204   0.407 -0.7059 -0.3212  0.3520
16174TIP3    H269938   1.795   6.199   0.256  0.6465  0.7068  0.4229
16175TIP3   OH269939   6.511   0.113   0.061  0.1787  0.6050 -0.3019
16175TIP3    H169940   6.543   0.178   0.124  0.6077  0.2358 -0.1340
16175TIP3    H269941   6.521   0.155  -0.024  0.2522  0.8410 -0.1765
16176TIP3   OH269942   3.353   0.165   6.579  0.3108 -0.0156  0.3610
16176TIP3    H169943   3.442   0.151   6.613  0.6363  1.4925  0.2153
16176TIP3    H269944   3.357   0.133   6.489  1.2968  1.7459 -0.2831
16177TIP3   OH269945   1.429   4.015   5.839 -0.1496 -0.5556 -0.1224
16177TIP3    H169946   1.374   4.041   5.914 -0.1883 -0.0845 -0.3096
16177TIP3    H269947   1.438   3.920   5.847  0.2416 -0.4566  0.7571
16178TIP3   OH269948   0.894   5.704   4.289 -0.1754  0.3373  0.2941
16178TIP3    H169949   0.861   5.793   4.294  1.1740  0.8688  0.1111
16178TIP3    H269950   0.819   5.652   4.261 -1.2165  1.2640  1.2621
16179TIP3   OH269951   1.865   1.327   5.851  0.1360 -0.2204  0.1836
16179TIP3    H169952   1.885   1.420   5.859 -0.7590  0.1715 -1.5835
16179TIP3    H269953   1.912   1.299   5.773  1.1119 -1.5048  1.1836
16180TIP3   OH269954   2.337   5.761   0.140 -0.6736  0.6591  0.3402
16180TIP3    H169955   2.289   5.738   0.061  0.4579 -1.0976  0.1213
16180TIP3    H269956   2.423   5.721   0.129 -0.3425  0.7289  2.2745
16181TIP3   OH269957   3.491   6.080  14.517  0.2063 -0.0200 -0.1053
16181TIP3    H169958   3.569   6.032  14.489  1.3035  1.5255  0.1430
16181TIP3    H269959   3.470   6.137  14.443 -0.5369 -0.2533 -0.0734
16182TIP3   OH269960   1.409   3.779  15.718 -0.0260 -0.0956 -0.1636
16182TIP3    H169961   1.502   3.768  15.698 -0.2347 -1.6684 -0.4436
16182TIP3    H269962   1.374   3.690  15.713 -1.5365  0.4752 -0.0130
16183TIP3   OH269963   6.642   1.040   3.931 -0.2148 -0.2809  0.3013
16183TIP3    H169964   6.657   0.952   3.967  0.4071 -0.3316 -0.0758
16183TIP3    H269965   6.722   1.088   3.950  0.5319 -0.5933 -1.8148
16184TIP3   OH269966   6.178   3.641   2.230  0.1092  0.3906  0.2830
16184TIP3    H169967   6.196   3.572   2.167 -0.7743  0.2979  0.1205
16184TIP3    H269968   6.165   3.596   2.313 -3.3983 -0.0124 -0.3376
16185TIP3   OH269969   3.418   0.957  16.374  0.3905  0.3998  0.2097
16185TIP3    H169970   3.435   0.863  16.361 -0.0525  0.3024  0.3043
16185TIP3    H269971   3.341   0.959  16.430  0.4268  0.8238  0.2419
16186TIP3   OH269972   1.340   2.656  16.735 -0.2462 -0.4210 -0.4022
16186TIP3    H169973   1.359   2.670  16.642  0.0538  1.1465 -0.1435
16186TIP3    H269974   1.245   2.670  16.743 -0.3501 -1.0386 -0.5474
16187TIP3   OH269975   0.286   6.443   2.176  0.0870 -0.3833  0.0510
16187TIP3    H169976   0.259   6.356   2.205 -0.6985 -0.0052  0.5158
16187TIP3    H269977   0.326   6.429   2.091  0.4651 -1.2638  0.3581
16188TIP3   OH269978   4.153   4.426   2.283  0.1814 -0.6051 -0.4510
16188TIP3    H169979   4.092   4.496   2.260  0.5557  0.3770  1.3965
16188TIP3    H269980   4.217   4.426   2.211  0.3817  1.1982 -0.3175
16189TIP3   OH269981   3.835   2.627   1.424  0.0365  0.1330  0.0656
16189TIP3    H169982   3.760   2.649   1.369  1.5724  1.1383 -1.7429
16189TIP3    H269983   3.862   2.711   1.462  0.3210 -0.1932  0.5890
16190TIP3   OH269984   1.027   4.467   4.990  0.3023 -0.2762 -0.0414
16190TIP3    H169985   0.938   4.452   5.021  0.8484 -1.7001  0.8983
16190TIP3    H269986   1.016   4.528   4.917 -1.4289 -0.3551  0.1049
16191TIP3   OH269987   1.884   0.940  11.009 -0.5812 -0.2095 -0.6467
16191TIP3    H169988   1.915   0.849  11.004  0.0200  0.0490 -1.8007
16191TIP3    H269989   1.955   0.992  10.973  0.2893  1.0568  2.5134
16192TIP3   OH269990   0.697   2.196   2.550 -0.3905 -0.7886 -0.2776
16192TIP3    H169991   0.739   2.282   2.548 -0.9951 -0.5013 -1.6628
16192TIP3    H269992   0.707   2.167   2.641  0.5561  0.3655  0.0183
16193TIP3   OH269993   4.224   6.714  11.993 -0.1134  0.0217 -0.0790
16193TIP3    H169994   4.283   6.639  11.982  0.5739  0.3819  1.0547
16193TIP3    H269995   4.281   6.789  12.006 -0.8102  0.4223  0.7700
16194TIP3   OH269996   1.770   3.198   4.123  0.3032 -1.0559  0.1903
16194TIP3    H169997   1.777   3.293   4.112 -1.4562 -0.9046  0.1788
16194TIP3    H269998   1.806   3.182   4.211 -0.2753 -0.2411  0.5926
16195TIP3   OH269999   1.506   6.150  13.704 -0.3026 -0.2829  0.5014
16195TIP3    H170000   1.417   6.177  13.682 -0.3432 -1.2774 -0.6839
16195TIP3    H270001   1.555   6.156  13.622  0.3901 -0.9904  0.8344
16196TIP3   OH270002   3.224   4.328   5.516  0.1388  0.3121 -0.2845
16196TIP3    H170003   3.209   4.364   5.603  2.5071  1.4031 -0.2665
16196TIP3    H270004   3.280   4.252   5.530  0.4925  0.4622 -0.8321
16197TIP3   OH270005   1.399   3.092   5.321 -0.0731  0.0771  0.2645
16197TIP3    H170006   1.495   3.094   5.325 -0.1138 -0.0322  2.1347
16197TIP3    H270007   1.376   3.170   5.270  0.9878  0.3730  0.2096
16198TIP3   OH270008   3.100   5.049   0.491  0.8248 -0.5905 -0.4557
16198TIP3    H170009   3.050   4.996   0.429 -1.2435 -0.8263  1.3018
16198TIP3    H270010   3.182   5.067   0.446  0.1747 -2.3151 -2.4952
16199TIP3   OH270011   2.273   3.515  13.852 -0.3978  0.6935  0.0350
16199TIP3    H170012   2.217   3.465  13.912  0.3457 -0.0003  0.1693
16199TIP3    H270013   2.235   3.603  13.851 -0.9789  0.4600  0.7853
16200TIP3   OH270014   4.976   0.052   5.232  0.1075 -0.3983 -0.0724
16200TIP3    H170015   4.924   0.129   5.256 -1.4709 -1.1746 -0.8406
16200TIP3    H270016   5.000   0.067   5.141 -0.6947 -1.0382 -0.4064
16201TIP3   OH270017   3.699   3.656  16.729  0.3650 -0.1784  0.2522
16201TIP3    H170018   3.789   3.689  16.723 -0.2988  1.5287 -1.2112
16201TIP3    H270019   3.644   3.734  16.722 -1.2566 -1.2595  0.3735
16202TIP3   OH270020   1.060   1.201   3.916 -0.1212 -0.3180  0.1122
16202TIP3    H170021   1.119   1.128   3.933  0.3655  0.5121  2.3024
16202TIP3    H270022   0.973   1.162   3.921  0.1498 -0.9209  0.3566
16203TIP3   OH270023   2.632   0.571   6.485 -0.1508 -0.5313  0.0789
16203TIP3    H170024   2.671   0.626   6.553 -0.9876 -1.2289  1.1599
16203TIP3    H270025   2.688   0.493   6.483  0.5340 -0.0422 -0.8554
16204TIP3   OH270026   3.801   0.044  16.493 -0.0869  0.1560  0.3509
16204TIP3    H170027   3.885  -0.002  16.484 -0.7087 -1.2682  1.3438
16204TIP3    H270028   3.762   0.040  16.406 -0.1695 -1.3703  0.4246
16205TIP3   OH270029   1.388   3.460   1.504 -0.2825 -0.3140  0.0498
16205TIP3    H170030   1.348   3.519   1.567 -0.1758 -0.0328 -0.1416
16205TIP3    H270031   1.417   3.517   1.433  0.6139 -0.4941  0.2665
16206TIP3   OH270032   5.647   0.548  16.480  0.3473  0.1803  0.1377
16206TIP3    H170033   5.707   0.551  16.405  0.4341  0.7694  0.2224
16206TIP3    H270034   5.645   0.456  16.506  0.2751 -0.0446 -0.6228
16207TIP3   OH270035   2.311   1.262  14.647 -0.2375 -0.0689 -0.1207
16207TIP3    H170036   2.324   1.201  14.720 -0.8797 -0.5330 -0.3823
16207TIP3    H270037   2.222   1.294  14.659 -0.0594  0.4731 -0.2469
16208TIP3   OH270038   1.348   4.949  16.583 -0.2752 -0.1069  0.4671
16208TIP3    H170039   1.362   5.042  16.567  0.5737 -0.3673 -0.3856
16208TIP3    H270040   1.395   4.905  16.512 -1.2345 -1.1759  0.4710
16209TIP3   OH270041   1.969   4.451   4.410  0.8146  0.6985  0.2505
16209TIP3    H170042   1.906   4.507   4.365  1.4720 -0.0972 -1.7585
16209TIP3    H270043   1.966   4.368   4.363  2.4776  0.2434  0.8676
16210TIP3   OH270044   1.985   3.318  16.082 -0.9329  0.3334  0.4724
16210TIP3    H170045   1.902   3.297  16.125 -1.5414 -1.5159 -1.4460
16210TIP3    H270046   2.047   3.253  16.117 -0.8359  0.3300  0.2934
16211TIP3   OH270047   4.050   1.966  13.085  0.2656 -0.1894 -0.2098
16211TIP3    H170048   4.031   1.898  13.020  2.2956 -0.3776 -0.6901
16211TIP3    H270049   4.062   1.917  13.167  1.1097 -0.3655 -0.4272
16212TIP3   OH270050   4.819   4.016   5.485 -0.1096  0.1841  0.0415
16212TIP3    H170051   4.842   4.041   5.575 -0.1804 -1.3615  0.5085
16212TIP3    H270052   4.724   4.026   5.481 -0.0568  0.7283 -0.0342
16213TIP3   OH270053   2.229   4.784  13.824 -0.8225 -0.5652 -0.1294
16213TIP3    H170054   2.217   4.871  13.861  1.9755  0.5623 -1.4982
16213TIP3    H270055   2.222   4.797  13.729 -1.7094 -2.1276 -0.3158
16214TIP3   OH270056   0.724   6.014  16.813 -0.0939  0.0210 -0.1343
16214TIP3    H170057   0.754   5.942  16.868  0.3194  0.9519  0.9087
16214TIP3    H270058   0.639   6.038  16.848 -0.3006 -0.0593 -0.5781
16215TIP3   OH270059   6.733   1.999   0.997  0.5046 -0.0593  0.1923
16215TIP3    H170060   6.827   2.017   1.006  0.2134  1.5383  0.4416
16215TIP3    H270061   6.711   1.949   1.076  0.9037  0.7697  0.8561
16216TIP3   OH270062   3.844   0.309  10.886 -0.1154  0.1517  0.4080
16216TIP3    H170063   3.753   0.323  10.913 -0.4192  1.7422 -1.2213
16216TIP3    H270064   3.872   0.394  10.851  1.8592 -0.4355  0.4103
16217TIP3   OH270065   0.966   2.757   1.166  0.5320  0.1725  0.2664
16217TIP3    H170066   1.061   2.767   1.154  0.8260 -0.7995  1.5978
16217TIP3    H270067   0.952   2.769   1.260 -0.0089 -4.0984  0.9207
16218TIP3   OH270068   5.828   2.297   1.178  0.0855 -0.2931  0.0922
16218TIP3    H170069   5.734   2.311   1.183 -0.0309 -0.6483 -0.9669
16218TIP3    H270070   5.857   2.356   1.108  0.6162 -0.3384  0.2701
16219TIP3   OH270071   1.140   3.063   0.525 -0.2179 -0.1444 -0.1653
16219TIP3    H170072   1.097   3.132   0.575  1.6309  0.2951  0.8723
16219TIP3    H270073   1.115   2.982   0.570  0.0098  0.0978  0.4004
16220TIP3   OH270074   0.473   3.906   2.614 -0.8041 -0.0081 -0.2001
16220TIP3    H170075   0.410   3.954   2.561  2.0216  2.1195 -1.8836
16220TIP3    H270076   0.486   3.960   2.692  0.3370  0.6424 -0.8067
16221TIP3   OH270077   6.076   2.188  16.970 -0.6470  0.0630 -0.4372
16221TIP3    H170078   6.134   2.260  16.945 -0.7786 -0.0335 -1.0474
16221TIP3    H270079   6.131   2.110  16.967 -0.3789  0.2026  0.7310
16222TIP3   OH270080   1.748   5.395  16.345 -0.3095 -0.2226  0.0582
16222TIP3    H170081   1.832   5.432  16.319 -0.7565 -0.3481 -1.7425
16222TIP3    H270082   1.689   5.470  16.354 -0.2701 -0.2137  0.2429
16223TIP3   OH270083   0.583   6.739   0.209  0.0969  0.5233 -0.4340
16223TIP3    H170084   0.609   6.670   0.147 -3.1253 -1.5470  0.3108
16223TIP3    H270085   0.541   6.806   0.155  0.0034  0.1756 -0.7921
16224TIP3   OH270086   2.618   1.035  11.874  0.0804  0.2400  0.2858
16224TIP3    H170087   2.543   1.004  11.824 -0.6902 -1.0848  2.1664
16224TIP3    H270088   2.693   1.020  11.817 -0.9798  0.8820 -1.3321
16225TIP3   OH270089   1.620   0.177   4.154  0.0553 -0.3212 -0.0079
16225TIP3    H170090   1.704   0.186   4.111 -0.5392  3.0646 -0.6981
16225TIP3    H270091   1.637   0.200   4.246 -0.1281  0.5146 -0.1794
16226TIP3   OH270092   5.244   0.423  17.239  0.4309 -0.1064 -0.4897
16226TIP3    H170093   5.282   0.495  17.190  1.0992 -0.6203 -0.7477
16226TIP3    H270094   5.169   0.461  17.285  0.5214  0.6449 -0.9566
16227TIP3   OH270095   0.971   5.845   2.521 -0.1200  0.3687  0.5724
16227TIP3    H170096   0.938   5.929   2.553  0.4361  0.3652  1.1895
16227TIP3    H270097   1.066   5.859   2.513 -0.1684  0.1512 -0.4186
16228TIP3   OH270098   2.031   0.932  12.248 -0.6757  0.3705  0.2312
16228TIP3    H170099   1.995   0.844  12.240  0.3724 -0.2597  1.9280
16228TIP3    H270100   2.120   0.925  12.212  0.0559  0.2503  1.9873
16229TIP3   OH270101   0.789   4.347   0.922  0.1373  0.4349 -0.0185
16229TIP3    H170102   0.824   4.394   0.997  1.1941 -1.4547  0.7279
16229TIP3    H270103   0.866   4.320   0.872 -0.5228  1.2104 -1.5303
16230TIP3   OH270104   5.815   0.309  16.322  0.1119  0.8544  0.8768
16230TIP3    H170105   5.889   0.368  16.312  0.7529 -0.1333 -0.8275
16230TIP3    H270106   5.743   0.352  16.276  1.1224 -0.4401 -2.2567
16231TIP3   OH270107   3.804   5.469   2.233 -0.5516 -0.0811  0.3511
16231TIP3    H170108   3.721   5.512   2.255 -0.6517  0.0541 -0.2921
16231TIP3    H270109   3.781   5.377   2.226 -0.1821 -0.4155  2.5726
16232TIP3   OH270110   3.915   0.010   3.144  0.6519  0.3919  0.3977
16232TIP3    H170111   3.926   0.094   3.100  0.8888 -0.6096 -1.5936
16232TIP3    H270112   3.899  -0.052   3.073 -0.3698 -1.1194  1.8646
16233TIP3   OH270113   3.934   2.322   4.692  0.0934  0.1447  1.0463
16233TIP3    H170114   3.922   2.414   4.716 -1.3944  0.2512  0.0203
16233TIP3    H270115   3.945   2.323   4.597 -0.1056 -0.7374  1.0087
16234TIP3   OH270116   1.986   3.452   4.065  0.5592  0.0596 -0.0470
16234TIP3    H170117   1.917   3.467   4.000 -0.4066 -1.1350  0.6526
16234TIP3    H270118   2.059   3.417   4.015  0.2607  0.2802 -0.6510
16235TIP3   OH270119   0.444   3.176  15.648 -0.0400  0.4153  0.4400
16235TIP3    H170120   0.357   3.136  15.641  0.5915 -1.0061  0.2904
16235TIP3    H270121   0.502   3.114  15.604  0.9965  1.5609  0.1462
16236TIP3   OH270122   0.492   3.050  14.263  0.2262  0.4714  0.3957
16236TIP3    H170123   0.475   3.134  14.221  0.5428  0.0087 -0.6920
16236TIP3    H270124   0.424   3.043  14.331 -0.2770  1.2599 -0.0116
16237TIP3   OH270125   0.943   3.922   0.942  0.1640  0.0403  0.0344
16237TIP3    H170126   0.924   3.828   0.941 -1.1320  0.2315  1.8625
16237TIP3    H270127   0.857   3.964   0.944  0.7331  1.2399  0.1294
16238TIP3   OH270128   4.922   3.966   0.739  0.0151 -0.2460  0.1051
16238TIP3    H170129   4.914   4.044   0.684  0.4845 -0.1421  0.1748
16238TIP3    H270130   4.848   3.911   0.715  0.2444 -0.2243 -0.6590
16239TIP3   OH270131   1.503   0.063   0.100  0.9082 -0.5832  0.2667
16239TIP3    H170132   1.568   0.116   0.053  0.6215 -0.0284  0.4800
16239TIP3    H270133   1.524   0.077   0.192  0.0660  0.1617  0.3607
16240TIP3   OH270134   5.246   6.476   4.028 -0.2535  0.2692 -0.5880
16240TIP3    H170135   5.306   6.435   4.090  1.0401 -0.1722 -2.0649
16240TIP3    H270136   5.220   6.558   4.071  0.7605  0.0822  0.4474
16241TIP3   OH270137   6.738   5.243  16.702  0.8560  0.3356  0.0640
16241TIP3    H170138   6.698   5.157  16.716 -0.0964  0.9677  1.5065
16241TIP3    H270139   6.823   5.238  16.745  0.5609  0.2743  0.6521
16242TIP3   OH270140   1.858   1.993  11.649  0.2803 -0.0781 -0.4515
16242TIP3    H170141   1.855   2.014  11.556  1.8322 -1.1683 -0.7963
16242TIP3    H270142   1.854   2.077  11.694 -1.5776  0.4032 -1.4352
16243TIP3   OH270143   1.528   0.312   1.224  0.1382 -0.1471  0.5323
16243TIP3    H170144   1.527   0.389   1.280 -2.4637 -0.3605  0.8951
16243TIP3    H270145   1.506   0.239   1.283 -0.5722 -0.6852 -0.3784
16244TIP3   OH270146   2.519   0.437   3.129  0.4132 -0.4106 -0.2155
16244TIP3    H170147   2.433   0.416   3.093 -0.8589  1.4314  1.4684
16244TIP3    H270148   2.511   0.416   3.223  1.2555  1.1606  0.2500
16245TIP3   OH270149   2.840   0.352  14.379 -0.3115 -0.3921 -0.0885
16245TIP3    H170150   2.857   0.380  14.289 -1.1053  0.3134 -0.0307
16245TIP3    H270151   2.798   0.266  14.371 -1.1128  0.0265 -0.4320
16246TIP3   OH270152   0.223   0.641   2.560 -0.3748  0.1652 -0.0429
16246TIP3    H170153   0.193   0.630   2.469  0.5114  0.7377 -0.4188
16246TIP3    H270154   0.248   0.733   2.566 -1.2621  0.3582  1.0576
16247TIP3   OH270155   2.090   4.386  10.720  0.7392 -0.3108  0.5336
16247TIP3    H170156   2.141   4.309  10.696 -1.5844 -1.2703 -1.8292
16247TIP3    H270157   2.061   4.369  10.809  1.6682 -1.3484  0.6576
16248TIP3   OH270158   6.754   0.512   5.560  0.3234 -0.7061  0.6686
16248TIP3    H170159   6.674   0.565   5.553  2.7195  3.1758 -1.5353
16248TIP3    H270160   6.777   0.491   5.469  0.3250 -4.5660  1.3917
16249TIP3   OH270161   5.116   2.958   1.883  0.6197 -0.6885  0.3357
16249TIP3    H170162   5.083   2.981   1.970  0.1213  0.7839 -0.2193
16249TIP3    H270163   5.079   2.871   1.866  0.0045 -0.6140  1.2283
16250TIP3   OH270164   5.495   2.307  14.275  0.9914 -0.4593 -0.0669
16250TIP3    H170165   5.526   2.310  14.366  0.6559 -0.4879  0.0498
16250TIP3    H270166   5.406   2.344  14.279 -0.0209 -2.7622  0.0402
16251TIP3   OH270167   0.362   3.367   2.494  0.4269  0.1398  0.4912
16251TIP3    H170168   0.440   3.407   2.455  0.2099  0.0249 -0.0743
16251TIP3    H270169   0.370   3.274   2.475 -0.6248  0.3120 -1.0142
16252TIP3   OH270170   4.436   1.453   1.942 -0.4412  0.5464  0.3199
16252TIP3    H170171   4.358   1.463   1.996 -2.5293 -0.5635 -2.2736
16252TIP3    H270172   4.481   1.377   1.979 -0.8627  0.8322  1.4741
16253TIP3   OH270173   1.457   6.037  16.108  0.0931  0.1065  0.2530
16253TIP3    H170174   1.465   5.942  16.096  1.7217  0.3369 -0.7899
16253TIP3    H270175   1.441   6.071  16.020  0.5852  0.8860  0.4574
16254TIP3   OH270176   5.208   5.947   4.167 -0.3884  0.1885  0.1009
16254TIP3    H170177   5.173   6.018   4.112  0.6437 -0.4391 -1.4389
16254TIP3    H270178   5.212   5.984   4.255 -0.1420  1.9548 -0.6188
16255TIP3   OH270179   6.488   6.699  15.479  0.0697 -0.3080 -0.5037
16255TIP3    H170180   6.507   6.704  15.385 -0.3157 -0.8475 -0.6142
16255TIP3    H270181   6.556   6.641  15.514  0.0311 -0.3503 -0.4991
16256TIP3   OH270182   5.359   5.456   5.501 -0.6847 -0.5787  0.7366
16256TIP3    H170183   5.359   5.551   5.489 -0.7264 -0.7684 -0.9726
16256TIP3    H270184   5.444   5.437   5.541  1.0262 -0.1488 -2.3570
16257TIP3   OH270185   5.934   5.026   3.587 -0.1098  0.4167  0.4994
16257TIP3    H170186   5.849   4.982   3.578 -0.1619  0.7693 -1.2336
16257TIP3    H270187   5.921   5.093   3.653 -0.5676 -0.9187  1.7993
16258TIP3   OH270188   5.451   0.975  12.443 -0.2364 -0.5454  0.2730
16258TIP3    H170189   5.462   0.890  12.401  0.9172 -0.2282 -0.0971
16258TIP3    H270190   5.484   1.038  12.379  0.6339  0.0293  1.2554
16259TIP3   OH270191   6.555   4.239   2.412 -0.2746 -0.5170 -0.0034
16259TIP3    H170192   6.471   4.195   2.430 -0.2612 -0.1673  1.0084
16259TIP3    H270193   6.620   4.184   2.456 -0.3738  1.0383  2.2970
16260TIP3   OH270194   4.436   3.847  11.750 -0.0247  0.8176 -0.6117
16260TIP3    H170195   4.401   3.911  11.688 -0.7163  0.7507 -0.2997
16260TIP3    H270196   4.473   3.900  11.821 -0.9933  0.8887 -0.1368
16261TIP3   OH270197   1.513   0.599   2.562 -0.2438 -0.4183  0.5625
16261TIP3    H170198   1.596   0.633   2.529 -0.3158 -1.6320 -1.0425
16261TIP3    H270199   1.538   0.540   2.633  0.2540 -0.5289  0.3022
16262TIP3   OH270200   6.560   2.895  16.531  0.4108 -0.0582  0.1541
16262TIP3    H170201   6.471   2.930  16.532  0.7148  0.8071  2.2086
16262TIP3    H270202   6.610   2.957  16.478 -0.1644 -0.5260 -0.9732
16263TIP3   OH270203   2.229   2.914   2.482 -0.5258  0.0163  0.2913
16263TIP3    H170204   2.162   2.859   2.523 -0.8741 -0.6061 -1.0556
16263TIP3    H270205   2.309   2.862   2.486 -1.1186 -1.2020 -2.0998
16264TIP3   OH270206   1.889   4.442   2.985 -0.4743  0.7869 -0.2419
16264TIP3    H170207   1.943   4.422   2.908 -0.2620 -0.6786  0.2551
16264TIP3    H270208   1.817   4.379   2.981 -0.5165  0.7573  0.7079
16265TIP3   OH270209   5.983   3.826  15.454  0.1412  0.3058 -0.0891
16265TIP3    H170210   5.970   3.919  15.471  1.0930  0.4170  0.0474
16265TIP3    H270211   6.065   3.821  15.405 -0.5062 -0.3628 -1.1696
16266TIP3   OH270212   1.192   6.125  12.638 -0.3653 -0.4540 -0.7847
16266TIP3    H170213   1.107   6.140  12.596 -1.0735 -1.4877  0.2320
16266TIP3    H270214   1.175   6.135  12.731  0.5428 -1.1088 -0.5319
16267TIP3   OH270215   1.502   5.558  14.694  0.2681  0.2950 -0.1590
16267TIP3    H170216   1.541   5.494  14.635  0.4385  1.7745 -1.7323
16267TIP3    H270217   1.457   5.506  14.760  2.7742 -1.4582  0.2958
16268TIP3   OH270218   4.849   2.111  16.857 -0.2390  0.6253  0.4116
16268TIP3    H170219   4.809   2.032  16.893 -0.9492  0.2713 -1.0704
16268TIP3    H270220   4.904   2.080  16.785  0.5826  1.3689  0.6956
16269TIP3   OH270221   1.311   5.016   1.468 -0.5354 -0.2040 -0.3061
16269TIP3    H170222   1.280   5.049   1.552 -1.8054 -1.7117 -0.1473
16269TIP3    H270223   1.274   5.076   1.404  1.0757  1.4216  0.1907
16270TIP3   OH270224   6.594   4.616   2.019 -0.2154  0.2873 -0.0078
16270TIP3    H170225   6.622   4.678   2.087  0.2923  1.8924 -1.5930
16270TIP3    H270226   6.600   4.530   2.060  2.4933  0.9593  1.2210
16271TIP3   OH270227   4.864   5.959  14.594  0.6137 -0.0569  0.1185
16271TIP3    H170228   4.957   5.965  14.616  0.5234 -0.9576  0.8103
16271TIP3    H270229   4.821   5.944  14.677 -0.2123  0.7734 -0.1465
16272TIP3   OH270230   5.709   0.378   2.359 -0.5945 -0.3499 -0.2024
16272TIP3    H170231   5.751   0.456   2.393 -1.4647  0.7703 -1.6020
16272TIP3    H270232   5.725   0.311   2.426  0.9585  0.7552  0.5918
16273TIP3   OH270233   1.655   2.226   1.244 -0.2681 -0.0615  0.4410
16273TIP3    H170234   1.686   2.153   1.299  1.2099  1.0753  1.1897
16273TIP3    H270235   1.727   2.289   1.245 -0.9769  0.8455 -1.2870
16274TIP3   OH270236   1.548   0.944   6.329  0.3924 -0.5830 -0.3908
16274TIP3    H170237   1.470   0.991   6.360  0.7109 -1.2549  1.6297
16274TIP3    H270238   1.600   1.010   6.283 -1.7173 -0.3158 -2.5505
16275TIP3   OH270239   1.568   0.168  13.290 -0.2966  0.0090  0.7810
16275TIP3    H170240   1.476   0.192  13.279  0.1090  0.7781 -1.3704
16275TIP3    H270241   1.614   0.215  13.220  1.5656 -1.3610  1.0088
16276TIP3   OH270242   2.566   5.230   6.336 -0.5551 -0.3192  0.0011
16276TIP3    H170243   2.635   5.276   6.289 -0.7597  1.4101  1.2611
16276TIP3    H270244   2.502   5.208   6.269  0.6088 -0.7867 -0.9802
16277TIP3   OH270245   3.261   4.765   3.517 -0.0590  0.0130 -0.3920
16277TIP3    H170246   3.249   4.670   3.521 -2.1725  0.2177 -0.8780
16277TIP3    H270247   3.281   4.791   3.607 -2.5516 -0.5766  0.4177
16278TIP3   OH270248   1.453   3.829  11.274 -0.6613  0.1575 -0.6033
16278TIP3    H170249   1.474   3.881  11.196  1.3053  0.8773  0.3289
16278TIP3    H270250   1.533   3.779  11.291 -1.2158 -0.3225  0.6874
16279TIP3   OH270251   0.950   5.950   4.586  0.1955 -0.5984  0.1629
16279TIP3    H170252   0.944   5.984   4.496 -0.5433 -0.7605  0.1423
16279TIP3    H270253   1.019   6.003   4.627  1.0490 -1.0134 -0.7091
16280TIP3   OH270254   6.187   0.623   2.297  0.1184 -0.2889 -0.0737
16280TIP3    H170255   6.177   0.688   2.227 -1.4925  0.7978  1.1080
16280TIP3    H270256   6.114   0.563   2.285  0.5047 -0.7881  0.0146
16281TIP3   OH270257   5.226   1.988  13.446 -0.1175  0.0026  0.1536
16281TIP3    H170258   5.140   1.957  13.417 -0.5883  0.8063  0.6348
16281TIP3    H270259   5.266   2.024  13.367 -0.2338 -0.3515 -0.0691
16282TIP3   OH270260   3.611   3.095  12.733  0.1494  0.1311 -0.5135
16282TIP3    H170261   3.588   3.174  12.782  1.9174 -0.1895  0.9284
16282TIP3    H270262   3.554   3.027  12.768 -0.6704  0.5337 -1.0439
16283TIP3   OH270263   6.582   6.103  12.673  0.2235 -0.0364 -0.3122
16283TIP3    H170264   6.561   6.014  12.646 -0.0104  0.1386 -0.7153
16283TIP3    H270265   6.641   6.136  12.605  0.5154  0.0287 -0.0304
16284TIP3   OH270266   6.215   5.162   0.034  0.2133 -0.5308 -0.0649
16284TIP3    H170267   6.234   5.150  -0.060 -0.6743 -0.9630 -0.1964
16284TIP3    H270268   6.223   5.256   0.048  1.4592 -0.5742 -0.3176
16285TIP3   OH270269   4.895   5.979  12.135  0.4434 -0.0368  0.0535
16285TIP3    H170270   4.924   5.944  12.051  0.8850 -0.3057  0.3144
16285TIP3    H270271   4.822   6.037  12.113  0.3578 -0.3445 -0.4816
16286TIP3   OH270272   0.722   1.160   3.074 -0.2711  0.8970  0.6251
16286TIP3    H170273   0.714   1.253   3.054 -1.3665  1.0074  1.4586
16286TIP3    H270274   0.780   1.125   3.007 -0.7606  1.9634 -0.3741
16287TIP3   OH270275   5.015   5.459  16.193 -0.5259  0.1885 -0.3115
16287TIP3    H170276   5.000   5.553  16.200  0.1157  0.2585  0.2105
16287TIP3    H270277   4.927   5.422  16.185 -0.8891  0.7200  0.9810
16288TIP3   OH270278   5.106   3.496  16.130  0.2140 -0.1650  0.4787
16288TIP3    H170279   5.189   3.452  16.113  0.9718  0.9400  1.2031
16288TIP3    H270280   5.054   3.480  16.051  1.9183  0.9374 -0.9530
16289TIP3   OH270281   4.200   5.520  14.191  0.7432  0.5617 -0.8353
16289TIP3    H170282   4.174   5.468  14.267  0.4657 -1.3131 -2.1346
16289TIP3    H270283   4.157   5.605  14.204 -0.4565 -0.1877  0.4129
16290TIP3   OH270284   3.678   4.588   1.122 -0.5648 -0.1738 -0.1071
16290TIP3    H170285   3.651   4.497   1.136  1.5115 -1.0085 -1.0808
16290TIP3    H270286   3.706   4.618   1.208 -0.1506 -0.8572  0.0026
16291TIP3   OH270287   1.229   6.199   3.517 -0.4361 -0.3645  0.3425
16291TIP3    H170288   1.288   6.184   3.590 -1.3312  0.7082  1.3388
16291TIP3    H270289   1.209   6.112   3.483  0.9557 -0.7923  0.5710
16292TIP3   OH270290   4.074   4.772   4.225  0.0313  0.0833 -0.3427
16292TIP3    H170291   4.128   4.846   4.253 -1.0506  0.8142 -0.1262
16292TIP3    H270292   4.062   4.719   4.304 -0.2248  0.3410 -0.2089
16293TIP3   OH270293   4.787   3.913   1.262  0.2224  0.2822  0.1200
16293TIP3    H170294   4.766   3.850   1.193  0.6172  1.5424 -1.2125
16293TIP3    H270295   4.853   3.870   1.315  0.8275 -0.2542 -1.0427
16294TIP3   OH270296   5.102   2.801  16.284 -0.1502 -0.0478 -0.2689
16294TIP3    H170297   5.107   2.707  16.270 -0.3422  0.1030 -1.4312
16294TIP3    H270298   5.009   2.822  16.277 -0.0817  0.2621 -0.2879
16295TIP3   OH270299   4.931   4.083  12.800 -0.0530 -0.2785 -0.0770
16295TIP3    H170300   4.860   4.039  12.754 -1.3255  1.1109  0.4575
16295TIP3    H270301   4.908   4.176  12.798  0.9018  0.0520  1.5348
16296TIP3   OH270302   4.060   2.461   5.979 -0.1303 -0.4222 -0.4097
16296TIP3    H170303   4.142   2.511   5.987  0.4858 -1.5965  0.9964
16296TIP3    H270304   4.060   2.403   6.055 -1.9010 -1.0104 -0.8242
16297TIP3   OH270305   2.557   4.524   0.839  0.5159  0.0976  0.6478
16297TIP3    H170306   2.515   4.439   0.827  1.9622 -0.6607  0.7806
16297TIP3    H270307   2.645   4.513   0.804  0.4413  1.8346 -0.1792
16298TIP3   OH270308   1.610   1.434   3.119  0.1637  0.4359  0.1322
16298TIP3    H170309   1.590   1.511   3.172 -0.5828  0.2159  0.1824
16298TIP3    H270310   1.579   1.360   3.172 -0.8101  0.2250 -0.7026
16299TIP3   OH270311   0.777   4.166   2.996  0.2628 -0.2073  0.0505
16299TIP3    H170312   0.855   4.149   2.943  1.3891  0.3324  1.4377
16299TIP3    H270313   0.704   4.158   2.936  1.4585  0.2042 -1.5190
16300TIP3   OH270314   3.878   2.895   1.687  0.1429 -0.4793  0.4014
16300TIP3    H170315   3.797   2.944   1.706 -0.7044 -0.8773 -1.9154
16300TIP3    H270316   3.943   2.935   1.744 -0.9017  2.2274 -0.1449
16301TIP3   OH270317   1.220   3.564  12.165 -0.1449  0.2809  0.2578
16301TIP3    H170318   1.294   3.574  12.105 -0.4023  1.6780  0.1314
16301TIP3    H270319   1.162   3.502  12.122  0.8282 -0.6612  0.2514
16302TIP3   OH270320   1.096   2.912   1.608  0.1745  0.3080  0.1638
16302TIP3    H170321   1.115   2.866   1.690 -0.5934 -0.5947 -0.1376
16302TIP3    H270322   1.164   2.883   1.547  0.8731  1.1471  0.5296
16303TIP3   OH270323   5.440   1.701  12.632 -0.0120 -0.2173 -0.0927
16303TIP3    H170324   5.422   1.701  12.726  1.8971  0.0898  0.3261
16303TIP3    H270325   5.502   1.629  12.620  1.6270  1.2183 -0.6604
16304TIP3   OH270326   2.834   4.836  12.481  0.0266  0.1924  0.3185
16304TIP3    H170327   2.819   4.838  12.387  0.6842  2.1461  0.2249
16304TIP3    H270328   2.785   4.759  12.511  0.7900 -1.1690 -1.7492
16305TIP3   OH270329   2.736   2.291  11.590 -0.0788  0.2692  0.8890
16305TIP3    H170330   2.715   2.379  11.621 -1.7291 -0.5168  2.1448
16305TIP3    H270331   2.656   2.240  11.604 -0.1839 -0.7753 -2.5196
16306TIP3   OH270332   4.726   2.181   4.617  0.1680 -0.1676 -0.0345
16306TIP3    H170333   4.659   2.148   4.677 -0.3038 -0.4061 -0.6736
16306TIP3    H270334   4.742   2.271   4.646 -1.1071  0.2156 -0.4049
16307TIP3   OH270335   5.726   6.259  14.846  0.5919 -0.4751 -0.0580
16307TIP3    H170336   5.729   6.321  14.773  2.1440  0.1755  0.5289
16307TIP3    H270337   5.653   6.290  14.901  1.8461  1.3653  0.6530
16308TIP3   OH270338   5.508   5.166   2.424  0.5598 -0.6097  0.0010
16308TIP3    H170339   5.516   5.261   2.431 -0.0059 -0.5614 -0.0143
16308TIP3    H270340   5.486   5.137   2.512 -0.0753 -0.6430 -0.1644
16309TIP3   OH270341   1.260   0.224   5.892 -0.0911  0.4510  0.7102
16309TIP3    H170342   1.199   0.296   5.879 -0.3322  0.0995 -0.1445
16309TIP3    H270343   1.318   0.255   5.962  1.6431  2.7294 -1.5002
16310TIP3   OH270344   4.980   2.651   1.530  0.1757  0.7866  0.4413
16310TIP3    H170345   5.020   2.566   1.510  0.9424  1.1295  0.4849
16310TIP3    H270346   4.918   2.665   1.458  0.4761  0.4648  0.1137
16311TIP3   OH270347   4.936   2.302   0.284 -0.7341 -0.0533  0.1594
16311TIP3    H170348   5.019   2.255   0.273 -0.0986  0.8257  1.0203
16311TIP3    H270349   4.924   2.308   0.379 -2.4271 -1.2415  0.0584
16312TIP3   OH270350   6.746   1.919  11.724  0.2566 -0.2192 -0.2979
16312TIP3    H170351   6.841   1.921  11.714  0.3363  1.7386  0.3960
16312TIP3    H270352   6.719   2.011  11.717 -1.4822 -0.6241  0.4684
16313TIP3   OH270353   1.914   2.955   4.060 -0.4034  0.3683 -0.0850
16313TIP3    H170354   1.888   2.884   4.002 -1.9991 -1.1208  2.2818
16313TIP3    H270355   1.835   3.008   4.071  0.3103  1.5423 -0.4947
16314TIP3   OH270356   2.378   4.776  11.190  0.3890 -0.3012  0.3419
16314TIP3    H170357   2.417   4.693  11.163 -1.4485 -1.1825  0.2179
16314TIP3    H270358   2.320   4.800  11.118  2.4942  2.3081 -0.6502
16315TIP3   OH270359   5.487   3.316   3.549  0.3313  0.1204  0.3300
16315TIP3    H170360   5.411   3.267   3.580 -0.1721  0.0511 -0.9601
16315TIP3    H270361   5.562   3.272   3.588 -0.2535 -0.2252  1.0761
16316TIP3   OH270362   2.746   2.389  13.728  0.0949 -0.1421 -0.6668
16316TIP3    H170363   2.658   2.365  13.697  0.9348 -1.5268 -2.1341
16316TIP3    H270364   2.742   2.378  13.823 -1.7536  1.4080 -0.4979
16317TIP3   OH270365   1.958   2.443  13.289  0.4524  0.0208 -0.9640
16317TIP3    H170366   1.938   2.351  13.274 -1.7621  0.2808  0.0534
16317TIP3    H270367   1.874   2.488  13.276  0.6827  1.4653  1.8785
16318TIP3   OH270368   5.470   0.011   5.817  0.5934  0.5225  0.0635
16318TIP3    H170369   5.456   0.097   5.858  0.5459 -0.0199  1.2180
16318TIP3    H270370   5.538  -0.030   5.870  1.2969  0.1969 -1.0489
16319TIP3   OH270371   3.173   6.593   1.438  0.2329  0.0805 -0.6269
16319TIP3    H170372   3.260   6.554   1.444  0.6221  1.0830  0.8319
16319TIP3    H270373   3.114   6.524   1.469  0.7837  0.1845  0.7259
16320TIP3   OH270374   5.237   3.386  13.679  0.6805  0.1577  0.4562
16320TIP3    H170375   5.178   3.450  13.719 -0.6158 -0.0282 -1.0434
16320TIP3    H270376   5.191   3.358  13.600  2.1688 -1.0764 -0.0156
16321TIP3   OH270377   2.168   4.792   4.878 -0.0611  0.2362 -0.0780
16321TIP3    H170378   2.183   4.726   4.810  2.5355  0.2017  0.4054
16321TIP3    H270379   2.206   4.872   4.843 -0.4556  0.7132  0.5628
16322TIP3   OH270380   0.001   5.999  15.934 -0.2924 -0.1333 -0.6982
16322TIP3    H170381   0.095   6.014  15.928 -0.1594 -0.6453  0.0102
16322TIP3    H270382  -0.020   5.946  15.858  0.2799 -1.3649 -0.0254
16323TIP3   OH270383   4.314   6.042   0.201  0.4422  0.9955  0.1978
16323TIP3    H170384   4.351   6.117   0.246 -0.2189  0.4530  1.7065
16323TIP3    H270385   4.254   6.080   0.136  1.9613  1.8039 -0.7851
16324TIP3   OH270386   6.458   0.859  16.965 -0.9087 -0.3714 -0.0665
16324TIP3    H170387   6.417   0.799  16.903 -1.0854 -0.1570 -0.1593
16324TIP3    H270388   6.458   0.944  16.919 -2.4316  0.1414  0.8163
16325TIP3   OH270389   6.656   6.324   5.538 -0.1726  0.3501  0.5621
16325TIP3    H170390   6.577   6.377   5.531  0.4705  1.2063 -0.5299
16325TIP3    H270391   6.713   6.374   5.597  0.0920  0.4274  0.2395
16326TIP3   OH270392   5.951   1.769   3.887 -0.6270 -0.0069 -0.5165
16326TIP3    H170393   5.857   1.755   3.898 -0.8160  0.9426 -0.8166
16326TIP3    H270394   5.989   1.740   3.969 -1.3883  1.4108  0.3817
16327TIP3   OH270395   4.514   4.486  13.277  0.0679 -0.4392  0.3898
16327TIP3    H170396   4.552   4.414  13.227 -0.3976 -0.0384 -0.5592
16327TIP3    H270397   4.493   4.447  13.362 -0.9665 -1.6567 -0.3806
16328TIP3   OH270398   2.730   1.215  11.142  0.0536 -0.0468  0.2885
16328TIP3    H170399   2.711   1.186  11.232 -0.0733 -0.6449  0.0767
16328TIP3    H270400   2.798   1.155  11.112 -2.6565 -2.5367 -1.3973
16329TIP3   OH270401   2.883   0.713   2.132  0.3371 -0.1016 -0.7465
16329TIP3    H170402   2.827   0.764   2.073  0.8233  0.3777 -0.7995
16329TIP3    H270403   2.824   0.650   2.172 -0.2423  0.3922 -0.8091
16330TIP3   OH270404   4.599   4.122  16.798  0.3127  0.2356 -0.6055
16330TIP3    H170405   4.682   4.153  16.836  0.0911 -1.4747  1.4713
16330TIP3    H270406   4.533   4.179  16.836  0.3812  0.5417 -0.9443
16331TIP3   OH270407   6.031   3.830  12.520  0.4643 -0.0727  0.0203
16331TIP3    H170408   5.993   3.743  12.513 -0.0921  0.2105 -0.4961
16331TIP3    H270409   6.098   3.821  12.588  1.3098 -1.2121 -0.9290
16332TIP3   OH270410   5.748   5.810  15.159 -0.1725  0.0916  0.3168
16332TIP3    H170411   5.692   5.888  15.157 -1.3757 -0.7308  0.4321
16332TIP3    H270412   5.766   5.796  15.252 -0.7772 -0.3146  0.3792
16333TIP3   OH270413   6.498   0.811   2.272  0.0058  0.7258  0.2500
16333TIP3    H170414   6.546   0.823   2.355  1.5217 -0.0387 -0.4792
16333TIP3    H270415   6.564   0.779   2.211 -1.3455  0.1725 -0.9661
16334TIP3   OH270416   1.707   5.993  13.035  0.2070  0.0758  0.1625
16334TIP3    H170417   1.673   5.945  13.111  1.7768  0.5308  1.2081
16334TIP3    H270418   1.648   6.068  13.026 -0.3006 -0.2629  0.5901
16335TIP3   OH270419   3.956   1.578  12.550  0.3192  0.1915  0.1139
16335TIP3    H170420   3.911   1.524  12.484  0.8362 -1.0521  0.7551
16335TIP3    H270421   3.930   1.540  12.634  2.1864 -0.2711  0.5195
16336TIP3   OH270422   0.374   0.427   5.945  0.3849 -0.0718 -0.0908
16336TIP3    H170423   0.383   0.476   6.027  2.2069 -0.1629 -0.1902
16336TIP3    H270424   0.380   0.335   5.971 -3.2131 -0.4031  0.1176
16337TIP3   OH270425   3.012   1.699   2.535  0.0714 -0.2272  0.1885
16337TIP3    H170426   3.018   1.662   2.623 -2.2667  0.9158  0.8933
16337TIP3    H270427   2.963   1.634   2.485  0.4039 -0.3597  0.0320
16338TIP3   OH270428   5.727   4.685  15.498 -0.5530 -1.0754 -0.5718
16338TIP3    H170429   5.737   4.776  15.470  0.8863 -0.0860  2.6735
16338TIP3    H270430   5.760   4.633  15.424  2.3421  1.2173 -1.0688
16339TIP3   OH270431   5.599   0.773  16.630 -0.4709 -0.4153  0.2197
16339TIP3    H170432   5.612   0.744  16.720  0.5241 -2.4010 -0.4812
16339TIP3    H270433   5.626   0.697  16.577  0.8475  1.3436 -1.7887
16340TIP3   OH270434   0.579   6.067   0.452 -0.1032 -0.5239 -0.0197
16340TIP3    H170435   0.568   5.981   0.493 -0.7773 -0.6440 -0.4439
16340TIP3    H270436   0.645   6.053   0.384 -0.5108 -0.8030 -0.3616
16341TIP3   OH270437   0.485   3.971   3.178  0.1157  0.5072  0.0666
16341TIP3    H170438   0.498   3.998   3.086  3.8852  1.4640  0.7161
16341TIP3    H270439   0.413   3.909   3.174  1.7580 -1.5594 -4.0008
16342TIP3   OH270440   6.438   5.126   2.806 -0.5052 -0.0044 -0.2426
16342TIP3    H170441   6.494   5.097   2.878  0.1364  1.2164 -0.2320
16342TIP3    H270442   6.483   5.096   2.727 -0.0681  0.5582 -0.2134
16343TIP3   OH270443   3.902   2.696   5.561  0.0623  0.4725 -0.1834
16343TIP3    H170444   3.843   2.770   5.570 -0.8014 -0.2642  0.2872
16343TIP3    H270445   3.871   2.631   5.624  0.1044 -0.7402 -1.3491
16344TIP3   OH270446   4.641   5.299   2.478  0.2558  0.0378 -0.6334
16344TIP3    H170447   4.633   5.292   2.383 -2.0515  1.1974 -0.5913
16344TIP3    H270448   4.649   5.393   2.494 -0.4314 -0.0585  0.3609
16345TIP3   OH270449   0.284   3.977  15.070 -0.0370  0.1675 -0.6915
16345TIP3    H170450   0.315   4.012  15.153 -1.6995  3.2031 -1.1942
16345TIP3    H270451   0.363   3.958  15.021  0.9922  0.9783  0.5950
16346TIP3   OH270452   4.448   5.740   0.306 -0.0902 -0.1208 -0.1641
16346TIP3    H170453   4.435   5.829   0.338  1.9466 -0.1365  0.9113
16346TIP3    H270454   4.501   5.750   0.227 -0.6377 -0.3571 -0.5703
16347TIP3   OH270455   2.209   0.516  12.327 -0.0827 -0.1776  0.0342
16347TIP3    H170456   2.192   0.579  12.257 -0.5279 -0.4979 -0.1490
16347TIP3    H270457   2.215   0.432  12.283 -1.7720 -0.5789  0.5304
16348TIP3   OH270458   0.724   1.308   0.674  0.5706  0.4808  0.6733
16348TIP3    H170459   0.811   1.269   0.687 -0.0763 -1.3833 -0.2121
16348TIP3    H270460   0.667   1.233   0.654 -1.0698  1.7559  0.3834
16349TIP3   OH270461   3.000   6.061   5.707 -0.1282 -0.1459 -0.3356
16349TIP3    H170462   3.062   6.131   5.727 -0.2477 -0.1401  0.0194
16349TIP3    H270463   3.006   6.050   5.612  0.8083 -0.5202 -0.2344
16350TIP3   OH270464   4.836   4.781  14.953 -0.3810 -0.1745 -0.0585
16350TIP3    H170465   4.895   4.854  14.933 -0.5155 -0.5767 -2.2650
16350TIP3    H270466   4.749   4.812  14.927 -0.9660 -0.0714  1.8931
16351TIP3   OH270467   5.405   0.280  16.833 -0.0330 -0.7936 -0.2630
16351TIP3    H170468   5.465   0.314  16.766  1.5652 -2.4457  0.2568
16351TIP3    H270469   5.454   0.210  16.876 -1.6246 -0.8581  1.5684
16352TIP3   OH270470   4.576   4.521   1.964  0.2383 -0.0578  0.4485
16352TIP3    H170471   4.631   4.591   1.930 -0.3404  0.7273  1.1008
16352TIP3    H270472   4.627   4.441   1.950  2.1488  0.7592  2.2503
16353TIP3   OH270473   4.779   1.970  16.394 -0.3322 -0.0027 -0.0493
16353TIP3    H170474   4.815   2.042  16.342 -2.1677  1.1364  0.1988
16353TIP3    H270475   4.827   1.975  16.477 -0.0033  0.5330 -0.2642
16354TIP3   OH270476   4.002   1.891   2.313 -0.1323  0.2144 -0.3399
16354TIP3    H170477   3.931   1.886   2.376  0.3024 -0.3732  0.1144
16354TIP3    H270478   4.073   1.840   2.352  0.9298  1.6684 -0.2659
16355TIP3   OH270479   2.808   0.504  17.113 -0.4609  0.4591  0.2199
16355TIP3    H170480   2.750   0.434  17.082 -1.4727  0.5212  1.8608
16355TIP3    H270481   2.864   0.462  17.178 -0.2354  0.8999  0.3136
16356TIP3   OH270482   5.087   6.741  15.241 -0.0001 -0.4592  0.7789
16356TIP3    H170483   4.999   6.732  15.277 -0.4277  0.7204  0.0902
16356TIP3    H270484   5.074   6.774  15.152  1.1022 -1.2302  0.3026
16357TIP3   OH270485   1.211   3.247   1.418 -0.1222 -0.2386  0.4646
16357TIP3    H170486   1.267   3.225   1.492 -1.9171  1.1485  2.3358
16357TIP3    H270487   1.244   3.330   1.386 -1.1024  0.6476  1.6547
16358TIP3   OH270488   6.722   4.170   1.717 -0.3734  0.1682  0.0590
16358TIP3    H170489   6.747   4.201   1.804  0.2557  0.1831 -0.1213
16358TIP3    H270490   6.729   4.247   1.661  1.5019 -0.3162 -0.4527
16359TIP3   OH270491   5.137   1.571   6.285  0.2997  0.4220 -0.4986
16359TIP3    H170492   5.143   1.532   6.372 -0.6919 -0.0891 -0.6441
16359TIP3    H270493   5.227   1.571   6.252  0.6584  0.4811  0.4573
16360TIP3   OH270494   0.507   2.368  15.271  0.3334 -0.2159  0.3408
16360TIP3    H170495   0.546   2.454  15.283  0.6535 -0.4159  0.7625
16360TIP3    H270496   0.422   2.374  15.313  0.2927 -0.0621  0.2382
16361TIP3   OH270497   3.967   3.195  12.847  0.0697  0.1870 -0.2733
16361TIP3    H170498   4.025   3.266  12.873  0.2155  0.3404 -1.0025
16361TIP3    H270499   3.893   3.239  12.804 -0.2543 -0.0472  0.0435
16362TIP3   OH270500   6.200   3.171  13.744 -0.3214 -0.2119 -0.1609
16362TIP3    H170501   6.259   3.199  13.673  0.8085 -1.6379  0.1771
16362TIP3    H270502   6.142   3.107  13.702 -1.3495  0.8417 -0.3804
16363TIP3   OH270503   4.843   4.951   1.055  0.7003  0.4247 -0.0788
16363TIP3    H170504   4.774   4.972   0.992  0.6195  1.6956  0.3906
16363TIP3    H270505   4.864   4.859   1.039  0.9652  0.8118 -2.2193
16364TIP3   OH270506   6.516   3.703   4.915  0.2653 -0.0601 -0.3215
16364TIP3    H170507   6.486   3.655   4.838 -1.3228  0.1755  0.1051
16364TIP3    H270508   6.611   3.712   4.903  0.4107 -2.0953 -1.0590
16365TIP3   OH270509   1.788   3.950  16.491 -0.3034  0.9010 -0.1849
16365TIP3    H170510   1.753   3.877  16.441 -1.1902  1.8129 -0.9357
16365TIP3    H270511   1.829   3.909  16.568 -1.3103 -0.3353 -0.2714
16366TIP3   OH270512   6.209   2.416   0.757  0.2046 -0.0532 -0.0851
16366TIP3    H170513   6.195   2.498   0.711  2.2155 -0.5761 -1.7443
16366TIP3    H270514   6.301   2.418   0.784  0.0733 -1.4007  0.5776
16367TIP3   OH270515   5.987   1.821   4.855  0.6373  0.0302  0.6335
16367TIP3    H170516   5.942   1.819   4.771  0.2370 -0.8568  0.8552
16367TIP3    H270517   5.962   1.904   4.894 -1.4999 -0.7601  1.1012
16368TIP3   OH270518   4.704   6.490  17.072  0.4645  0.7428  0.3953
16368TIP3    H170519   4.786   6.440  17.071  0.2577  0.4110 -0.2163
16368TIP3    H270520   4.719   6.564  17.014  1.0060  1.8134  1.8208
16369TIP3   OH270521   0.722   5.594   3.920  0.5409 -1.0020 -0.0346
16369TIP3    H170522   0.683   5.650   3.987  2.0695  1.0149 -0.7234
16369TIP3    H270523   0.697   5.635   3.837  1.6146 -1.3654 -0.5556
16370TIP3   OH270524   0.224   5.166   4.119  0.1601 -0.2847 -0.0380
16370TIP3    H170525   0.279   5.121   4.183 -1.5428 -0.7985  1.1376
16370TIP3    H270526   0.258   5.139   4.034  1.3141 -1.0643  0.6493
16371TIP3   OH270527   0.873   6.254   0.008  0.3380  0.5561  0.4211
16371TIP3    H170528   0.779   6.272   0.015 -0.8350 -4.7585  2.6274
16371TIP3    H270529   0.883   6.216  -0.079  0.1731 -0.0337  0.6575
16372TIP3   OH270530   4.777   2.868  13.583  0.6678  0.3764  0.7062
16372TIP3    H170531   4.766   2.951  13.538  1.3345  0.2736  0.3362
16372TIP3    H270532   4.779   2.891  13.676  0.0497  0.6744  0.6544
16373TIP3   OH270533   2.260   2.456  11.472 -0.4106  0.0055  0.7648
16373TIP3    H170534   2.252   2.463  11.567 -0.2077 -0.2693  0.8046
16373TIP3    H270535   2.268   2.546  11.441 -0.0434  0.0707  1.0489
16374TIP3   OH270536   5.311   5.510  14.123  0.0979 -0.2951  0.5273
16374TIP3    H170537   5.342   5.569  14.054  0.6968 -1.7612 -0.5029
16374TIP3    H270538   5.236   5.556  14.161  0.2758  0.9419 -0.5225
16375TIP3   OH270539   3.199   2.080  12.410  0.3079 -0.2219  0.0353
16375TIP3    H170540   3.153   2.102  12.491  0.6584  2.0755 -0.2950
16375TIP3    H270541   3.255   2.157  12.393  1.3354 -1.2584 -1.6127
16376TIP3   OH270542   4.638   3.545   1.334 -0.3813  0.5720  1.1326
16376TIP3    H170543   4.728   3.574   1.320 -0.4562  1.0040  1.5324
16376TIP3    H270544   4.620   3.568   1.425 -1.4186  1.8735  0.6222
16377TIP3   OH270545   6.050   3.063  16.180 -0.2846 -0.2619 -0.0221
16377TIP3    H170546   6.081   2.997  16.242 -1.3089  0.4023  1.2486
16377TIP3    H270547   5.968   3.027  16.146  0.9655 -1.2872 -2.1654
16378TIP3   OH270548   4.236   6.536   5.940  0.4655 -0.5286  0.4203
16378TIP3    H170549   4.235   6.627   5.971  0.7631 -0.3302 -0.1398
16378TIP3    H270550   4.151   6.501   5.966  0.3317 -0.0766  0.6015
16379TIP3   OH270551   2.870   4.072  13.150 -0.6998  0.6292  0.5575
16379TIP3    H170552   2.932   4.119  13.205  1.1269 -1.5260  0.4903
16379TIP3    H270553   2.895   3.980  13.158 -1.9850 -0.0355 -1.8730
16380TIP3   OH270554   3.224   1.999  11.736 -0.4597 -0.4242 -0.4901
16380TIP3    H170555   3.216   1.904  11.741 -0.8486 -0.4453 -1.2999
16380TIP3    H270556   3.315   2.017  11.756 -0.6423 -0.8672  0.8125
16381TIP3   OH270557   3.080   2.534   5.480  0.6027  0.4134 -0.2534
16381TIP3    H170558   3.174   2.522   5.491  0.6007  1.6870  1.4399
16381TIP3    H270559   3.071   2.622   5.443  0.0988 -0.0552 -1.2882
16382TIP3   OH270560   2.729   6.325   5.636 -0.0146 -0.3412  0.4335
16382TIP3    H170561   2.666   6.326   5.708 -0.3353 -0.2106  0.1491
16382TIP3    H270562   2.681   6.357   5.560  0.5816  0.4189  0.3677
16383TIP3   OH270563   3.105   0.947   4.689  0.7871 -0.2976 -0.4962
16383TIP3    H170564   3.017   0.967   4.657  0.9565 -0.3387 -0.9873
16383TIP3    H270565   3.092   0.877   4.753  0.1001  1.6731  1.6591
16384TIP3   OH270566   5.481   2.537   0.778  1.1345  1.1051 -0.2824
16384TIP3    H170567   5.439   2.510   0.697  0.7681  0.2373  0.1745
16384TIP3    H270568   5.486   2.632   0.773 -0.3213  1.1825 -0.6222
16385TIP3   OH270569   4.405   3.468   5.983  0.1863  0.0877  0.2229
16385TIP3    H170570   4.476   3.408   5.961  1.4733  2.1595 -1.7585
16385TIP3    H270571   4.448   3.551   6.004 -1.5543  0.6825  1.7444
16386TIP3   OH270572   5.671   6.522  14.220  0.3807  0.1422  0.1425
16386TIP3    H170573   5.735   6.585  14.188  1.6804 -1.6011 -0.9246
16386TIP3    H270574   5.595   6.533  14.164  1.4199 -0.6702 -1.5158
16387TIP3   OH270575   3.245   5.233   3.294  0.1331 -0.0362  0.5337
16387TIP3    H170576   3.318   5.222   3.232  0.4085 -0.9742  1.0115
16387TIP3    H270577   3.243   5.328   3.311  1.4541 -0.0190  0.7592
16388TIP3   OH270578   0.615   4.615   0.430 -0.9647 -0.8902 -0.0145
16388TIP3    H170579   0.686   4.551   0.442 -0.4290 -0.7685 -2.1866
16388TIP3    H270580   0.536   4.562   0.421 -0.5778 -1.2528 -1.4258
16389TIP3   OH270581   1.900   0.813  16.412 -0.0725 -0.2762 -0.0282
16389TIP3    H170582   1.866   0.726  16.392 -0.0889 -0.5113  0.9728
16389TIP3    H270583   1.888   0.822  16.506  1.3920  0.1738  0.1336
16390TIP3   OH270584   4.792   5.419   1.884 -0.5421 -0.2263 -0.2535
16390TIP3    H170585   4.814   5.339   1.932 -1.5487 -0.4590 -0.1605
16390TIP3    H270586   4.702   5.438   1.910  0.1760  1.8384  0.9554
16391TIP3   OH270587   6.638   5.624   3.163  0.9341  0.6569 -0.1475
16391TIP3    H170588   6.604   5.534   3.166 -0.4858  1.1443 -0.6548
16391TIP3    H270589   6.643   5.651   3.254 -3.0053  1.5559 -0.0049
16392TIP3   OH270590   6.750   6.184  13.856  0.2439 -0.0344  0.6712
16392TIP3    H170591   6.725   6.114  13.915  0.9931 -1.3843 -0.5427
16392TIP3    H270592   6.817   6.145  13.800 -1.3291  0.7669 -1.9227
16393TIP3   OH270593   1.904   5.678  11.919 -0.0710  0.0053  0.6756
16393TIP3    H170594   1.910   5.643  11.830  2.6285  1.0968  0.3184
16393TIP3    H270595   1.974   5.633  11.967  1.6022  2.6492  0.9372
16394TIP3   OH270596   3.164   3.352  11.118 -0.3398  0.2648  0.1331
16394TIP3    H170597   3.135   3.328  11.029 -0.1885  3.3274 -0.8588
16394TIP3    H270598   3.258   3.336  11.118 -0.3713  0.0620 -0.1782
16395TIP3   OH270599   2.281   6.574   4.852  0.3302 -0.0518 -0.4599
16395TIP3    H170600   2.259   6.667   4.851  0.5354  0.0109 -1.9298
16395TIP3    H270601   2.207   6.532   4.894  0.5874  0.8470  0.9514
16396TIP3   OH270602   4.358   4.440   3.323  0.1779 -0.3624  0.5518
16396TIP3    H170603   4.327   4.524   3.291  2.2589 -0.1794 -1.2002
16396TIP3    H270604   4.410   4.462   3.401 -3.0514 -0.5944  2.9722
16397TIP3   OH270605   5.012   2.036   4.221  1.1104 -0.6390 -0.0428
16397TIP3    H170606   4.921   2.031   4.249  0.6767  1.2705 -0.9670
16397TIP3    H270607   5.040   1.945   4.215 -0.9657 -1.2961 -0.4996
16398TIP3   OH270608   1.796   2.475  11.244  0.3551 -0.5959  0.6868
16398TIP3    H170609   1.838   2.539  11.185 -2.5668  1.1144  0.2556
16398TIP3    H270610   1.788   2.396  11.191  0.6094 -0.0979 -0.1233
16399TIP3   OH270611   4.830   2.682   5.696  0.7592 -0.3906  0.0686
16399TIP3    H170612   4.879   2.672   5.778  2.0060  2.3095 -0.2399
16399TIP3    H270613   4.740   2.700   5.725  1.3409  1.3508  0.9499
16400TIP3   OH270614   4.348   4.554   4.168 -0.4212 -0.2979  0.1080
16400TIP3    H170615   4.438   4.581   4.189 -0.2467  0.1226 -1.0666
16400TIP3    H270616   4.321   4.500   4.242  1.0719 -1.0423  0.1469
16401TIP3   OH270617   4.230   6.315   4.092 -0.2652 -0.1516  0.2078
16401TIP3    H170618   4.288   6.244   4.065  0.0547 -0.8406  2.4712
16401TIP3    H270619   4.145   6.292   4.053  0.4837 -0.1747 -1.5028
16402TIP3   OH270620   3.960   4.989   2.879 -0.0140  0.1897  0.0831
16402TIP3    H170621   4.018   5.021   2.948 -0.2730  0.0581  0.3662
16402TIP3    H270622   3.880   5.040   2.890 -0.8974 -1.3472  1.3189
16403TIP3   OH270623   1.776   4.806  16.483  0.2258  0.0005 -0.3586
16403TIP3    H170624   1.769   4.725  16.533 -5.0926 -0.8371 -1.8663
16403TIP3    H270625   1.775   4.875  16.550 -0.9237 -1.1466  0.8754
16404TIP3   OH270626   3.630   2.432   2.251  0.1251 -0.0198  0.4701
16404TIP3    H170627   3.627   2.407   2.158  0.9942 -1.3957  0.7823
16404TIP3    H270628   3.590   2.519   2.253  1.3724  0.6778 -1.4056
16405TIP3   OH270629   0.703   0.607   1.445 -0.3960 -0.3010 -0.4218
16405TIP3    H170630   0.728   0.688   1.489 -0.9683 -0.4287  0.1467
16405TIP3    H270631   0.701   0.631   1.352  1.3648 -0.1768 -0.4656
16406TIP3   OH270632   3.566   1.194  12.087  0.5143  0.2603 -0.3381
16406TIP3    H170633   3.540   1.282  12.061 -0.3040 -0.2516 -1.3230
16406TIP3    H270634   3.662   1.197  12.091  0.5470  0.9165 -1.4195
16407TIP3   OH270635   0.942   3.570  16.050 -0.3693 -0.3646 -0.4188
16407TIP3    H170636   0.923   3.539  16.139 -1.0681 -3.4836 -1.5038
16407TIP3    H270637   1.037   3.574  16.046 -0.2759 -1.4725  0.1515
16408TIP3   OH270638   4.110   3.790  12.084  0.0534 -0.5989 -0.3306
16408TIP3    H170639   4.181   3.726  12.077 -1.3713 -2.0679 -3.1053
16408TIP3    H270640   4.131   3.857  12.018 -1.5046 -1.5833 -1.9415
16409TIP3   OH270641   3.639   0.403   5.925  0.3410 -0.0427  0.9525
16409TIP3    H170642   3.620   0.383   5.834  0.9040  1.4122  0.4795
16409TIP3    H270643   3.723   0.361   5.942 -1.5101 -3.7563  2.0932
16410TIP3   OH270644   4.360   6.044   4.073 -0.1357  0.4990  0.1971
16410TIP3    H170645   4.424   6.114   4.081 -0.2328  0.7644 -1.1977
16410TIP3    H270646   4.366   6.015   3.982 -0.8878 -0.5430  0.4556
16411TIP3   OH270647   2.867   5.376  15.643  0.0301 -0.2218 -0.4038
16411TIP3    H170648   2.876   5.429  15.723 -0.0889  0.5751 -0.9131
16411TIP3    H270649   2.784   5.329  15.655 -1.2084  1.7005 -1.0899
16412TIP3   OH270650   3.966   5.464  12.317 -0.2550  1.0500 -0.0577
16412TIP3    H170651   4.008   5.395  12.267 -2.1120  1.7179 -2.7425
16412TIP3    H270652   4.009   5.544  12.289 -1.6577  1.4846 -1.0902
16413TIP3   OH270653   4.506   5.590  13.011 -0.0670 -0.1087  0.1657
16413TIP3    H170654   4.418   5.554  13.025 -0.8422  1.6130  0.0046
16413TIP3    H270655   4.513   5.661  13.074  0.7283  0.5720 -0.6540
16414TIP3   OH270656   3.452   1.503   2.107 -0.4004  0.1429 -0.1708
16414TIP3    H170657   3.462   1.580   2.162 -0.7913 -0.4928  0.8329
16414TIP3    H270658   3.541   1.468   2.097 -0.3099  0.3433 -0.0584
16415TIP3   OH270659   6.221   2.253   1.058 -0.0897  0.4339  0.2777
16415TIP3    H170660   6.143   2.283   1.013 -0.1561  1.4953  1.0513
16415TIP3    H270661   6.293   2.279   1.001 -0.2193  0.9870  0.3596
16416TIP3   OH270662   0.736   6.189   4.455  0.3693  0.8321 -0.0466
16416TIP3    H170663   0.689   6.270   4.436  1.5241  1.4564 -0.3004
16416TIP3    H270664   0.818   6.217   4.494  1.5799 -0.1261 -1.7857
16417TIP3   OH270665   5.031   3.214  10.828  0.6605  0.2049 -0.0866
16417TIP3    H170666   4.936   3.217  10.823  0.6259 -0.4702  0.0172
16417TIP3    H270667   5.049   3.142  10.890  1.2095  1.4393  1.2430
16418TIP3   OH270668   1.061   3.017   4.329 -0.2553 -0.4376 -0.4312
16418TIP3    H170669   1.130   2.951   4.337 -0.2047 -0.1428  2.4080
16418TIP3    H270670   1.103   3.088   4.279  1.1053 -0.7839  0.1578
16419TIP3   OH270671   6.168   4.832   4.814  0.0228 -0.0850  0.1972
16419TIP3    H170672   6.249   4.799   4.775 -0.6973 -1.7690  0.0577
16419TIP3    H270673   6.197   4.903   4.872  1.5101 -0.2027 -0.3504
16420TIP3   OH270674   6.111   6.550  12.211  0.3842  0.1300  0.7409
16420TIP3    H170675   6.089   6.638  12.241  1.6501 -0.1151  2.5885
16420TIP3    H270676   6.053   6.534  12.137  0.1459  2.5074  0.3513
16421TIP3   OH270677   0.835   0.220   4.639  0.3263 -0.2555  1.1225
16421TIP3    H170678   0.762   0.165   4.610  0.1073  0.8706 -0.5980
16421TIP3    H270679   0.912   0.163   4.633  0.2605 -0.1828 -1.5935
16422TIP3   OH270680   3.437   5.816   1.632  0.0424 -0.0940  0.4533
16422TIP3    H170681   3.456   5.790   1.541 -1.8802  0.4720 -0.1587
16422TIP3    H270682   3.491   5.894   1.646  2.1150 -1.4783  0.6371
16423TIP3   OH270683   5.097   3.609   2.265  0.0121 -0.1929 -0.2829
16423TIP3    H170684   5.040   3.641   2.335  1.4469  0.1565  0.7740
16423TIP3    H270685   5.096   3.513   2.276 -0.0529 -0.1643 -0.0180
16424TIP3   OH270686   4.894   4.038   3.101  0.0524 -0.5134  0.4721
16424TIP3    H170687   4.820   3.978   3.091  0.4624 -0.8946 -0.3975
16424TIP3    H270688   4.969   3.981   3.119  0.7282 -0.4347 -1.7545
16425TIP3   OH270689   1.231   5.989   2.784 -0.0585  0.1410 -0.2186
16425TIP3    H170690   1.267   5.950   2.704  0.4862  0.5783 -0.1961
16425TIP3    H270691   1.214   6.081   2.761 -1.9210 -0.2239 -0.4582
16426TIP3   OH270692   5.194   1.498   2.932  0.1030  0.5459 -0.0123
16426TIP3    H170693   5.202   1.526   3.023  0.8858  1.9731 -0.4941
16426TIP3    H270694   5.099   1.499   2.916 -0.1255 -0.7749  1.0750
16427TIP3   OH270695   6.709   3.983  15.986 -0.1800 -0.4962  0.1903
16427TIP3    H170696   6.693   3.888  15.989  0.4761 -0.6806 -1.2147
16427TIP3    H270697   6.623   4.021  15.964 -0.3189 -0.8088  0.1865
16428TIP3   OH270698   3.820   2.710  13.655  0.7298  0.0917 -0.0641
16428TIP3    H170699   3.742   2.757  13.626  0.3815 -0.8300 -0.6729
16428TIP3    H270700   3.892   2.749  13.605  0.3558 -0.4010 -1.0157
16429TIP3   OH270701   2.667   0.415   2.477  0.7243 -0.2321  0.1469
16429TIP3    H170702   2.695   0.495   2.522  3.6182 -1.1974  0.2482
16429TIP3    H270703   2.636   0.358   2.548 -1.4719  0.7641  0.0603
16430TIP3   OH270704   0.212   1.063   3.614  0.2911  0.0544  0.1114
16430TIP3    H170705   0.284   1.122   3.632 -0.0697  1.5072 -2.6245
16430TIP3    H270706   0.135   1.106   3.651  0.3755  0.0866  0.2477
16431TIP3   OH270707   2.552   3.297  15.122  0.1478 -0.4494 -0.0805
16431TIP3    H170708   2.592   3.307  15.208  0.5184  1.9976 -0.4476
16431TIP3    H270709   2.626   3.285  15.062 -0.0057 -0.7023 -0.2206
16432TIP3   OH270710   1.357   4.005   3.137 -0.3931 -0.0532 -0.0069
16432TIP3    H170711   1.368   4.087   3.088 -0.7648  0.7731  1.2316
16432TIP3    H270712   1.266   3.981   3.123  0.2273 -1.4418 -2.0845
16433TIP3   OH270713   6.051   3.331   5.383 -0.1951  0.4480  0.4952
16433TIP3    H170714   6.022   3.240   5.389  0.9947 -0.1220 -1.4558
16433TIP3    H270715   6.095   3.337   5.298  1.0740  2.4673  1.2083
16434TIP3   OH270716   4.540   4.871  12.182  0.0447  0.0658  0.0612
16434TIP3    H170717   4.569   4.953  12.222  0.1420  0.3423 -0.5737
16434TIP3    H270718   4.614   4.844  12.128 -0.2688 -0.0705 -0.2978
16435TIP3   OH270719   2.729   4.959  12.734  1.2706  0.2314  0.0525
16435TIP3    H170720   2.667   5.026  12.708  0.4610 -0.3191  0.5186
16435TIP3    H270721   2.771   4.932  12.652  2.4260  2.0567 -0.0164
16436TIP3   OH270722   2.713   1.917   2.107  0.4344  0.4529  0.2041
16436TIP3    H170723   2.734   1.841   2.053  1.0828  0.7565  0.0258
16436TIP3    H270724   2.752   1.898   2.192  1.5328  1.0541 -0.1517
16437TIP3   OH270725   5.896   3.651  11.585  0.2540 -0.0797 -0.3352
16437TIP3    H170726   5.878   3.733  11.631  0.5535 -0.1170 -0.1463
16437TIP3    H270727   5.917   3.588  11.655 -0.6058 -0.4916 -0.4300
16438TIP3   OH270728   5.325   4.699  14.157 -0.0077  0.6550 -0.8276
16438TIP3    H170729   5.390   4.644  14.201 -0.8996 -0.5720 -0.9894
16438TIP3    H270730   5.377   4.757  14.102  1.0276  0.9255  0.3977
16439TIP3   OH270731   3.194   2.867  13.266 -0.4045  0.0450  0.4773
16439TIP3    H170732   3.245   2.904  13.337  2.7082 -2.8929  0.0157
16439TIP3    H270733   3.251   2.873  13.189 -1.9361 -0.7179 -0.7988
16440TIP3   OH270734   2.861   5.857  15.832 -0.2763  0.0476 -0.3500
16440TIP3    H170735   2.798   5.832  15.899 -0.5239 -1.0128 -0.9594
16440TIP3    H270736   2.859   5.953  15.833 -2.2688  0.0586 -0.6790
16441TIP3   OH270737   3.472   4.837  11.711 -0.5549 -0.1141 -0.3756
16441TIP3    H170738   3.451   4.927  11.687 -0.2941  0.3470  0.9998
16441TIP3    H270739   3.476   4.839  11.807 -1.0903 -1.7125 -0.2969
16442TIP3   OH270740   5.486   6.322   3.311 -0.1519  0.6843 -0.3855
16442TIP3    H170741   5.404   6.350   3.350  1.1168  1.2528  2.0454
16442TIP3    H270742   5.469   6.233   3.279 -1.3201  0.1960  1.4497
16443TIP3   OH270743   6.014   4.099   5.924  0.3790  0.2072  0.7024
16443TIP3    H170744   5.967   4.094   6.007 -3.5900  1.8659 -1.1936
16443TIP3    H270745   5.983   4.025   5.873  1.8134 -0.0864  0.1926
16444TIP3   OH270746   1.503   5.512   0.589  0.1651  0.4715  0.4607
16444TIP3    H170747   1.496   5.591   0.643  1.1314 -0.8391  2.6310
16444TIP3    H270748   1.554   5.539   0.513 -0.3261  2.1268  0.6807
16445TIP3   OH270749   0.929   0.408   4.483 -0.2255  0.3373 -0.0629
16445TIP3    H170750   1.024   0.403   4.487 -0.1767  1.7165  2.4698
16445TIP3    H270751   0.898   0.334   4.534 -0.4884  0.4584 -0.0432
16446TIP3   OH270752   1.828   2.761  15.763 -0.8107  0.0779 -0.5367
16446TIP3    H170753   1.788   2.797  15.842 -1.4605  0.1666 -0.8938
16446TIP3    H270754   1.825   2.666  15.777 -0.3454  0.1119 -0.1856
16447TIP3   OH270755   6.506   0.847  12.753  0.1143 -0.2612  0.4979
16447TIP3    H170756   6.545   0.905  12.688 -1.3259  0.3643  0.1581
16447TIP3    H270757   6.549   0.763  12.739  2.5055  0.7585  1.2325
16448TIP3   OH270758   4.251   1.484   3.629 -0.2208  0.2182  0.1098
16448TIP3    H170759   4.245   1.525   3.543  0.8088  1.6660  0.6871
16448TIP3    H270760   4.345   1.470   3.643 -0.3192  0.5241  1.2169
16449TIP3   OH270761   0.267   5.479   0.894 -0.1027 -0.1090  0.1396
16449TIP3    H170762   0.253   5.571   0.872  3.7190  0.5286 -0.5087
16449TIP3    H270763   0.260   5.434   0.810 -1.0108 -0.2498  0.2908
16450TIP3   OH270764   0.585   4.697  15.463 -0.9174  0.0411 -0.0410
16450TIP3    H170765   0.660   4.754  15.447 -1.4701  0.6431 -0.5560
16450TIP3    H270766   0.574   4.647  15.383 -1.2174  0.1413 -0.0664
16451TIP3   OH270767   5.925   0.701  12.560 -0.5511 -0.9266 -0.2153
16451TIP3    H170768   5.940   0.635  12.492  2.1669 -0.8549  0.2315
16451TIP3    H270769   5.922   0.651  12.642  0.4068 -0.6161  0.0146
16452TIP3   OH270770   3.253   1.848  12.281 -0.0175 -0.3298 -0.0843
16452TIP3    H170771   3.329   1.875  12.230 -0.7808  0.7582 -0.6868
16452TIP3    H270772   3.238   1.920  12.341 -1.0072 -0.1929 -0.4749
16453TIP3   OH270773   0.958   3.251   2.923 -0.2960 -0.1031  0.0806
16453TIP3    H170774   1.047   3.242   2.889 -0.4270 -0.8563 -0.0752
16453TIP3    H270775   0.963   3.324   2.985  0.2647  0.3409 -0.4717
16454TIP3   OH270776   4.663   0.132  11.484  0.3534 -0.3104 -0.0352
16454TIP3    H170777   4.570   0.152  11.478  0.3465 -0.7812 -2.4243
16454TIP3    H270778   4.667   0.050  11.533 -0.0789  1.7270  3.8564
16455TIP3   OH270779   2.799   0.088  15.188  0.5717 -0.8821  0.5286
16455TIP3    H170780   2.709   0.121  15.181  0.6260 -0.9705 -0.8439
16455TIP3    H270781   2.845   0.127  15.113  2.0492  0.2374  1.9597
16456TIP3   OH270782   0.140   4.760   4.783 -0.1782  0.2440  0.2390
16456TIP3    H170783   0.173   4.680   4.824 -1.1789  0.1247  0.8523
16456TIP3    H270784   0.060   4.732   4.738 -0.4253  0.8514  0.2880
16457TIP3   OH270785   3.878   1.610   1.061  0.3694 -0.0162  0.4732
16457TIP3    H170786   3.938   1.583   0.992  2.7038  0.4957  2.1749
16457TIP3    H270787   3.892   1.704   1.070 -0.1637 -0.0077  1.3781
16458TIP3   OH270788   5.136   0.743   2.776  0.1697 -0.5397 -0.1031
16458TIP3    H170789   5.118   0.832   2.744 -1.1546 -0.6554  0.2921
16458TIP3    H270790   5.182   0.701   2.703  1.4446  0.6572 -0.0477
16459TIP3   OH270791   0.063   4.629  11.142 -0.1014  0.5675 -0.5496
16459TIP3    H170792   0.088   4.681  11.067  2.4243  1.5432  0.8385
16459TIP3    H270793   0.043   4.693  11.211 -1.6453 -0.2955 -0.1441
16460TIP3   OH270794   1.665   4.178  15.703 -0.3149  0.1109  0.6382
16460TIP3    H170795   1.581   4.132  15.704 -1.4188  1.8085 -2.3675
16460TIP3    H270796   1.644   4.269  15.722  1.2043  0.2498  1.9193
16461TIP3   OH270797   4.526   4.631  15.534 -0.1536 -0.2010 -0.4419
16461TIP3    H170798   4.598   4.621  15.595 -1.6997  0.7694  1.6666
16461TIP3    H270799   4.528   4.551  15.481  1.8733 -0.5938  0.1602
16462TIP3   OH270800   6.101   4.331  13.092  0.4410 -0.2968 -0.4566
16462TIP3    H170801   6.018   4.372  13.115  0.6039 -0.4168  0.3620
16462TIP3    H270802   6.107   4.255  13.149  1.5455  0.2329  0.1637
16463TIP3   OH270803   0.224   2.986   3.058 -0.3581  0.1396 -0.0958
16463TIP3    H170804   0.216   3.072   3.099 -1.6481  0.0425 -0.1035
16463TIP3    H270805   0.158   2.932   3.103 -0.9351 -0.3022 -1.4375
16464TIP3   OH270806   6.213   1.092  10.646 -0.4171  0.0199  0.2995
16464TIP3    H170807   6.265   1.165  10.681  0.7478 -0.1045 -1.0954
16464TIP3    H270808   6.261   1.014  10.671 -0.1442 -0.1195 -0.6303
16465TIP3   OH270809   2.523   0.252  15.635  0.6224  0.1988 -0.1826
16465TIP3    H170810   2.598   0.274  15.690  1.4068 -1.7329 -0.4115
16465TIP3    H270811   2.544   0.166  15.598 -1.0061  0.3151 -1.5123
16466TIP3   OH270812   1.072   4.342   4.083 -0.5627  0.1136 -0.1130
16466TIP3    H170813   1.118   4.426   4.085 -1.5382  0.6916 -1.0101
16466TIP3    H270814   0.983   4.364   4.055 -0.1430 -1.5037 -3.0498
16467TIP3   OH270815   0.537   4.555  12.217 -0.5737  0.2208 -0.2413
16467TIP3    H170816   0.626   4.527  12.239 -1.4077 -1.1046  1.7620
16467TIP3    H270817   0.525   4.529  12.126  1.2909  1.0396 -0.7606
16468TIP3   OH270818   6.355   0.979   3.442 -0.6069  0.0956  0.8022
16468TIP3    H170819   6.275   1.030   3.429 -0.6260 -0.3759 -1.2694
16468TIP3    H270820   6.422   1.029   3.395  0.1398  0.0396  1.7914
16469TIP3   OH270821   2.851   5.652  13.027 -0.4241 -0.0600  0.6885
16469TIP3    H170822   2.838   5.558  13.039  1.9859 -0.4540  0.8364
16469TIP3    H270823   2.888   5.661  12.939 -1.6760  0.8958  0.2321
16470TIP3   OH270824   3.435   0.495  11.993  0.0790 -0.0115 -0.1101
16470TIP3    H170825   3.377   0.419  11.991  2.5515 -2.0703  0.5338
16470TIP3    H270826   3.410   0.547  11.917  0.6254 -3.3851 -2.8254
16471TIP3   OH270827   1.392   5.613   4.080 -0.2921 -0.1727  1.0824
16471TIP3    H170828   1.447   5.612   4.001  0.3709 -0.3199  1.5362
16471TIP3    H270829   1.327   5.680   4.063 -0.1095 -0.1525  0.4329
16472TIP3   OH270830   4.896   3.197   2.611 -0.3447  0.2739  0.0585
16472TIP3    H170831   4.839   3.120   2.611  0.7659 -0.5785 -0.6018
16472TIP3    H270832   4.984   3.161   2.599  0.5738  1.4107  2.6177
16473TIP3   OH270833   0.971   2.305   3.530  0.0585  0.0366 -0.0282
16473TIP3    H170834   1.040   2.276   3.590  0.5760 -0.1196 -0.6842
16473TIP3    H270835   0.955   2.396   3.555  0.5786  0.1073  0.0697
16474TIP3   OH270836   5.119   2.987   3.465  0.1993  0.6507  0.5497
16474TIP3    H170837   5.098   2.916   3.526  1.1403  0.3531  0.5443
16474TIP3    H270838   5.203   2.962   3.427  0.1681  1.3915 -0.0362
16475TIP3   OH270839   3.930   6.050  15.539 -0.2879  0.1130 -0.4522
16475TIP3    H170840   3.841   6.055  15.573 -0.0602  2.1629 -0.0393
16475TIP3    H270841   3.985   6.085  15.609  1.1557 -2.9816  0.1244
16476TIP3   OH270842   0.324   6.094  13.985  0.1484  0.5607  0.3910
16476TIP3    H170843   0.298   6.009  14.020 -3.1146 -0.2267 -3.1813
16476TIP3    H270844   0.419   6.089  13.978  0.1928 -2.2271  1.6121
16477TIP3   OH270845   1.684   3.860  11.888 -0.0948 -0.0363  0.1886
16477TIP3    H170846   1.739   3.801  11.837  0.4090 -0.8233  1.5758
16477TIP3    H270847   1.666   3.812  11.969 -1.6219  0.7967  0.3773
16478TIP3   OH270848   5.381   0.738   1.066 -0.3365  0.5774  0.0099
16478TIP3    H170849   5.379   0.669   1.132  1.2624  1.3288  0.9101
16478TIP3    H270850   5.357   0.694   0.984 -0.2020 -0.8551  0.7107
16479TIP3   OH270851   3.759   4.201   3.833  0.3163 -0.7862 -0.0173
16479TIP3    H170852   3.727   4.291   3.845 -0.1203 -1.0405  0.7307
16479TIP3    H270853   3.855   4.211   3.832  0.3166 -0.4445  1.3071
16480TIP3   OH270854   2.504   5.104  14.124 -0.3162 -0.1567 -0.0217
16480TIP3    H170855   2.458   5.025  14.151 -1.9018  0.4656 -0.7590
16480TIP3    H270856   2.471   5.121  14.036  0.2825  1.1151 -0.0144
16481TIP3   OH270857   4.044   5.772  15.668  0.3215  0.4951  0.5752
16481TIP3    H170858   3.952   5.753  15.683  0.6658 -0.6089  1.5142
16481TIP3    H270859   4.059   5.854  15.714  0.0107  0.1834  1.2481
16482TIP3   OH270860   1.977   2.258   0.847  0.7426  0.3903 -0.6151
16482TIP3    H170861   1.905   2.279   0.788  1.1381  0.7580 -0.9743
16482TIP3    H270862   1.968   2.320   0.919 -0.3174 -0.6836  0.2251
16483TIP3   OH270863   5.969   3.497  17.332  0.0187 -0.2840  0.2372
16483TIP3    H170864   5.937   3.571  17.383  2.6322  1.9588 -1.1012
16483TIP3    H270865   6.059   3.521  17.309 -0.2134 -2.1766 -3.3938
16484TIP3   OH270866   5.979   6.510  14.695 -0.4497 -0.1948  0.4246
16484TIP3    H170867   5.912   6.558  14.743 -1.0776 -1.9367  1.3754
16484TIP3    H270868   5.932   6.466  14.625  0.1212  0.5433 -0.4449
16485TIP3   OH270869   1.334   5.289  16.676 -0.2195  0.5072 -0.0401
16485TIP3    H170870   1.318   5.316  16.585  0.0081 -0.1848 -0.2916
16485TIP3    H270871   1.388   5.359  16.713 -0.9548  1.1727 -0.2025
16486TIP3   OH270872   0.831   3.456   2.760 -0.6862  0.4601 -0.4324
16486TIP3    H170873   0.903   3.448   2.698 -0.7388  1.1595 -0.5911
16486TIP3    H270874   0.839   3.379   2.816 -0.0870  0.3013 -0.7269
16487TIP3   OH270875   6.670   3.460   3.272 -0.1490  0.3188  0.1232
16487TIP3    H170876   6.591   3.475   3.325 -0.4621 -0.6093 -0.0708
16487TIP3    H270877   6.658   3.373   3.235  0.1791  0.8488 -1.2796
16488TIP3   OH270878   1.741   5.662  14.002  0.0155 -0.0322 -0.2648
16488TIP3    H170879   1.833   5.642  14.016 -0.1569  0.0023  1.0802
16488TIP3    H270880   1.713   5.605  13.931 -0.1236 -3.6502  2.4517
16489TIP3   OH270881   6.556   4.012   2.754 -0.3696 -0.6146  0.3211
16489TIP3    H170882   6.473   4.060   2.756 -1.5626 -2.5110 -0.1679
16489TIP3    H270883   6.532   3.922   2.777  1.2467 -1.6071 -1.5439
16490TIP3   OH270884   3.871   5.859  17.200 -0.1420  0.2794 -0.5396
16490TIP3    H170885   3.825   5.938  17.227  2.0328  1.3603  0.2654
16490TIP3    H270886   3.896   5.875  17.109  1.3677  1.1262 -0.0151
16491TIP3   OH270887   6.276   0.769  15.183  0.2145 -0.2593 -0.5750
16491TIP3    H170888   6.219   0.785  15.108  1.2318  0.7907 -1.1616
16491TIP3    H270889   6.223   0.716  15.243 -1.3855  0.7388 -1.0536
16492TIP3   OH270890   5.208   4.743   5.150 -0.5386  0.0667 -0.6405
16492TIP3    H170891   5.242   4.655   5.134 -0.0551  0.2409 -0.6083
16492TIP3    H270892   5.157   4.764   5.072  0.4940  0.2902 -1.2871
16493TIP3   OH270893   6.353   3.290  13.266  0.2155  0.5818  0.8387
16493TIP3    H170894   6.446   3.310  13.278  0.4694  0.8572 -1.1071
16493TIP3    H270895   6.351   3.227  13.194 -1.1063  0.6177  0.8171
16494TIP3   OH270896   5.088   2.265  17.195 -0.3376  0.2341 -0.0822
16494TIP3    H170897   5.017   2.277  17.132 -0.2552  2.0386  0.1311
16494TIP3    H270898   5.052   2.295  17.279  0.1291 -0.4706  0.3885
16495TIP3   OH270899   1.096   5.636   4.935 -0.2368 -0.1032  0.0418
16495TIP3    H170900   1.098   5.690   4.856  0.2638 -2.5509 -1.7241
16495TIP3    H270901   1.175   5.660   4.983 -0.2097  0.9533 -0.4993
16496TIP3   OH270902   6.130   4.734   6.013  0.1878 -0.0732 -0.3304
16496TIP3    H170903   6.223   4.753   6.029  0.1600 -0.2091  0.0010
16496TIP3    H270904   6.085   4.813   6.042  0.2459  0.2629 -1.1241
16497TIP3   OH270905   1.476   0.511  15.253 -0.0373  0.2883 -0.4135
16497TIP3    H170906   1.563   0.549  15.240 -0.2764  1.3818  0.8984
16497TIP3    H270907   1.422   0.553  15.187  0.1392  0.7030 -0.3009
16498TIP3   OH270908   5.740   3.913  12.535  0.2501  0.2707  0.1506
16498TIP3    H170909   5.705   3.859  12.464 -0.1333  2.8877 -1.7855
16498TIP3    H270910   5.834   3.896  12.534  0.5776  1.8351 -2.5056
16499TIP3   OH270911   2.927   4.179   4.275  0.6463  0.0972  0.1500
16499TIP3    H170912   2.995   4.164   4.341 -0.2875 -1.9653  0.7421
16499TIP3    H270913   2.860   4.229   4.322  1.0495  0.7773  0.0177
16500TIP3   OH270914   3.855   3.051   0.061  0.4555 -0.0309 -0.0347
16500TIP3    H170915   3.949   3.053   0.049  0.4964 -2.5224 -0.8085
16500TIP3    H270916   3.842   3.058   0.155  1.5881 -1.7949  0.2928
16501TIP3   OH270917   6.337   1.885   1.268  0.1844  0.4436  0.4609
16501TIP3    H170918   6.285   1.915   1.194 -0.7945 -2.4908 -0.1853
16501TIP3    H270919   6.299   1.929   1.344 -0.6311  1.3602 -0.4528
16502TIP3   OH270920   4.133   2.796  14.997  0.0960 -0.0439 -0.1145
16502TIP3    H170921   4.131   2.755  14.911 -1.6082  0.0453 -0.1636
16502TIP3    H270922   4.146   2.724  15.059  2.7038  0.0467 -0.4791
16503TIP3   OH270923   0.883   6.019  15.435 -0.0358  0.2245  0.4593
16503TIP3    H170924   0.802   6.060  15.405  0.5394  1.0237 -0.0532
16503TIP3    H270925   0.952   6.082  15.412  1.2652 -2.1398 -2.9295
16504TIP3   OH270926   5.370   3.606   1.332 -0.4102 -0.3138  0.2259
16504TIP3    H170927   5.412   3.567   1.409 -0.2121 -0.8953 -0.1732
16504TIP3    H270928   5.405   3.695   1.328  2.8124 -1.5304 -1.5667
16505TIP3   OH270929   0.126   0.185  15.978 -0.3799 -0.5501 -0.1084
16505TIP3    H170930   0.202   0.233  15.947 -0.0230 -0.9463  0.1347
16505TIP3    H270931   0.137   0.097  15.942 -0.7453 -0.6005 -0.1036
16506TIP3   OH270932   3.262   0.558   5.065 -0.2455  0.4853  0.0157
16506TIP3    H170933   3.226   0.470   5.077 -2.6771  1.5192  0.8445
16506TIP3    H270934   3.352   0.552   5.097 -1.3356 -0.9752  3.1174
16507TIP3   OH270935   3.486   0.993   4.823 -0.2614  0.4006  0.0598
16507TIP3    H170936   3.514   0.910   4.862  0.3971 -0.2414 -1.6763
16507TIP3    H270937   3.555   1.055   4.846 -0.4570  0.3277  0.8646
16508TIP3   OH270938   2.535   2.136   5.527  0.2456  0.7119  0.3394
16508TIP3    H170939   2.603   2.075   5.555 -0.6460 -1.6403 -2.0800
16508TIP3    H270940   2.582   2.208   5.485  1.3551 -0.6757 -0.9338
16509TIP3   OH270941   4.573   1.115   1.749 -0.0772 -0.1950  0.0196
16509TIP3    H170942   4.533   1.105   1.836  0.5227 -2.2734  0.1229
16509TIP3    H270943   4.621   1.197   1.754  1.4048 -1.0851  2.3274
16510TIP3   OH270944   1.573   5.341   3.876  0.6019 -0.2058  0.1575
16510TIP3    H170945   1.607   5.431   3.882  0.3485 -0.1161  0.2469
16510TIP3    H270946   1.572   5.310   3.966  0.7955 -0.3402  0.1150
16511TIP3   OH270947   1.460   4.948   5.980  0.5961 -0.2859 -0.0556
16511TIP3    H170948   1.534   4.995   6.019 -1.0838  3.3993 -0.9255
16511TIP3    H270949   1.458   4.977   5.890 -1.7058 -0.6009 -0.1508
16512TIP3   OH270950   2.441   3.036  16.704 -0.3151  0.0108  0.0479
16512TIP3    H170951   2.491   3.051  16.785  1.0652 -0.5980 -0.6627
16512TIP3    H270952   2.487   2.965  16.660 -1.5400 -0.2377 -0.8942
16513TIP3   OH270953   6.452   3.066  14.925 -0.2473  0.3422  0.0733
16513TIP3    H170954   6.440   2.971  14.928 -1.2940  0.4099 -1.1450
16513TIP3    H270955   6.385   3.099  14.985  0.2460  0.3106  0.6475
16514TIP3   OH270956   3.002   6.548   2.624 -0.3189 -0.3944 -0.0260
16514TIP3    H170957   3.062   6.481   2.654 -1.8382 -1.2348  1.3133
16514TIP3    H270958   2.923   6.500   2.598 -0.6488  0.7005 -1.1671
16515TIP3   OH270959   4.440   3.086   1.717 -0.4886  0.0522  0.0990
16515TIP3    H170960   4.390   3.131   1.786 -0.7550  0.9954 -0.6758
16515TIP3    H270961   4.449   2.996   1.749 -0.1084  0.5897  1.6186
16516TIP3   OH270962   2.839   0.377  16.766  0.2571  0.0933  0.4365
16516TIP3    H170963   2.792   0.458  16.744  0.4190  0.5163  1.5744
16516TIP3    H270964   2.773   0.322  16.809  0.0630 -0.5231 -0.6313
16517TIP3   OH270965   4.387   0.164  11.478  0.1502 -0.3202  0.5628
16517TIP3    H170966   4.338   0.214  11.544 -0.4010 -1.8827  1.3815
16517TIP3    H270967   4.362   0.073  11.494 -0.3815 -0.7163 -2.1237
16518TIP3   OH270968   5.522   4.292  12.311  0.2877 -0.4202  0.9296
16518TIP3    H170969   5.534   4.207  12.269  2.2593  0.7639 -1.1325
16518TIP3    H270970   5.433   4.290  12.346 -0.8445 -2.2133 -1.7511
16519TIP3   OH270971   0.638   0.648   6.620  0.3516  0.0107  0.5707
16519TIP3    H170972   0.598   0.563   6.635  0.8683 -0.4827 -0.6946
16519TIP3    H270973   0.714   0.629   6.565  1.8239  1.0168  2.1456
16520TIP3   OH270974   5.194   1.171  14.995 -0.8491  0.2689 -0.4685
16520TIP3    H170975   5.238   1.107  14.940 -1.5295  1.3106 -2.3145
16520TIP3    H270976   5.101   1.151  14.986 -0.9632  0.2380  0.6243
16521TIP3   OH270977   5.741   0.935  15.889 -0.2247 -0.1015  0.1079
16521TIP3    H170978   5.789   0.906  15.967  0.0036 -0.0583 -0.0140
16521TIP3    H270979   5.671   0.990  15.922  0.1935  0.3524  0.2505
16522TIP3   OH270980   1.235   3.656   2.728  0.5413  0.5330 -0.3496
16522TIP3    H170981   1.249   3.566   2.701 -0.0070  0.7218 -1.2981
16522TIP3    H270982   1.140   3.666   2.734  0.4821  1.5385 -2.1023
16523TIP3   OH270983   6.677   2.025  13.307  0.3661  0.2076 -0.2563
16523TIP3    H170984   6.682   1.940  13.263  0.6452 -0.9208  1.8018
16523TIP3    H270985   6.613   2.012  13.377  0.3251  1.7373  0.0254
16524TIP3   OH270986   0.671   4.854   5.294 -0.2958 -0.5827 -0.0433
16524TIP3    H170987   0.651   4.881   5.384 -0.7984 -0.8384 -0.0745
16524TIP3    H270988   0.763   4.877   5.282 -0.3777 -0.0151  0.3437
16525TIP3   OH270989   0.768   1.446   4.340  0.1485  0.3241  0.4641
16525TIP3    H170990   0.738   1.490   4.261 -0.2390  1.6398  1.3070
16525TIP3    H270991   0.747   1.507   4.411 -1.2565 -1.6101  1.8211
16526TIP3   OH270992   6.135   4.530  17.245 -0.4727 -0.4488 -0.0589
16526TIP3    H170993   6.184   4.495  17.170  0.0544 -0.2474  0.1896
16526TIP3    H270994   6.181   4.610  17.268 -0.3234 -0.7722  0.8046
16527TIP3   OH270995   1.356   0.891  16.816 -0.2150  0.3836 -0.0595
16527TIP3    H170996   1.334   0.983  16.802 -2.2232  0.0959  0.8094
16527TIP3    H270997   1.272   0.849  16.833  0.8439 -1.2954  1.3125
16528TIP3   OH270998   2.040   4.539   3.254  0.2349  0.0946  0.0665
16528TIP3    H170999   1.972   4.473   3.271 -0.3900  0.5966 -0.4314
16528TIP3    H271000   2.053   4.536   3.159 -0.4046  1.2407 -0.0876
16529TIP3   OH271001   1.850   1.334   5.081 -0.8062 -0.0577 -0.1509
16529TIP3    H171002   1.788   1.359   5.012 -1.9944 -0.5825  0.6787
16529TIP3    H271003   1.904   1.411   5.095 -1.4826  0.5226 -0.6918
16530TIP3   OH271004   0.602   3.673   5.479 -0.5524 -0.2001  0.0196
16530TIP3    H171005   0.671   3.705   5.421 -0.5056 -0.5128 -0.0984
16530TIP3    H271006   0.530   3.733   5.465 -0.9951 -0.9946 -1.3088
16531TIP3   OH271007   4.547   5.424   4.496  0.4063  0.2173  0.9855
16531TIP3    H171008   4.641   5.439   4.493  0.5258 -0.6361  0.2762
16531TIP3    H271009   4.537   5.329   4.496 -0.4937  0.2628 -1.0294
16532TIP3   OH271010   1.148   3.652   0.739  0.6851  0.3330 -0.9185
16532TIP3    H171011   1.194   3.596   0.676  1.6778 -0.1704  0.2229
16532TIP3    H271012   1.165   3.741   0.708  4.0459  0.3025  0.4119
16533TIP3   OH271013   0.314   1.121  16.649  0.1360 -0.1365 -0.5041
16533TIP3    H171014   0.378   1.110  16.578 -0.4155 -0.7426 -0.9164
16533TIP3    H271015   0.302   1.216  16.656  0.2418 -0.0711 -1.1773
16534TIP3   OH271016   2.362   3.996   1.950 -0.3569  0.0991  0.3162
16534TIP3    H171017   2.370   3.901   1.957 -1.9968 -0.4017 -2.6484
16534TIP3    H271018   2.271   4.015   1.973 -0.2246  0.8492  0.2615
16535TIP3   OH271019   1.529   4.805   2.813 -0.0597 -0.0973 -0.3708
16535TIP3    H171020   1.495   4.820   2.725 -1.9355  1.0126  0.4667
16535TIP3    H271021   1.615   4.846   2.813 -0.7197  1.3907 -1.2440
16536TIP3   OH271022   5.110   5.685  13.373 -0.5179 -0.1138  0.2517
16536TIP3    H171023   5.100   5.599  13.413 -0.2244 -0.6727 -0.8349
16536TIP3    H271024   5.202   5.689  13.347 -0.3195  0.8739  1.0479
16537TIP3   OH271025   2.083   6.287   1.942  0.3781  0.3790  0.3635
16537TIP3    H171026   1.997   6.245   1.947  0.5384 -0.0860 -0.5457
16537TIP3    H271027   2.070   6.373   1.982 -0.5809  0.4175  0.0077
16538TIP3   OH271028   3.165   4.412   3.855  0.6138  0.1835  0.3812
16538TIP3    H171029   3.102   4.386   3.922 -2.1004 -1.8432 -2.6323
16538TIP3    H271030   3.237   4.350   3.864 -0.0184 -0.4843  1.0138
16539TIP3   OH271031   0.596   2.163   4.543 -0.2053  0.7070 -0.1209
16539TIP3    H171032   0.652   2.121   4.477  0.8212  2.2609 -0.2885
16539TIP3    H271033   0.522   2.199   4.493 -0.0413  0.8531 -0.2576
16540TIP3   OH271034   5.132   2.204   4.921 -0.1961  0.3393 -0.3756
16540TIP3    H171035   5.082   2.122   4.924 -0.0926  0.2685 -0.6084
16540TIP3    H271036   5.072   2.269   4.959 -0.1349  0.0850  0.1670
16541TIP3   OH271037   6.353   2.826  17.096 -0.1471  0.4384  0.1762
16541TIP3    H171038   6.339   2.733  17.077 -1.0722  0.4075  0.9817
16541TIP3    H271039   6.418   2.854  17.031  0.0639 -0.7414 -0.1390
16542TIP3   OH271040   5.343   6.507   5.858  0.5407  0.7753  0.8231
16542TIP3    H171041   5.381   6.595   5.856  1.9399  0.1759  0.1719
16542TIP3    H271042   5.414   6.449   5.830 -1.1089 -0.3058 -1.3734
16543TIP3   OH271043   0.702   0.445  16.409  0.4241  0.1023  0.3336
16543TIP3    H171044   0.610   0.423  16.396  0.5478 -0.1277 -0.2021
16543TIP3    H271045   0.718   0.520  16.351  1.1564 -1.3704 -1.4868
16544TIP3   OH271046   0.075   5.856  12.820  0.1890  0.0177  0.7684
16544TIP3    H171047   0.163   5.895  12.820  0.9536 -1.5615 -0.6121
16544TIP3    H271048   0.048   5.860  12.729 -1.1952  0.4349  1.1759
16545TIP3   OH271049   2.356   2.005   4.580  0.1334  0.1685  0.2463
16545TIP3    H171050   2.416   1.992   4.653 -1.4506 -1.0573  1.4106
16545TIP3    H271051   2.323   2.094   4.591  0.5837  0.3091  0.4780
16546TIP3   OH271052   1.200   4.563  13.350 -0.2406 -0.2662 -0.5297
16546TIP3    H171053   1.223   4.626  13.282 -0.8091 -0.2392 -0.7042
16546TIP3    H271054   1.262   4.491  13.338  0.1817  0.1018 -0.5547
16547TIP3   OH271055   5.732   4.987   5.241 -0.0242 -0.1193 -0.0585
16547TIP3    H171056   5.799   4.939   5.191  0.0091 -1.7398  1.4251
16547TIP3    H271057   5.680   4.918   5.282 -1.9275  1.1373 -0.2657
16548TIP3   OH271058   6.255   3.677  16.532 -0.0253 -0.0020  0.1446
16548TIP3    H171059   6.308   3.712  16.460  2.0445 -0.9086  1.1313
16548TIP3    H271060   6.223   3.593  16.501 -1.6103  0.8713 -0.7314
16549TIP3   OH271061   0.665   6.530   3.680 -0.5103 -0.8232 -0.1286
16549TIP3    H171062   0.727   6.603   3.680  0.0280 -1.2749  0.3936
16549TIP3    H271063   0.610   6.545   3.757 -0.2433 -1.0869  0.1197
16550TIP3   OH271064   3.150   3.487   3.742  0.1764 -0.2047 -0.2064
16550TIP3    H171065   3.080   3.494   3.677 -0.3414 -2.7675 -0.0464
16550TIP3    H271066   3.221   3.541   3.708 -0.1082 -1.3842 -2.8861
16551TIP3   OH271067   1.234   1.107   2.061 -0.2589 -0.3045  0.6651
16551TIP3    H171068   1.274   1.179   2.012 -0.8003 -1.0726 -0.9776
16551TIP3    H271069   1.147   1.141   2.085 -0.3371 -0.2444  0.3016
16552TIP3   OH271070   3.794   1.303   4.183 -0.2728  0.0906  0.7076
16552TIP3    H171071   3.841   1.383   4.159 -0.8901 -0.4739 -2.9641
16552TIP3    H271072   3.856   1.232   4.166 -0.8249 -0.3792  0.5833
16553TIP3   OH271073   2.714   2.395   2.522  0.0479 -0.2387  0.3017
16553TIP3    H171074   2.674   2.447   2.453 -0.3941  0.1314  0.8311
16553TIP3    H271075   2.660   2.316   2.528  0.2543 -0.4018  0.0348
16554TIP3   OH271076   3.375   0.610   4.311  0.1842  0.0086 -0.2572
16554TIP3    H171077   3.467   0.607   4.288  0.4207  0.2636  0.6284
16554TIP3    H271078   3.345   0.519   4.305  0.6711 -0.1797  0.1443
16555TIP3   OH271079   3.347   4.951  16.638 -0.0175 -0.2907  0.2267
16555TIP3    H171080   3.410   4.992  16.698  0.9139 -0.5397 -0.5568
16555TIP3    H271081   3.401   4.899  16.579 -1.1413 -2.3883  0.9585
16556TIP3   OH271082   5.394   4.156   0.818 -0.1118  0.4847 -0.4008
16556TIP3    H171083   5.335   4.097   0.865  0.2047 -0.3691 -1.0460
16556TIP3    H271084   5.348   4.240   0.817 -1.5224 -0.2409 -1.2107
16557TIP3   OH271085   3.976   4.961   4.023  0.0728 -0.0265 -0.1176
16557TIP3    H171086   4.028   4.925   4.095  0.6535 -0.1937 -0.6089
16557TIP3    H271087   4.025   5.039   3.995  0.1291 -0.2579 -0.6706
16558TIP3   OH271088   3.834   4.379   1.286  0.2538  0.0696 -0.5581
16558TIP3    H171089   3.881   4.462   1.283  1.7631 -0.7404 -0.5872
16558TIP3    H271090   3.833   4.355   1.379  0.6896 -0.3477 -0.6603
16559TIP3   OH271091   4.334   1.922   3.578 -0.0351  0.4100 -0.5127
16559TIP3    H171092   4.300   1.886   3.659  2.0387 -0.0054  0.2452
16559TIP3    H271093   4.390   1.853   3.542  1.6230  1.7116 -0.5803
16560TIP3   OH271094   1.973   6.183   4.109  0.9131 -0.4660 -1.0360
16560TIP3    H171095   1.944   6.146   4.192  1.9447 -0.2251 -0.5594
16560TIP3    H271096   1.896   6.229   4.075  0.9626  0.9258  0.6314
16561TIP3   OH271097   1.714   5.069   0.247 -0.1297 -0.4588 -0.4997
16561TIP3    H171098   1.664   5.150   0.236  1.8336  1.2251  1.6166
16561TIP3    H271099   1.693   5.040   0.336  1.0445 -0.8213 -0.3150
16562TIP3   OH271100   1.566   3.878  12.429 -0.1669 -0.6730 -0.1777
16562TIP3    H171101   1.643   3.872  12.373 -0.4159 -1.1640 -0.4721
16562TIP3    H271102   1.598   3.852  12.516  0.0725 -0.5407 -0.2252
16563TIP3   OH271103   3.503   5.623   4.013 -0.0991 -0.2396  0.0063
16563TIP3    H171104   3.478   5.558   4.079  0.4355 -0.1851  0.2652
16563TIP3    H271105   3.597   5.634   4.025 -0.0856  0.1353 -0.4416
16564TIP3   OH271106   6.322   2.849   3.992 -0.2412 -0.1756 -0.3717
16564TIP3    H171107   6.350   2.847   3.900  0.8016 -0.9070 -0.0478
16564TIP3    H271108   6.302   2.941   4.008  0.9728  0.2066 -0.9343
16565TIP3   OH271109   3.026   1.350  15.182 -0.2719  0.0808  0.7677
16565TIP3    H171110   3.026   1.275  15.122  0.7758  0.8116 -0.1930
16565TIP3    H271111   2.988   1.316  15.263 -0.8092 -1.1968  0.0085
16566TIP3   OH271112   4.599   2.349  16.635  0.0005 -0.2803 -0.7559
16566TIP3    H171113   4.595   2.253  16.640 -0.8727 -0.1857  3.2688
16566TIP3    H271114   4.692   2.369  16.651  0.1883 -0.4186 -1.6236
16567TIP3   OH271115   0.858   1.748  14.679 -0.0958  0.4831  0.1469
16567TIP3    H171116   0.871   1.843  14.688 -1.5785  0.6800  0.4800
16567TIP3    H271117   0.768   1.734  14.709 -0.3950 -0.8324 -1.2534
16568TIP3   OH271118   5.988   6.670   3.958 -0.2628  0.0068  0.4010
16568TIP3    H171119   5.995   6.668   4.054  2.6727 -0.9088  0.2536
16568TIP3    H271120   5.979   6.579   3.933 -0.1873  0.1756 -0.2441
16569TIP3   OH271121   2.167   5.890   5.809  0.2596  0.1620 -0.1547
16569TIP3    H171122   2.235   5.841   5.855  0.5525  0.5913 -0.1177
16569TIP3    H271123   2.204   5.978   5.800  0.3450  0.0179 -1.4760
16570TIP3   OH271124   5.866   0.630  13.507  0.0751  0.0263 -0.2066
16570TIP3    H171125   5.948   0.581  13.507  0.2646  0.3366  0.6147
16570TIP3    H271126   5.830   0.615  13.419  0.3538 -1.1892 -0.1271
16571TIP3   OH271127   4.668   4.270   1.743 -0.5476  0.0463 -0.0557
16571TIP3    H171128   4.682   4.186   1.700 -1.8845  1.2326 -3.1129
16571TIP3    H271129   4.745   4.322   1.717 -1.0164  0.5500 -0.4616
16572TIP3   OH271130   3.757   0.254   4.887  0.7251 -0.0964  0.3453
16572TIP3    H171131   3.833   0.304   4.915  0.7722 -0.4529  0.8472
16572TIP3    H271132   3.691   0.321   4.866  1.5023  0.2580 -1.1038
16573TIP3   OH271133   6.663   1.577  12.967 -0.7221  0.7188 -0.2095
16573TIP3    H171134   6.725   1.520  12.921 -0.2320  0.7928  0.3427
16573TIP3    H271135   6.679   1.664  12.931  1.1551  1.1816  1.5152
16574TIP3   OH271136   3.010   5.951   3.585  0.7525  1.0099 -0.2616
16574TIP3    H171137   2.921   5.948   3.549  1.6663  1.6677 -2.7884
16574TIP3    H271138   2.997   5.956   3.680 -1.8544 -0.4638 -0.4313
16575TIP3   OH271139   2.891   5.682   4.010  0.0476 -0.1867  0.6852
16575TIP3    H171140   2.882   5.587   4.003 -0.7223 -0.1553  1.1149
16575TIP3    H271141   2.977   5.695   4.049  0.2850 -0.6967  0.3467
16576TIP3   OH271142   0.818   5.101   4.664 -0.5617  0.1102 -0.2022
16576TIP3    H171143   0.850   5.191   4.657  0.2265 -0.2450 -1.2769
16576TIP3    H271144   0.725   5.111   4.684 -0.7826  1.1905 -1.5909
16577TIP3   OH271145   3.104   4.858  17.196  0.0495 -0.3034  0.0347
16577TIP3    H171146   3.180   4.799  17.191 -0.2982 -0.7236 -0.3558
16577TIP3    H271147   3.042   4.822  17.133 -1.0709 -0.8065  1.3877
16578TIP3   OH271148   2.352   1.257   1.169  0.0111 -0.2612  0.1182
16578TIP3    H171149   2.414   1.271   1.240 -0.9289  0.6087  0.7969
16578TIP3    H271150   2.291   1.191   1.203  0.0665 -0.4842 -0.2123
16579TIP3   OH271151   2.401   0.321   5.224 -0.6906  0.1141 -0.7274
16579TIP3    H171152   2.418   0.409   5.259  1.0507 -0.8261  0.9687
16579TIP3    H271153   2.346   0.279   5.290 -1.0044 -0.2916 -1.2340
16580TIP3   OH271154   0.287   2.114  10.974  0.2555  0.4936  0.1076
16580TIP3    H171155   0.352   2.184  10.966  0.0776  0.8751  1.6742
16580TIP3    H271156   0.222   2.133  10.906  0.0500  2.0375  0.7017
16581TIP3   OH271157   2.384   0.369  15.091 -0.3788 -0.4259  0.2682
16581TIP3    H171158   2.440   0.389  15.017 -0.0407 -1.1528  0.3181
16581TIP3    H271159   2.308   0.325  15.052 -1.0633  0.8167  0.1696
16582TIP3   OH271160   3.914   0.556  14.921 -0.2959  0.0430  0.2892
16582TIP3    H171161   4.007   0.536  14.931  0.0485  1.2875 -0.2431
16582TIP3    H271162   3.912   0.631  14.862 -1.5726  0.8455  1.3118
16583TIP3   OH271163   2.515   0.346   1.423  0.2536  0.6135  0.9314
16583TIP3    H171164   2.432   0.364   1.466 -1.0664  2.1687 -1.9695
16583TIP3    H271165   2.560   0.431   1.420  0.5580  0.4327 -0.1794
16584TIP3   OH271166   4.358   5.075  15.354 -0.0380 -0.1443  0.6936
16584TIP3    H171167   4.373   4.989  15.393 -1.1765 -0.3762  0.6740
16584TIP3    H271168   4.400   5.071  15.269 -0.6997 -0.9476  0.3969
16585TIP3   OH271169   2.298   4.662   3.316 -0.8106  0.3058 -0.0504
16585TIP3    H171170   2.340   4.576   3.310 -0.6933  0.4004 -0.6308
16585TIP3    H271171   2.205   4.643   3.308 -0.7115  0.3471 -1.5564
16586TIP3   OH271172   1.645   2.619   5.198 -0.2219 -0.6443 -0.2584
16586TIP3    H171173   1.583   2.632   5.270  0.8424  3.6716  0.1588
16586TIP3    H271174   1.722   2.579   5.240  0.5325  2.1426  1.2637
16587TIP3   OH271175   6.601   6.714   6.209 -0.3096 -0.2876  0.2369
16587TIP3    H171176   6.565   6.803   6.210 -1.3069 -0.6874  0.5102
16587TIP3    H271177   6.674   6.717   6.272  1.8626  1.1895 -2.1502
16588TIP3   OH271178   3.437   5.786  13.552  0.5228  0.0398 -0.3522
16588TIP3    H171179   3.456   5.708  13.604 -1.2885  0.3396  0.8461
16588TIP3    H271180   3.456   5.859  13.610 -2.0019  0.3718  0.1314
16589TIP3   OH271181   5.946   2.745  17.367 -0.2791 -0.3638  0.3039
16589TIP3    H171182   5.933   2.727  17.460 -0.3354 -0.4046  0.2878
16589TIP3    H271183   6.012   2.815  17.365 -1.6607  1.0076  0.4359
16590TIP3   OH271184   0.554   5.827   3.915  0.3150 -0.5777  0.3253
16590TIP3    H171185   0.555   5.906   3.968  0.7048  2.0572 -3.2251
16590TIP3    H271186   0.461   5.811   3.896  0.2984 -0.1746  0.0480
16591TIP3   OH271187   2.816   4.994  12.133  0.0542 -0.6350 -0.0549
16591TIP3    H171188   2.805   4.916  12.078 -1.4374 -0.3457 -0.2256
16591TIP3    H271189   2.770   5.063  12.086 -0.2330 -0.0963  0.9736
16592TIP3   OH271190   2.266   3.138  14.076  0.2566 -0.2008  0.2711
16592TIP3    H171191   2.229   3.104  14.158  0.3849  0.1063  0.4583
16592TIP3    H271192   2.328   3.206  14.104 -0.3595  0.5348 -0.1191
16593TIP3   OH271193   0.255   5.543  13.655  0.4100 -0.3576 -0.2405
16593TIP3    H171194   0.299   5.566  13.573 -0.5453 -3.7152 -1.8424
16593TIP3    H271195   0.287   5.456  13.676  0.5232  0.3268  2.9925
16594TIP3   OH271196   1.161   2.549   0.207 -0.1427 -0.8123 -0.0582
16594TIP3    H171197   1.177   2.642   0.223 -0.4745 -0.3534 -2.0746
16594TIP3    H271198   1.102   2.547   0.132  0.3662 -2.6666 -0.4780
16595TIP3   OH271199   1.830   5.678   1.175 -0.5582 -0.7717 -0.2270
16595TIP3    H171200   1.777   5.701   1.251 -0.5053 -0.6115 -0.2377
16595TIP3    H271201   1.770   5.631   1.117 -0.9300  0.1779 -0.6362
16596TIP3   OH271202   5.415   5.960   5.258  0.0884 -0.7556  0.8438
16596TIP3    H171203   5.345   6.015   5.294 -1.1771 -1.6793 -0.1350
16596TIP3    H271204   5.469   6.020   5.206 -1.5531 -0.4564 -0.6095
16597TIP3   OH271205   3.780   5.698  12.094 -0.2197  0.2272 -0.5695
16597TIP3    H171206   3.816   5.737  12.173 -2.5296 -2.5754  2.1123
16597TIP3    H271207   3.693   5.737  12.085 -1.1535 -1.5941  0.1081
16598TIP3   OH271208   1.231   1.068  16.589  0.4546 -0.2900 -0.3717
16598TIP3    H171209   1.137   1.086  16.598  0.2685 -1.3776  0.0441
16598TIP3    H271210   1.246   1.067  16.495  0.6643  2.7780 -0.4554
16599TIP3   OH271211   3.935   4.918  17.313  0.7850  0.1084 -0.5266
16599TIP3    H171212   3.979   4.951  17.391  1.1131 -0.2686 -0.5433
16599TIP3    H271213   3.847   4.956  17.316  0.8444  0.2154 -0.0543
16600TIP3   OH271214   4.852   4.905   3.019  0.3288  0.1688  0.6087
16600TIP3    H171215   4.879   4.984   2.972  0.8459 -0.8438 -0.8689
16600TIP3    H271216   4.922   4.889   3.082  1.4623 -0.4392 -0.7492
16601TIP3   OH271217   5.194   6.238  14.160  0.0984  0.0769 -0.2424
16601TIP3    H171218   5.247   6.267  14.085 -0.5125 -0.0084 -0.7108
16601TIP3    H271219   5.225   6.150  14.179 -2.1774 -1.3900 -2.7278
16602TIP3   OH271220   5.828   6.259  16.204 -0.0570 -0.4670  0.3398
16602TIP3    H171221   5.860   6.211  16.128 -0.0326 -0.9171  0.6319
16602TIP3    H271222   5.902   6.314  16.231  0.3452 -1.2044  0.7697
16603TIP3   OH271223   1.440   2.138   2.384  0.3034 -1.3849  0.0263
16603TIP3    H171224   1.436   2.137   2.289 -0.7037 -2.2272  0.0550
16603TIP3    H271225   1.360   2.093   2.412  0.5530 -1.1021  1.2686
16604TIP3   OH271226   2.145   3.072  11.829  0.2975 -0.1439 -0.1575
16604TIP3    H171227   2.179   3.157  11.800 -2.6603  0.4614 -2.3100
16604TIP3    H271228   2.089   3.092  11.903  1.4905 -0.6006  0.8936
16605TIP3   OH271229   3.484   6.537  13.651  0.2122  0.0162 -0.2996
16605TIP3    H171230   3.399   6.562  13.687 -0.4343  0.9036 -2.2949
16605TIP3    H271231   3.542   6.529  13.727 -1.5776 -0.3850  1.0829
16606TIP3   OH271232   0.430   2.672   0.333 -0.2786  0.3420 -0.0817
16606TIP3    H171233   0.420   2.761   0.366  0.8734  0.4188  0.1054
16606TIP3    H271234   0.467   2.623   0.407 -1.7062 -0.5170  0.1095
16607TIP3   OH271235   5.457   3.561   3.670  0.0390  0.3075 -0.1989
16607TIP3    H171236   5.476   3.467   3.661 -0.5387  0.1941 -0.2477
16607TIP3    H271237   5.535   3.596   3.714  0.1789 -0.2282  0.0014
16608TIP3   OH271238   1.330   0.219  11.613  0.4395  0.3329  0.0367
16608TIP3    H171239   1.319   0.313  11.625  0.3578  0.3050  0.1894
16608TIP3    H271240   1.242   0.183  11.622  0.0673  0.4836 -2.4640
16609TIP3   OH271241   0.224   1.074   6.262  0.2823  0.3663 -0.0172
16609TIP3    H171242   0.205   1.018   6.186 -2.9538  0.3840  0.6419
16609TIP3    H271243   0.243   1.160   6.224 -0.8026  0.2519 -0.8646
16610TIP3   OH271244   6.215   6.381   3.137 -0.4529 -0.0580 -0.2561
16610TIP3    H171245   6.181   6.463   3.173 -0.4582  0.3543 -1.1797
16610TIP3    H271246   6.179   6.313   3.194 -0.1194  0.5921  0.7789
16611TIP3   OH271247   2.041   2.012   1.723 -0.6374 -0.1233  0.2022
16611TIP3    H171248   2.068   1.958   1.650 -1.6428 -0.5418  0.1278
16611TIP3    H271249   1.955   2.047   1.697 -0.7092  0.2476  0.9047
16612TIP3   OH271250   4.027   5.168   0.677  0.0602 -0.3859  0.1567
16612TIP3    H171251   4.056   5.254   0.647  0.2016 -1.4260 -3.1624
16612TIP3    H271252   3.931   5.173   0.676  0.0602 -0.4379 -0.7196
16613TIP3   OH271253   4.029   5.017  13.759  0.5093 -0.2171 -0.0517
16613TIP3    H171254   4.093   5.067  13.708 -1.0778  0.6486 -1.2886
16613TIP3    H271255   4.065   5.016  13.847  0.6925  3.0976  0.0451
16614TIP3   OH271256   5.383   6.477   0.051  0.2651  0.4826  0.3218
16614TIP3    H171257   5.307   6.461   0.106 -0.7201 -1.7226 -1.5394
16614TIP3    H271258   5.347   6.509  -0.031  1.3560 -0.2042 -0.4546
16615TIP3   OH271259   6.544   1.450  13.176 -0.1817  0.3107  0.3620
16615TIP3    H171260   6.457   1.489  13.192  0.0597  0.5490  1.1271
16615TIP3    H271261   6.593   1.520  13.131 -0.4982  0.0396 -0.4285
16616TIP3   OH271262   0.909   4.125  14.383  0.5181  0.2423  0.1944
16616TIP3    H171263   0.940   4.054  14.440 -1.2275  0.7301  1.8884
16616TIP3    H271264   0.907   4.087  14.295  0.3924 -1.5662  0.9336
16617TIP3   OH271265   5.740   6.372  11.424  0.1403  0.1404 -0.0754
16617TIP3    H171266   5.706   6.321  11.350  1.0883  1.3871 -1.4136
16617TIP3    H271267   5.667   6.430  11.448 -0.3609 -0.6474  0.3514
16618TIP3   OH271268   5.540   6.001  12.265  0.0654 -0.3196 -0.1598
16618TIP3    H171269   5.537   6.002  12.360  0.2262  1.0934 -0.1556
16618TIP3    H271270   5.476   6.067  12.238 -0.8870 -1.5473 -1.0817
16619TIP3   OH271271   1.298   4.481  16.592  0.5183  0.4507 -0.0038
16619TIP3    H171272   1.257   4.562  16.623  0.1719  0.6210 -0.8741
16619TIP3    H271273   1.364   4.510  16.530  1.5192  0.1393  0.8895
16620TIP3   OH271274   4.778   5.783  15.382  0.0112 -0.3213  0.2016
16620TIP3    H171275   4.786   5.863  15.330  1.6139  0.9689  2.2518
16620TIP3    H271276   4.859   5.735  15.365 -0.9961 -1.6580 -1.1188
16621TIP3   OH271277   4.910   5.924  11.862 -0.1739 -0.3744  0.1641
16621TIP3    H171278   4.947   5.983  11.796  0.5009  0.4079  1.2136
16621TIP3    H271279   4.975   5.855  11.871  0.9726  0.8310  1.7739
16622TIP3   OH271280   3.775   2.936  16.728  0.7610 -0.6238  0.5805
16622TIP3    H171281   3.718   2.907  16.799  1.4004  0.4938  1.5758
16622TIP3    H271282   3.846   2.982  16.771  0.6776  0.9260 -0.8325
16623TIP3   OH271283   2.808   1.944   0.357 -0.2488  0.2307 -0.4900
16623TIP3    H171284   2.893   1.917   0.390 -0.5243 -3.0621 -2.1299
16623TIP3    H271285   2.828   2.011   0.292  1.1212 -0.5445 -0.9092
16624TIP3   OH271286   3.921   1.886   1.883  0.0523 -0.2037 -0.3865
16624TIP3    H171287   3.979   1.832   1.830  1.0760  0.5449 -0.0632
16624TIP3    H271288   3.913   1.968   1.834  0.0170  0.0446  0.0258
16625TIP3   OH271289   5.305   6.406   4.694  0.1062 -0.2471  0.0341
16625TIP3    H171290   5.230   6.446   4.651 -1.9201 -3.0830  0.6124
16625TIP3    H271291   5.336   6.472   4.757 -1.2496  1.3594 -0.9083
16626TIP3   OH271292   2.106   0.843   4.465  0.7934  0.0029  0.6864
16626TIP3    H171293   2.175   0.900   4.431  1.0328  1.3194  3.1411
16626TIP3    H271294   2.150   0.789   4.531 -0.4107  0.6596  2.0767
16627TIP3   OH271295   2.094   0.640   1.856 -0.3120  0.6443 -0.1526
16627TIP3    H171296   2.044   0.565   1.885  0.4989 -0.7488 -2.1154
16627TIP3    H271297   2.181   0.627   1.893 -0.4764  1.2770  0.4834
16628TIP3   OH271298   3.799   5.117  14.111 -0.3371 -0.1821 -0.0113
16628TIP3    H171299   3.844   5.169  14.178  0.9216  0.8760 -1.5904
16628TIP3    H271300   3.747   5.181  14.062 -0.7716 -0.8371 -0.4236
16629TIP3   OH271301   4.644   1.630   0.486 -0.7512  0.0924  0.1962
16629TIP3    H171302   4.689   1.559   0.439 -1.3584  0.3900 -0.8816
16629TIP3    H271303   4.589   1.670   0.419 -1.4215  0.7319  1.1243
16630TIP3   OH271304   0.553   4.487  15.265  0.3351 -0.2901  0.0508
16630TIP3    H171305   0.554   4.407  15.317  0.7208 -0.5312 -0.3198
16630TIP3    H271306   0.625   4.477  15.203  1.2862  0.9511  0.8957
16631TIP3   OH271307   1.973   4.678  12.081 -0.2341  0.5501  0.5309
16631TIP3    H171308   1.931   4.633  12.155  0.8326  1.8907  2.0215
16631TIP3    H271309   2.055   4.630  12.068 -0.9890 -0.4751 -0.6801
16632TIP3   OH271310   1.548   1.838   4.496  0.7409  0.0731  0.1028
16632TIP3    H171311   1.549   1.754   4.542 -0.7265  0.8929  1.7608
16632TIP3    H271312   1.463   1.841   4.454  0.0544  1.4011  1.4884
16633TIP3   OH271313   0.017   3.663   6.262 -0.1275 -0.4722  0.1888
16633TIP3    H171314  -0.049   3.598   6.286 -0.3572 -0.5218 -0.5526
16633TIP3    H271315   0.096   3.613   6.244 -0.7997 -0.8045 -2.2888
16634TIP3   OH271316   1.188   4.033   0.906  0.1243 -0.0629  0.5779
16634TIP3    H171317   1.109   3.982   0.921 -0.0962 -0.2522 -1.0728
16634TIP3    H271318   1.206   4.075   0.991 -1.7974  0.0854  0.9493
16635TIP3   OH271319   4.961   5.005  13.305 -0.0951  0.2742  0.5552
16635TIP3    H171320   4.994   5.044  13.224  0.5635 -0.5299  0.4289
16635TIP3    H271321   4.875   4.971  13.283  1.2029 -2.4881 -0.6191
16636TIP3   OH271322   2.971   3.623   0.352 -0.2312 -0.1871 -0.1828
16636TIP3    H171323   2.945   3.649   0.263  0.3824 -0.6279 -0.4948
16636TIP3    H271324   2.899   3.654   0.407 -0.4399  0.4319 -0.7828
16637TIP3   OH271325   5.389   3.362   4.276 -0.1603  0.5604 -0.5212
16637TIP3    H171326   5.370   3.293   4.212 -0.9191  3.0347 -3.2302
16637TIP3    H271327   5.464   3.330   4.324  0.9021 -1.2829 -3.1515
16638TIP3   OH271328   6.432   0.620  12.417  0.2559  0.0863 -0.0562
16638TIP3    H171329   6.428   0.582  12.329 -0.3901 -0.3221  0.1476
16638TIP3    H271330   6.361   0.685  12.418 -0.4555 -0.6887  0.5252
16639TIP3   OH271331   0.271   6.396  16.302  0.1164 -0.1084  0.4833
16639TIP3    H171332   0.261   6.420  16.394  0.1633  1.8603  0.0165
16639TIP3    H271333   0.191   6.427  16.260 -0.3852 -1.9380 -0.0093
16640TIP3   OH271334   0.030   1.787   0.237  0.6275 -0.4199  0.3735
16640TIP3    H171335   0.081   1.721   0.284  0.7272  0.0020  0.8731
16640TIP3    H271336   0.062   1.783   0.147  1.1539 -0.5427  0.5628
16641TIP3   OH271337   0.174   3.514  12.236 -0.0687  0.2098  0.5399
16641TIP3    H171338   0.134   3.442  12.189 -1.4704  0.1251  1.7826
16641TIP3    H271339   0.185   3.482  12.326  2.6777  0.3046  0.3143
16642TIP3   OH271340   2.310   2.535   4.012  0.2099 -0.2725  0.1152
16642TIP3    H171341   2.392   2.576   4.038  0.6102 -0.9892 -0.0059
16642TIP3    H271342   2.311   2.449   4.054  0.1096 -0.7979 -0.9225
16643TIP3   OH271343   6.702   6.386  14.734  0.1013 -0.5463 -0.2297
16643TIP3    H171344   6.709   6.478  14.710 -0.7216 -1.1229 -2.9795
16643TIP3    H271345   6.615   6.359  14.705 -0.2857 -1.8850  1.9012
16644TIP3   OH271346   2.239   5.318  14.741  0.3299  0.3643 -0.3013
16644TIP3    H171347   2.225   5.374  14.817  0.6289  0.3571 -0.2391
16644TIP3    H271348   2.325   5.343  14.708 -0.8048  2.1539 -2.1582
16645TIP3   OH271349   0.612   5.318   6.619  0.0304  0.4598 -0.0906
16645TIP3    H171350   0.575   5.402   6.644  1.2795  0.5145  1.7530
16645TIP3    H271351   0.538   5.257   6.622 -0.5920  1.2096 -0.0355
16646TIP3   OH271352   6.511   3.403   1.673  0.9411 -0.7095 -0.3135
16646TIP3    H171353   6.529   3.496   1.660 -1.3986  0.1013  1.5805
16646TIP3    H271354   6.591   3.368   1.711  1.4552  0.7882  0.0422
16647TIP3   OH271355   4.303   5.914  16.330 -0.4522  0.2604  0.0073
16647TIP3    H171356   4.360   5.989  16.346 -0.1220  0.8411 -3.2225
16647TIP3    H271357   4.235   5.947  16.272 -1.0343 -1.6503 -0.4827
16648TIP3   OH271358   0.995   6.700   2.875 -0.4472 -0.4273  0.5674
16648TIP3    H171359   1.069   6.689   2.934  0.6429 -0.1901 -0.6960
16648TIP3    H271360   1.033   6.696   2.787 -1.7940  0.6233 -0.1164
16649TIP3   OH271361   3.904   0.081   5.667  0.0709 -0.3776  0.7564
16649TIP3    H171362   3.910   0.093   5.572  2.4201 -0.0996  0.8706
16649TIP3    H271363   3.866  -0.006   5.678  1.3349 -1.1411 -0.5146
16650TIP3   OH271364   1.921   3.763  13.634 -0.2013  0.0877 -0.1856
16650TIP3    H171365   1.933   3.845  13.586 -1.2033  0.3643  0.0036
16650TIP3    H271366   1.958   3.696  13.576 -0.6158  0.5142 -0.9647
16651TIP3   OH271367   6.246   2.259  12.637 -0.2321  0.5207  0.0574
16651TIP3    H171368   6.243   2.328  12.703 -0.5612  1.5312 -0.9815
16651TIP3    H271369   6.315   2.286  12.576  0.0781 -0.4000 -0.0095
16652TIP3   OH271370   4.621   6.397   2.534 -0.0459  0.2910 -0.1187
16652TIP3    H171371   4.649   6.374   2.623 -1.5052  0.1550  0.3356
16652TIP3    H271372   4.682   6.350   2.477  0.5994 -0.0254  0.8030
16653TIP3   OH271373   0.625   3.146   2.557 -0.4672  0.2476  0.0194
16653TIP3    H171374   0.660   3.126   2.470  2.2961 -1.8602  1.4293
16653TIP3    H271375   0.532   3.123   2.552 -0.3314 -0.0310 -2.2764
16654TIP3   OH271376   3.125   6.670  16.323  0.5990 -0.0436  0.3143
16654TIP3    H171377   3.203   6.686  16.375 -0.4864  0.5731  1.8283
16654TIP3    H271378   3.072   6.609  16.376 -1.0878  1.5556  0.5789
16655TIP3   OH271379   2.581   4.898   4.236 -0.0969 -0.1672 -0.1223
16655TIP3    H171380   2.594   4.991   4.213  1.8662 -0.2248  0.5647
16655TIP3    H271381   2.496   4.877   4.199 -1.1472  2.2245  0.7038
16656TIP3   OH271382   4.762   1.739   3.616 -0.6086 -0.0550  0.8165
16656TIP3    H171383   4.713   1.724   3.696 -1.0319 -3.3425  0.1016
16656TIP3    H271384   4.769   1.652   3.576  3.9202  0.5463 -0.2412
16657TIP3   OH271385   0.580   1.423   3.011  0.1175  0.4642  0.1418
16657TIP3    H171386   0.554   1.472   2.934 -1.0778 -0.3266  0.0210
16657TIP3    H271387   0.503   1.370   3.034  2.1503 -3.7135 -1.5592
16658TIP3   OH271388   6.725   4.018   3.288  0.0353  0.2024 -0.4755
16658TIP3    H171389   6.820   4.005   3.293 -0.0112 -0.1245 -0.4083
16658TIP3    H271390   6.702   3.992   3.199  0.0931  0.8739 -0.6951
16659TIP3   OH271391   5.070   1.389   1.658 -0.3009  0.3344 -0.1302
16659TIP3    H171392   5.000   1.330   1.632 -0.5090  0.6920 -0.4004
16659TIP3    H271393   5.150   1.339   1.647 -0.4448  0.2376 -0.7526
16660TIP3   OH271394   2.173   4.112   0.457 -0.4134 -0.1289 -0.2470
16660TIP3    H171395   2.116   4.110   0.534 -0.3722  0.0671 -0.2099
16660TIP3    H271396   2.149   4.193   0.411 -1.4552 -0.9566 -1.2149
16661TIP3   OH271397   3.948   5.093   2.546  0.4283 -0.4112 -0.3773
16661TIP3    H171398   3.901   5.149   2.484  0.1228 -0.5058 -0.2343
16661TIP3    H271399   3.922   5.004   2.522 -3.6384 -0.3789  2.8721
16662TIP3   OH271400   6.432   3.145  16.754 -0.0820  0.3727  0.3216
16662TIP3    H171401   6.471   3.148  16.841 -0.5662  1.3456  0.5170
16662TIP3    H271402   6.411   3.236  16.734 -1.5511 -0.0294 -0.0854
16663TIP3   OH271403   6.376   0.242  16.510 -0.1568  0.1392  0.5796
16663TIP3    H171404   6.415   0.191  16.581 -0.1610  0.4488  0.8059
16663TIP3    H271405   6.385   0.187  16.433 -0.6083 -0.4187  0.9165
16664TIP3   OH271406   3.197   4.999  11.857  0.1560 -0.6271  0.6947
16664TIP3    H171407   3.282   5.010  11.813 -0.8577 -0.4013 -1.3285
16664TIP3    H271408   3.157   5.086  11.854 -2.2536 -1.5999 -3.1675
16665TIP3   OH271409   6.233   0.972  11.565 -0.0510  0.1902  0.0057
16665TIP3    H171410   6.271   0.980  11.478  0.6565 -0.3995  0.2451
16665TIP3    H271411   6.289   0.909  11.610  0.3658  1.4132  1.3007
16666TIP3   OH271412   1.283   1.924   5.462  0.0008  0.3423  0.0503
16666TIP3    H171413   1.220   1.990   5.490  0.9087  0.7926  1.0935
16666TIP3    H271414   1.347   1.972   5.410  0.4107  0.1943  0.4160
16667TIP3   OH271415   4.449   0.701   4.952  0.5802  0.1706  0.0980
16667TIP3    H171416   4.410   0.620   4.986 -4.4860  1.2481 -2.1627
16667TIP3    H271417   4.513   0.671   4.888 -1.4445 -2.2209 -0.9840
16668TIP3   OH271418   1.140   0.106  12.745 -0.0268 -0.2453 -0.3335
16668TIP3    H171419   1.128   0.021  12.788  0.8943 -0.5331 -0.6103
16668TIP3    H271420   1.235   0.115  12.737 -0.1319  0.6271 -0.6870
16669TIP3   OH271421   0.008   0.717   5.797 -0.3366  0.1332 -0.0812
16669TIP3    H171422   0.011   0.634   5.750  0.7115 -0.4886  1.0411
16669TIP3    H271423   0.066   0.705   5.872 -0.8945  1.5639  0.6235
16670TIP3   OH271424   1.351   3.305  13.032  0.1396  0.3799 -0.1957
16670TIP3    H171425   1.296   3.251  12.975  1.0569  0.6457 -1.3625
16670TIP3    H271426   1.369   3.250  13.107 -0.8298 -0.0980 -0.2932
16671TIP3   OH271427   3.046   5.661  16.085  0.1169 -0.6061 -0.1770
16671TIP3    H171428   2.986   5.600  16.127  0.2453  0.1396  1.1488
16671TIP3    H271429   3.131   5.640  16.121  0.3257 -0.3095 -0.4898
16672TIP3   OH271430   5.179   2.793  15.992 -0.2362  0.4336 -0.2547
16672TIP3    H171431   5.161   2.736  15.918  2.5479  0.1054 -0.8231
16672TIP3    H271432   5.094   2.814  16.029 -1.6118 -0.6489 -2.6048
16673TIP3   OH271433   5.012   5.474   1.698  0.1370 -0.5289  0.0513
16673TIP3    H171434   4.932   5.457   1.748  0.4731  2.5730  1.8960
16673TIP3    H271435   4.982   5.517   1.618 -0.1102 -0.6989  0.0526
16674TIP3   OH271436   1.901   5.787  12.921  0.4508 -0.1954 -0.1581
16674TIP3    H171437   1.951   5.854  12.874  1.2396  0.4509  1.5142
16674TIP3    H271438   1.835   5.837  12.970 -0.0369 -0.8006 -0.1920
16675TIP3   OH271439   3.771   3.605   4.583  0.1084 -0.4592  0.2072
16675TIP3    H171440   3.848   3.648   4.621  0.2450  0.3365 -0.8862
16675TIP3    H271441   3.798   3.515   4.568  1.3029  0.0959 -1.3003
16676TIP3   OH271442   2.609   5.750   1.146  0.0331  0.1529  0.4060
16676TIP3    H171443   2.583   5.677   1.203 -4.4719  0.8478 -0.4130
16676TIP3    H271444   2.566   5.826   1.184  0.8432  1.5216 -1.3085
16677TIP3   OH271445   6.618   4.812  12.303 -0.4627  0.0119  0.1388
16677TIP3    H171446   6.672   4.802  12.225 -1.4558  2.9777 -1.0699
16677TIP3    H271447   6.532   4.839  12.270 -0.9893  1.1128  2.2427
16678TIP3   OH271448   2.704   5.602  16.691 -0.1220 -0.2173  0.0608
16678TIP3    H171449   2.670   5.566  16.773 -0.9042 -2.9146 -1.3324
16678TIP3    H271450   2.642   5.671  16.667 -1.3911 -1.2019  0.4268
16679TIP3   OH271451   5.595   5.237  14.379  0.6591 -0.5335  0.2080
16679TIP3    H171452   5.530   5.218  14.446  1.5111 -2.3407  0.5784
16679TIP3    H271453   5.677   5.247  14.426  0.8653  0.6607 -0.3562
16680TIP3   OH271454   4.853   3.661   5.543 -0.0659  0.0470  0.4222
16680TIP3    H171455   4.851   3.690   5.634  1.0256 -0.8724  0.7558
16680TIP3    H271456   4.890   3.735   5.495 -1.6760  0.9727  0.5185
16681TIP3   OH271457   1.788   2.645   0.193  0.0791 -0.2542 -0.3152
16681TIP3    H171458   1.852   2.596   0.142 -1.3159 -1.3896 -1.0546
16681TIP3    H271459   1.779   2.596   0.274 -0.8007 -0.8529 -0.7624
16682TIP3   OH271460   2.490   0.595   1.110 -0.2051  0.1291 -0.1598
16682TIP3    H171461   2.438   0.615   1.188  0.7913 -2.6680  1.3845
16682TIP3    H271462   2.437   0.531   1.062  0.2315  0.0217 -0.5012
16683TIP3   OH271463   2.192   1.841   1.541 -0.0534  0.0861  0.3920
16683TIP3    H171464   2.120   1.845   1.478 -0.4330  2.6781  0.8510
16683TIP3    H271465   2.270   1.822   1.489 -0.9112 -2.0232 -0.2135
16684TIP3   OH271466   3.515   1.784   1.762 -0.3461  0.5521  0.3246
16684TIP3    H171467   3.557   1.823   1.839 -1.2916 -0.3501  1.3331
16684TIP3    H271468   3.468   1.709   1.797 -1.0744  0.3271 -1.1019
16685TIP3   OH271469   5.054   5.169   1.133  0.1955  0.0014 -0.2052
16685TIP3    H171470   5.060   5.164   1.229 -0.8477  1.8639  0.0151
16685TIP3    H271471   4.982   5.110   1.111  0.2814 -0.2546  0.1815
16686TIP3   OH271472   4.234   0.083   0.581 -0.5614 -0.0399 -0.7525
16686TIP3    H171473   4.321   0.113   0.607 -0.3333  0.7005 -2.2871
16686TIP3    H271474   4.184   0.082   0.663  1.1575 -1.5202  0.3439
16687TIP3   OH271475   5.946   1.550   0.763 -0.2003  0.2049  0.3932
16687TIP3    H171476   6.009   1.615   0.733 -1.5229  0.8161 -1.1872
16687TIP3    H271477   5.885   1.600   0.818 -0.1349 -0.0989  0.7485
16688TIP3   OH271478   6.045   3.923   5.207 -0.4369  0.1265  0.0209
16688TIP3    H171479   6.067   3.831   5.197 -0.3436  0.1914 -0.4153
16688TIP3    H271480   6.056   3.960   5.119  2.1952  1.1422  0.6575
16689TIP3   OH271481   2.014   1.142  13.608 -0.3158  1.3596 -0.1871
16689TIP3    H171482   1.958   1.216  13.631 -0.7605  0.6674  1.0582
16689TIP3    H271483   2.030   1.098  13.691  1.5097  1.1283 -0.6230
16690TIP3   OH271484   3.428   0.843   2.438  0.3550 -0.0449  0.3115
16690TIP3    H171485   3.481   0.822   2.361  0.0429  0.2075  0.0254
16690TIP3    H271486   3.353   0.890   2.403 -0.5518 -1.2304  0.5964
16691TIP3   OH271487   1.461   1.574  13.469  0.4832  0.5923  0.0485
16691TIP3    H171488   1.534   1.592  13.529  1.6641  0.4751 -1.2931
16691TIP3    H271489   1.416   1.658  13.461 -1.7882 -0.0737  3.6268
16692TIP3   OH271490   6.063   1.971  15.945  0.0571  0.0351  0.2195
16692TIP3    H171491   5.997   1.960  16.014  1.4344 -2.2551  1.2545
16692TIP3    H271492   6.020   1.939  15.866 -0.7879  0.6126  0.4252
16693TIP3   OH271493   0.044   2.167   0.058  0.5433 -0.2093 -0.6891
16693TIP3    H171494   0.074   2.258   0.060  0.7288 -0.2788  0.6674
16693TIP3    H271495   0.001   2.154   0.143  1.1796 -1.5935 -0.5471
16694TIP3   OH271496   0.206   4.158   1.076  0.0975 -0.1901  0.2557
16694TIP3    H171497   0.122   4.198   1.052 -0.0154 -0.1391  0.7264
16694TIP3    H271498   0.223   4.191   1.164 -0.1090 -1.3620  0.7513
16695TIP3   OH271499   4.754   4.058  15.698 -0.1976 -0.2232  0.1988
16695TIP3    H171500   4.757   4.040  15.604 -0.3055  0.4353  0.0673
16695TIP3    H271501   4.793   4.144  15.707 -1.7163  0.4690  0.5565
16696TIP3   OH271502   4.366   5.308  12.131  0.7365  0.1603 -0.3342
16696TIP3    H171503   4.394   5.396  12.105  0.5820 -0.3934 -2.6540
16696TIP3    H271504   4.431   5.250  12.092  0.6247 -0.7959  0.8430
16697TIP3   OH271505   2.983   2.717   0.519 -0.6402 -0.3714 -0.1671
16697TIP3    H171506   2.925   2.740   0.592 -0.8296 -1.0006 -0.1205
16697TIP3    H271507   3.010   2.627   0.537 -0.4351 -0.4212 -0.7148
16698TIP3   OH271508   0.924   1.097   0.219 -0.0693 -0.2548 -0.0121
16698TIP3    H171509   0.855   1.043   0.181 -1.9979  0.7029  1.9165
16698TIP3    H271510   0.964   1.041   0.287  1.0919 -0.7975 -1.1053
16699TIP3   OH271511   0.477   4.009   5.128 -0.0557  0.0426 -0.2635
16699TIP3    H171512   0.504   4.095   5.160 -1.8095  0.6035 -0.1811
16699TIP3    H271513   0.537   3.991   5.055  0.4898  1.2093 -0.1308
16700TIP3   OH271514   6.503   1.896  13.936  0.4780 -0.4309  0.2210
16700TIP3    H171515   6.559   1.892  13.859 -1.0072  0.3411 -0.9485
16700TIP3    H271516   6.559   1.932  14.005  3.0922 -4.8976  0.8013
16701TIP3   OH271517   4.680   3.633   3.965 -0.4805 -0.2563 -0.2820
16701TIP3    H171518   4.594   3.595   3.949  0.2312 -1.4220 -1.5049
16701TIP3    H271519   4.742   3.569   3.931  0.9013  0.4325  0.8173
16702TIP3   OH271520   1.408   5.098   6.591 -0.4185  0.2192 -0.5929
16702TIP3    H171521   1.477   5.149   6.633  0.9970 -0.9364 -1.3986
16702TIP3    H271522   1.348   5.163   6.555  0.5884  1.2799 -0.4195
16703TIP3   OH271523   2.179   3.246  15.441 -0.6007 -0.3227 -0.8973
16703TIP3    H171524   2.200   3.320  15.497  2.2948 -1.7079  0.0437
16703TIP3    H271525   2.170   3.283  15.353  1.2291  1.1214 -0.5182
16704TIP3   OH271526   5.942   1.939  12.276 -0.0924 -0.7264 -0.4921
16704TIP3    H171527   5.945   1.942  12.180 -1.0082  1.4358 -0.5040
16704TIP3    H271528   6.011   1.999  12.304 -1.9945  1.3137  0.0864
16705TIP3   OH271529   1.359   2.559   2.202 -0.1325  0.2226 -0.0156
16705TIP3    H171530   1.312   2.491   2.250  0.0663  1.1641  1.5975
16705TIP3    H271531   1.446   2.523   2.188 -0.0083  0.1634  0.8881
16706TIP3   OH271532   6.648   2.142  14.383 -0.5410  0.2511  0.2380
16706TIP3    H171533   6.723   2.193  14.412  1.9053 -2.9582  0.2021
16706TIP3    H271534   6.609   2.108  14.463  0.2829 -0.8895  0.1826
16707TIP3   OH271535   3.597   2.482  16.859  1.1060  0.5787  0.4714
16707TIP3    H171536   3.546   2.445  16.932 -0.1113  2.1261  0.4553
16707TIP3    H271537   3.672   2.422  16.850 -0.1903 -1.2514  1.1218
16708TIP3   OH271538   0.185   1.984   4.384  0.3788 -1.3277 -0.1839
16708TIP3    H171539   0.210   2.002   4.475 -1.1887 -0.8687  0.1840
16708TIP3    H271540   0.250   2.031   4.332  0.9989 -1.1717  0.7047
16709TIP3   OH271541   1.720   4.258   3.625  0.6513 -0.1425 -0.1174
16709TIP3    H171542   1.766   4.208   3.692  0.5897 -0.0959 -0.0392
16709TIP3    H271543   1.674   4.327   3.674 -1.3574 -1.5490  0.0727
16710TIP3   OH271544   3.394   2.720  15.315  0.3486  0.4412 -0.2287
16710TIP3    H171545   3.453   2.786  15.279  0.2698  1.2045  0.9544
16710TIP3    H271546   3.395   2.648  15.252 -0.0390  1.8198 -1.8553
16711TIP3   OH271547   3.546   5.655   2.076  0.1248  0.4753 -0.2147
16711TIP3    H171548   3.495   5.585   2.036 -2.5374  1.2405  1.6085
16711TIP3    H271549   3.565   5.624   2.165  1.4132  0.9414 -0.2974
16712TIP3   OH271550   4.849   5.110   1.648  0.3902  0.4114 -0.2426
16712TIP3    H171551   4.786   5.154   1.591 -0.4305  0.0143  0.3372
16712TIP3    H271552   4.799   5.039   1.688  0.8824  0.8675  1.2106
16713TIP3   OH271553   3.178   0.497   6.151 -0.4399  0.1847  0.5655
16713TIP3    H171554   3.173   0.591   6.163 -2.4533  0.5081 -1.8396
16713TIP3    H271555   3.271   0.477   6.153  0.2746  2.7055 -1.5034
16714TIP3   OH271556   2.769   0.159   5.230  0.7402  0.1304 -0.2170
16714TIP3    H171557   2.732   0.170   5.318 -0.4871 -1.0828 -0.5454
16714TIP3    H271558   2.701   0.112   5.182  1.2870  1.0146 -1.9065
16715TIP3   OH271559   2.421   0.493   0.411 -0.0207 -0.1955 -0.3460
16715TIP3    H171560   2.409   0.584   0.384 -0.2780 -0.6221 -1.7325
16715TIP3    H271561   2.458   0.450   0.335 -0.1912 -1.3312  0.1909
16716TIP3   OH271562   5.133   0.183  16.599 -0.2821 -0.3858  0.0323
16716TIP3    H171563   5.090   0.237  16.665 -0.3565 -0.9983  0.4843
16716TIP3    H271564   5.223   0.175  16.630 -0.0258  0.2589 -0.5227
16717TIP3   OH271565   5.828   0.428  17.230 -0.0032 -0.2820  0.0657
16717TIP3    H171566   5.885   0.490  17.274  0.9087 -2.5077  2.2452
16717TIP3    H271567   5.770   0.394  17.299 -0.2778 -2.0083 -0.9405
16718TIP3   OH271568   4.832   0.464   4.831 -0.3000  0.0989  0.1197
16718TIP3    H171569   4.919   0.426   4.820 -0.2116  0.3518 -0.0807
16718TIP3    H271570   4.846   0.538   4.890  0.1267  1.8442 -2.0533
16719TIP3   OH271571   0.034   1.475   4.512  0.1419 -0.4198 -0.2100
16719TIP3    H171572  -0.039   1.430   4.555  1.0162 -2.3317 -0.6306
16719TIP3    H271573  -0.008   1.542   4.457 -1.3508 -1.8545 -0.8980
16720TIP3   OH271574   6.225   4.855  11.335  0.4817  0.1647  0.0874
16720TIP3    H171575   6.299   4.813  11.290  1.0452  1.2295 -0.0133
16720TIP3    H271576   6.172   4.782  11.367  1.7658 -0.6447  0.4756
16721TIP3   OH271577   5.557   2.994   6.196  0.3734 -0.5704 -0.6000
16721TIP3    H171578   5.515   3.079   6.206  4.0196  1.3047  0.4136
16721TIP3    H271579   5.485   2.931   6.199 -2.4362  2.3852 -0.8818
16722TIP3   OH271580   1.649   1.510  11.409 -0.1824 -0.1410 -0.0280
16722TIP3    H171581   1.730   1.561  11.403 -0.1719  0.0190  1.1805
16722TIP3    H271582   1.678   1.419  11.405  0.3580 -0.1709  2.6108
16723TIP3   OH271583   3.737   3.296   0.924  0.4992 -0.4373  0.4652
16723TIP3    H171584   3.644   3.320   0.921  0.8627  0.9645 -1.3617
16723TIP3    H271585   3.782   3.378   0.944  1.4122 -0.8160  0.0217
16724TIP3   OH271586   3.576   6.708   0.175  0.5747  0.2145  0.2519
16724TIP3    H171587   3.643   6.776   0.176 -0.0021  0.7962  1.6392
16724TIP3    H271588   3.621   6.629   0.206  1.2811 -0.1214 -1.5012
16725TIP3   OH271589   4.227   4.968   3.040  0.6028  0.0890  0.4305
16725TIP3    H171590   4.264   4.882   3.021 -0.2609 -0.3312  0.5845
16725TIP3    H271591   4.242   4.980   3.134  0.3014 -0.1079  0.5054
16726TIP3   OH271592   1.830   1.069   1.205  0.0434 -0.0375 -0.4711
16726TIP3    H171593   1.823   1.043   1.113  0.8604  1.1428 -0.8885
16726TIP3    H271594   1.858   1.161   1.202 -0.4176  0.1753  0.9546
16727TIP3   OH271595   4.019   6.456   2.012 -0.2597  0.0393 -0.2081
16727TIP3    H171596   3.971   6.380   1.979  2.0647 -1.0741 -1.2556
16727TIP3    H271597   4.067   6.423   2.088  1.8538 -0.0034 -1.4817
16728TIP3   OH271598   3.069   4.018  16.073 -0.3386  0.0856 -0.6127
16728TIP3    H171599   3.094   4.093  16.127  0.1018  0.6197 -1.5400
16728TIP3    H271600   3.092   4.044  15.984 -0.3266 -1.0946 -0.9667
16729TIP3   OH271601   1.697   4.131   2.726  0.1953  0.0591  0.1897
16729TIP3    H171602   1.748   4.191   2.671 -0.1840  2.2504  2.0796
16729TIP3    H271603   1.762   4.072   2.764  0.7423  0.0566 -0.7199
16730TIP3   OH271604   6.448   2.770  15.032  0.6125  0.5334 -0.0933
16730TIP3    H171605   6.412   2.740  14.949 -0.6752  2.1879 -0.1894
16730TIP3    H271606   6.388   2.736  15.098  1.1728 -0.0793  0.1170
16731TIP3   OH271607   2.939   5.165   2.829 -0.8759 -0.0942  0.2204
16731TIP3    H171608   2.924   5.082   2.784 -1.5880 -0.1123  0.4726
16731TIP3    H271609   2.946   5.141   2.921  0.5521 -0.0543  0.1480
16732TIP3   OH271610   6.207   3.416  14.638 -0.1098 -0.0952  0.5196
16732TIP3    H171611   6.157   3.497  14.633 -0.9646 -0.6920 -1.2910
16732TIP3    H271612   6.195   3.386  14.728 -1.3824  0.7964  0.6742
16733TIP3   OH271613   2.922   3.146   3.215  0.1968 -0.0532  0.2965
16733TIP3    H171614   2.952   3.234   3.239 -1.8363  0.3619  1.5825
16733TIP3    H271615   2.907   3.150   3.121 -0.2351  1.1223  0.4032
16734TIP3   OH271616   0.987   2.125  15.008 -0.5121 -0.1641 -0.3574
16734TIP3    H171617   0.910   2.087  15.050 -0.7276  0.6267 -0.0115
16734TIP3    H271618   0.969   2.219  15.006  0.9935  0.1978  0.9230
16735TIP3   OH271619   0.984   2.843   5.519 -0.3189  0.0380 -0.9291
16735TIP3    H171620   1.047   2.911   5.496 -2.0514  1.6267 -1.1863
16735TIP3    H271621   0.936   2.878   5.594 -1.0516 -1.0204 -0.8745
16736TIP3   OH271622   5.552   0.708  16.250  0.2245 -0.2930  0.4805
16736TIP3    H171623   5.508   0.724  16.334  0.5654 -0.9592  0.7960
16736TIP3    H271624   5.517   0.776  16.191  0.8276  0.9188  1.4638
16737TIP3   OH271625   0.131   5.010  14.176 -0.3843 -0.3095 -0.4195
16737TIP3    H171626   0.095   5.098  14.182 -0.2378 -0.1294 -1.9396
16737TIP3    H271627   0.175   4.997  14.261  0.4021  1.4422 -0.5055
16738TIP3   OH271628   0.795   2.592   0.540 -0.5758  0.1371  0.0052
16738TIP3    H171629   0.838   2.677   0.532 -2.1101  0.8997 -0.5247
16738TIP3    H271630   0.822   2.543   0.463 -0.2617  0.4138 -0.0609
16739TIP3   OH271631   5.387   3.111   4.869 -0.0644  0.3201  0.4336
16739TIP3    H171632   5.456   3.116   4.935 -0.7225  0.6015  1.1238
16739TIP3    H271633   5.417   3.045   4.807  0.5554  0.0268  1.0393
16740TIP3   OH271634   3.414   2.757   5.248  0.4394 -0.2235 -0.4704
16740TIP3    H171635   3.326   2.761   5.284  1.0143  0.3752  0.9747
16740TIP3    H271636   3.404   2.718   5.162 -0.8695 -3.2157  0.9080
16741TIP3   OH271637   5.209   5.159  13.436 -0.0130  0.7092  0.5319
16741TIP3    H171638   5.132   5.125  13.391  0.0571  0.3074  0.7087
16741TIP3    H271639   5.254   5.081  13.469  1.2742  0.8305 -0.8300
16742TIP3   OH271640   4.079   1.594  14.626 -0.6070 -1.0835  0.1245
16742TIP3    H171641   4.078   1.588  14.722 -0.2194 -1.9855  0.0771
16742TIP3    H271642   4.029   1.518  14.597  1.8539 -2.5509 -0.4438
16743TIP3   OH271643   5.350   3.908  11.535 -0.1169 -0.2483  0.2629
16743TIP3    H171644   5.438   3.886  11.566 -0.3181  0.5877  1.5116
16743TIP3    H271645   5.327   3.837  11.475  1.5394 -0.3017 -0.3787
16744TIP3   OH271646   1.737   1.739  12.958 -0.2037 -0.2793 -0.3006
16744TIP3    H171647   1.698   1.827  12.957  0.6639  0.1142 -0.9802
16744TIP3    H271648   1.716   1.705  13.045  0.7225  1.2036  0.5502
16745TIP3   OH271649   5.695   3.515   2.885 -0.7069 -0.5473  0.1575
16745TIP3    H171650   5.720   3.486   2.797  2.9248  1.6508  0.2344
16745TIP3    H271651   5.674   3.608   2.875  1.0287  0.0750  1.7157
16746TIP3   OH271652   0.386   0.080  15.301  0.5311  0.3456  0.2552
16746TIP3    H171653   0.347   0.099  15.386 -1.5634 -0.2907 -0.4809
16746TIP3    H271654   0.335   0.132  15.239  2.4543  1.3202 -0.5751
16747TIP3   OH271655   5.005   0.434   0.544  0.2711  0.2407  0.0564
16747TIP3    H171656   5.065   0.392   0.483 -1.5269 -1.5694 -0.5683
16747TIP3    H271657   4.972   0.363   0.599 -0.6191  1.3158  0.9808
16748TIP3   OH271658   4.655   3.358   4.015  0.1662  0.0498  0.0000
16748TIP3    H171659   4.731   3.339   4.071 -1.2610 -1.0071  1.6668
16748TIP3    H271660   4.587   3.388   4.076 -0.8030  0.9210 -1.4510
16749TIP3   OH271661   3.098   1.047   5.261 -0.7881  0.4524 -0.4021
16749TIP3    H171662   3.153   1.113   5.220  0.6210 -0.2696  0.2436
16749TIP3    H271663   3.157   0.973   5.278 -2.0404 -0.5066 -0.0134
16750TIP3   OH271664   5.898   6.609   4.482 -0.1696  0.1719  0.0554
16750TIP3    H171665   5.825   6.576   4.535 -0.3241 -0.0446 -0.2916
16750TIP3    H271666   5.946   6.666   4.542 -0.6696  0.3857  0.2638
16751TIP3   OH271667   2.163   1.826   4.968 -0.1499  0.3618 -0.1128
16751TIP3    H171668   2.166   1.913   4.927  0.7431  0.1917 -0.4449
16751TIP3    H271669   2.150   1.766   4.895 -3.3541  0.3239  0.3302
16752TIP3   OH271670   0.456   3.567  12.258 -0.1214  0.4854 -0.1182
16752TIP3    H171671   0.474   3.638  12.196 -1.0044  0.5650 -0.2897
16752TIP3    H271672   0.367   3.538  12.237  0.4270 -1.0714 -0.4531
16753TIP3   OH271673   4.809   5.484   4.539 -0.5310 -0.1045  0.0341
16753TIP3    H171674   4.817   5.571   4.498  1.1393 -0.4924 -0.5221
16753TIP3    H271675   4.887   5.477   4.594 -0.4058 -1.4386 -0.2965
16754TIP3   OH271676   6.361   2.095   4.068  0.7554 -0.0930  0.2754
16754TIP3    H171677   6.377   2.176   4.020  2.0644  0.2100  1.1848
16754TIP3    H271678   6.332   2.032   4.001  1.5959  0.5824 -0.7503
16755TIP3   OH271679   3.932   6.055   0.344  0.6002 -0.6342 -0.0709
16755TIP3    H171680   3.900   5.975   0.301  1.2246  0.5344 -2.9577
16755TIP3    H271681   3.864   6.120   0.326  2.2223  0.6410 -2.0718
16756TIP3   OH271682   0.017   4.372   1.063  0.2049 -0.7665  0.1916
16756TIP3    H171683   0.051   4.453   1.025 -0.2965 -0.6293  0.0334
16756TIP3    H271684   0.006   4.393   1.156  0.0038 -0.6294  0.1372
16757TIP3   OH271685   4.924   6.493   2.348 -0.4158  0.6898 -0.2266
16757TIP3    H171686   4.912   6.588   2.353 -2.1423  0.4460  0.7113
16757TIP3    H271687   4.941   6.466   2.438 -0.7706  0.0145 -0.3588
16758TIP3   OH271688   4.421   5.518   0.486  0.0423 -1.3385  0.2283
16758TIP3    H171689   4.501   5.468   0.471  0.6418 -0.7656  1.3639
16758TIP3    H271690   4.418   5.580   0.413 -0.0882 -2.2301 -0.5441
16759TIP3   OH271691   1.237   1.304   5.789  0.2998 -0.5767 -0.0227
16759TIP3    H171692   1.298   1.230   5.784  0.6003 -0.3016 -0.6072
16759TIP3    H271693   1.185   1.297   5.709  1.9672  1.2110 -1.3712
16760TIP3   OH271694   4.488   3.289  11.100 -0.8811  0.2223 -0.5773
16760TIP3    H171695   4.420   3.222  11.088 -1.5060  0.9188 -1.0124
16760TIP3    H271696   4.478   3.317  11.191 -0.7784 -0.1021 -0.4662
16761TIP3   OH271697   2.147   3.548   1.232  0.3115  0.3679  0.2746
16761TIP3    H171698   2.125   3.509   1.317 -1.2897 -0.4328 -0.4640
16761TIP3    H271699   2.068   3.536   1.179  0.9539  1.6902 -1.0427
16762TIP3   OH271700   6.041   6.310  14.324  0.5780  0.2391 -0.5682
16762TIP3    H171701   6.007   6.222  14.340  1.7935  0.0525  1.5013
16762TIP3    H271702   6.125   6.296  14.279  0.8748  0.2965 -0.0475
16763TIP3   OH271703   3.558   6.669   4.268  0.0394 -0.2475  0.5641
16763TIP3    H171704   3.615   6.710   4.203  0.7897  1.3384  2.1356
16763TIP3    H271705   3.474   6.712   4.257 -0.0842 -0.6038  0.0831
16764TIP3   OH271706   0.720   3.309  13.219  0.2198  0.5126 -0.4844
16764TIP3    H171707   0.810   3.314  13.189  0.0575 -3.9996 -2.4138
16764TIP3    H271708   0.667   3.318  13.140 -0.8033 -0.6677  0.0269
16765TIP3   OH271709   0.874   4.687   4.187  0.4870 -0.5762 -0.1157
16765TIP3    H171710   0.863   4.598   4.222  2.8067 -0.4549  1.1201
16765TIP3    H271711   0.964   4.689   4.155  1.0209  1.7761  1.2961
16766TIP3   OH271712   0.931   1.608  11.510 -0.5705 -0.4793 -0.0799
16766TIP3    H171713   0.971   1.643  11.589 -1.9145 -1.4511  1.0861
16766TIP3    H271714   0.875   1.679  11.477 -0.6219 -0.3392  0.3062
16767TIP3   OH271715   4.632   1.868  10.997  0.0196  0.2978  0.2167
16767TIP3    H171716   4.650   1.811  10.922  0.0967 -0.3519  0.7228
16767TIP3    H271717   4.543   1.847  11.023 -0.2011  0.9048 -0.0092
16768TIP3   OH271718   0.032   5.297  14.141  0.0140  0.0824  0.6144
16768TIP3    H171719   0.097   5.253  14.087 -0.7604 -0.5843  0.2120
16768TIP3    H271720   0.081   5.367  14.185  0.8543  0.0272 -0.2044
16769TIP3   OH271721   3.755   1.681   0.792  0.2403  0.6055 -0.1176
16769TIP3    H171722   3.841   1.708   0.761  0.7420 -0.8321 -0.0869
16769TIP3    H271723   3.774   1.617   0.861 -0.7767 -1.5858 -1.7542
16770TIP3   OH271724   4.058   3.119  11.410  0.0604  0.1304  0.6929
16770TIP3    H171725   4.007   3.152  11.336  1.3710  1.1863  0.2187
16770TIP3    H271726   4.057   3.024  11.400 -1.9171  0.0986  0.7970
16771TIP3   OH271727   2.503   5.907   3.949 -0.3921  0.2711  0.1450
16771TIP3    H171728   2.454   5.920   4.030  1.4593 -2.1013  1.7985
16771TIP3    H271729   2.498   5.813   3.933  0.9379  0.4188 -1.3987
16772TIP3   OH271730   1.763   2.835   3.836 -0.7409  0.6725 -0.2092
16772TIP3    H171731   1.710   2.780   3.894 -0.1807  0.7941  0.4382
16772TIP3    H271732   1.714   2.839   3.754 -1.2521 -0.0062  0.0578
16773TIP3   OH271733   4.094   3.507   0.803 -0.4070  0.1310  0.0081
16773TIP3    H171734   4.123   3.447   0.872  0.2489  1.9814  1.4325
16773TIP3    H271735   4.089   3.453   0.725  0.8845 -1.6065  1.0444
16774TIP3   OH271736   4.771   0.087  14.231 -0.3686 -0.3418 -0.3114
16774TIP3    H171737   4.750   0.022  14.164 -0.1753  0.2328 -0.9469
16774TIP3    H271738   4.819   0.039  14.297  1.3104 -0.5356 -1.5978
16775TIP3   OH271739   2.860   4.130   5.285 -0.0279 -0.2424 -0.1629
16775TIP3    H171740   2.822   4.211   5.317 -1.1714 -1.0782  0.6537
16775TIP3    H271741   2.788   4.067   5.285  0.3728 -0.8305 -2.4866
16776TIP3   OH271742   6.103   6.231   4.432 -0.3176  0.0376  0.2045
16776TIP3    H171743   6.111   6.207   4.524 -0.5813 -0.5532  0.0808
16776TIP3    H271744   6.009   6.238   4.417 -0.3681 -1.5968 -0.4349
16777TIP3   OH271745   2.986   4.145   1.640 -0.4438  0.7775  0.6182
16777TIP3    H171746   2.999   4.089   1.717  1.4427  0.5113  0.1640
16777TIP3    H271747   3.062   4.204   1.641  0.4046 -0.1472 -1.7594
16778TIP3   OH271748   6.578   6.620  11.184 -0.0229  0.7542 -0.2222
16778TIP3    H171749   6.625   6.691  11.140  0.2183  0.2686 -0.7486
16778TIP3    H271750   6.489   6.653  11.193 -0.5016  0.2538 -2.5365
16779TIP3   OH271751   2.508   2.307  14.278 -0.3345 -0.2416 -0.1450
16779TIP3    H171752   2.586   2.253  14.287  0.3284  0.6783 -0.2734
16779TIP3    H271753   2.534   2.393  14.311 -1.2087  0.1555 -0.4618
16780TIP3   OH271754   0.583   4.133  16.864  0.5843  0.1402  0.9781
16780TIP3    H171755   0.590   4.051  16.816 -0.4465  0.8234 -0.3925
16780TIP3    H271756   0.671   4.169  16.861  0.2837  0.8859 -1.8067
16781TIP3   OH271757   5.610   5.052  12.873  0.5901  0.3432 -0.0921
16781TIP3    H171758   5.684   5.102  12.839  1.3634 -0.7235 -0.0566
16781TIP3    H271759   5.621   4.965  12.834 -0.0919 -0.1083  0.6946
16782TIP3   OH271760   0.137   3.144  13.400 -0.1733 -0.0943 -0.1968
16782TIP3    H171761   0.160   3.119  13.310  0.6707 -2.5044  0.6217
16782TIP3    H271762   0.208   3.203  13.427  0.0606 -0.0964 -0.7842
16783TIP3   OH271763   0.149   4.690  14.338  0.2532 -0.4270 -0.4697
16783TIP3    H171764   0.189   4.674  14.424 -0.9371  1.4171  0.4908
16783TIP3    H271765   0.088   4.762  14.353  0.2127  0.1334 -2.9496
16784TIP3   OH271766   3.375   6.070  11.550  0.5759 -0.1784 -0.5989
16784TIP3    H171767   3.403   6.029  11.468  0.7393  0.0930 -0.6810
16784TIP3    H271768   3.281   6.083  11.540  0.3188 -1.4837 -0.1569
16785TIP3   OH271769   2.886   0.044   4.072 -0.4332  0.2827 -0.2780
16785TIP3    H171770   2.873   0.003   3.987 -0.7783 -0.9237  0.3250
16785TIP3    H271771   2.979   0.064   4.075 -0.4511  0.5112 -1.0064
16786TIP3   OH271772   0.714   4.022   4.877 -0.0143  0.3193 -0.3884
16786TIP3    H171773   0.775   4.010   4.805 -0.7739  0.7120 -1.1103
16786TIP3    H271774   0.683   4.113   4.868 -0.5359  0.1962  0.0943
16787TIP3   OH271775   3.942   1.250  11.677 -0.3989 -0.0332 -0.0189
16787TIP3    H171776   3.959   1.299  11.758  0.0566 -0.5537  0.2041
16787TIP3    H271777   4.015   1.189  11.670 -0.4160  0.0382 -0.8527
16788TIP3   OH271778   3.281   3.628  13.739 -0.2409 -0.5065  0.0198
16788TIP3    H171779   3.298   3.575  13.817 -0.2081  0.1971  0.4995
16788TIP3    H271780   3.367   3.639  13.699 -0.1650 -0.3552  0.2224
16789TIP3   OH271781   2.527   6.723  12.311 -0.6297 -0.1390 -0.4098
16789TIP3    H171782   2.546   6.795  12.251  0.1510  1.2451  1.3955
16789TIP3    H271783   2.609   6.674  12.317 -0.5791 -0.0143 -0.1121
16790TIP3   OH271784   1.012   6.328  14.680 -0.3578 -0.0965 -0.0681
16790TIP3    H171785   1.088   6.337  14.738 -1.0481  0.1350  0.8116
16790TIP3    H271786   1.039   6.371  14.599  0.3023  0.3594  0.3812
16791TIP3   OH271787   4.043   0.567  17.342 -0.5388  0.4324  0.0228
16791TIP3    H171788   4.047   0.623  17.265 -0.0325  0.7018  0.2400
16791TIP3    H271789   3.953   0.574  17.372 -0.6531  0.5875 -0.3531
16792TIP3   OH271790   0.895   1.953  14.204 -0.6663  0.3726 -0.8946
16792TIP3    H171791   0.811   1.973  14.244  0.0813  1.0693  0.4257
16792TIP3    H271792   0.898   1.857  14.202 -0.0415  0.1875  2.5162
16793TIP3   OH271793   3.436   1.570  16.282  0.0231 -0.5193  0.1181
16793TIP3    H171794   3.427   1.646  16.225 -0.1230  0.2389  1.1332
16793TIP3    H271795   3.371   1.508  16.250 -0.3848  0.0861 -0.2355
16794TIP3   OH271796   1.825   3.137  14.967 -0.4438  0.5454 -0.1267
16794TIP3    H171797   1.787   3.113  15.051 -0.6408 -0.9635 -0.6170
16794TIP3    H271798   1.765   3.203  14.931 -0.9553  0.3877  0.4325
16795TIP3   OH271799   0.855   5.436   1.689 -0.3232  0.8705 -0.4283
16795TIP3    H171800   0.832   5.370   1.623 -2.3907  0.1138  0.9761
16795TIP3    H271801   0.941   5.408   1.720 -1.0996 -1.1616  0.0603
16796TIP3   OH271802   5.983   5.593  10.486  0.7531 -0.8692  0.3770
16796TIP3    H171803   5.910   5.579  10.546 -1.2150  2.4556 -0.9485
16796TIP3    H271804   6.014   5.681  10.506  0.7608 -0.0713 -2.6573
16797TIP3   OH271805   4.084   5.565  16.554  0.0464 -0.1617  0.6267
16797TIP3    H171806   4.119   5.605  16.474 -0.2839  0.1880  0.6539
16797TIP3    H271807   4.146   5.496  16.575  0.0385 -0.3744 -0.0329
16798TIP3   OH271808   1.103   0.320  16.675 -0.0188 -0.2294 -0.0218
16798TIP3    H171809   1.131   0.405  16.644  1.4330 -0.3216  0.9230
16798TIP3    H271810   1.007   0.321  16.666 -0.0702  1.6431  0.3474
16799TIP3   OH271811   6.546   1.970   5.587 -0.1884 -0.3499  0.3971
16799TIP3    H171812   6.525   1.891   5.539 -0.1385 -0.2252  0.1680
16799TIP3    H271813   6.568   2.034   5.519  2.7023 -0.9584  0.6528
16800TIP3   OH271814   5.237   2.170  14.808 -0.2209 -0.2222 -0.0220
16800TIP3    H171815   5.175   2.180  14.736 -1.6576 -1.0241  1.0562
16800TIP3    H271816   5.315   2.131  14.768 -0.6330  0.2331 -1.2917
16801TIP3   OH271817   1.444   5.636   3.106 -0.6432 -0.2871  0.1895
16801TIP3    H171818   1.406   5.548   3.105 -0.8201 -0.2198  0.7355
16801TIP3    H271819   1.431   5.667   3.196 -0.1277  0.1002  0.1380
16802TIP3   OH271820   0.661   6.349   0.228 -0.2754 -0.0712 -0.1870
16802TIP3    H171821   0.618   6.285   0.171 -2.1984 -0.8738  2.0122
16802TIP3    H271822   0.595   6.371   0.293  2.2373 -0.4951  2.7322
16803TIP3   OH271823   4.831   3.963  11.740 -0.3430  0.0311  0.4491
16803TIP3    H171824   4.795   3.887  11.785 -0.0382 -0.5277 -0.2405
16803TIP3    H271825   4.804   3.953  11.649  0.3316  0.3545  0.2051
16804TIP3   OH271826   0.158   0.694   3.165  0.1445  0.5578  0.1207
16804TIP3    H171827   0.154   0.610   3.120  0.5184  1.1363 -1.0177
16804TIP3    H271828   0.068   0.709   3.195 -0.2643  0.4731 -1.0282
16805TIP3   OH271829   3.073   3.442  13.675 -0.4201 -0.3383  0.0604
16805TIP3    H171830   3.118   3.360  13.655 -0.4867 -0.1341 -0.9878
16805TIP3    H271831   3.143   3.507  13.678 -0.6973  0.2435 -3.0107
16806TIP3   OH271832   1.155   2.279  13.975 -0.0337  0.1216  0.2665
16806TIP3    H171833   1.188   2.367  13.955 -0.0588  0.1376  0.2958
16806TIP3    H271834   1.220   2.220  13.937  0.4604  0.1568  1.0392
16807TIP3   OH271835   3.743   2.750  14.927 -0.3611  0.5942  0.2956
16807TIP3    H171836   3.817   2.726  14.871  0.0819  2.0735  0.2081
16807TIP3    H271837   3.713   2.667  14.963  0.4357 -0.1967 -0.7867
16808TIP3   OH271838   3.502   0.183   0.406 -0.0746 -0.1801 -0.5233
16808TIP3    H171839   3.424   0.186   0.461  1.4917 -2.6780  2.1564
16808TIP3    H271840   3.490   0.104   0.353  0.4671 -0.3819 -0.3484
16809TIP3   OH271841   0.851   0.465  15.775  0.5661  0.4397 -0.0915
16809TIP3    H171842   0.844   0.504  15.862  0.2348  0.4687 -0.1303
16809TIP3    H271843   0.920   0.515  15.732  0.4531  0.6924  0.0152
16810TIP3   OH271844   4.586   2.463   4.681 -0.1741  0.4237  0.3927
16810TIP3    H171845   4.563   2.544   4.728  0.9071  0.4864  0.8481
16810TIP3    H271846   4.548   2.393   4.734 -4.0285  0.6698 -1.6895
16811TIP3   OH271847   2.759   5.121   5.017 -0.4518 -0.1730  0.4329
16811TIP3    H171848   2.770   5.036   4.973  0.6726 -0.0667  0.5025
16811TIP3    H271849   2.742   5.183   4.946 -1.2575 -0.4430  0.3806
16812TIP3   OH271850   2.824   0.492  13.403  0.3270 -0.5199  0.2038
16812TIP3    H171851   2.859   0.551  13.336  1.6484  2.0823  2.9225
16812TIP3    H271852   2.738   0.527  13.424  1.4444  1.2317  2.4190
16813TIP3   OH271853   4.536   0.198  16.239  0.1701 -0.0783 -0.2864
16813TIP3    H171854   4.523   0.291  16.259  1.1958  0.8028 -3.1250
16813TIP3    H271855   4.596   0.199  16.164  0.2022 -3.0553 -0.3862
16814TIP3   OH271856   6.413   0.828   2.954 -0.3739 -0.1575  0.2485
16814TIP3    H171857   6.443   0.792   2.871 -1.6312 -2.5444  0.7655
16814TIP3    H271858   6.473   0.901   2.971 -0.0459  0.3738 -2.6773
16815TIP3   OH271859   2.759   3.143  16.198 -0.0740 -0.3177  0.6925
16815TIP3    H171860   2.757   3.184  16.285  1.3516 -1.4126  1.2863
16815TIP3    H271861   2.829   3.189  16.152  0.1329 -0.6886  0.6331
16816TIP3   OH271862   1.870   2.018   4.223  0.1585 -0.4223 -0.4293
16816TIP3    H171863   1.907   1.951   4.281  1.5743  0.5294 -0.2011
16816TIP3    H271864   1.775   2.012   4.238  0.2374 -2.3384 -0.4006
16817TIP3   OH271865   4.027   3.673   0.364  0.0894 -0.5511 -0.2838
16817TIP3    H171866   4.050   3.766   0.360  1.6495 -0.9358 -1.2182
16817TIP3    H271867   4.001   3.651   0.275  0.3755 -1.1541 -0.2251
16818TIP3   OH271868   0.742   4.996   6.695 -0.3553  0.5143  0.1262
16818TIP3    H171869   0.718   4.904   6.706  2.2251 -0.1709  0.4746
16818TIP3    H271870   0.689   5.025   6.620 -2.7365 -0.6151  1.2732
16819TIP3   OH271871   2.858   5.929  13.891  0.1654 -0.2515  0.5445
16819TIP3    H171872   2.763   5.943  13.889  0.1667 -0.2626  0.4193
16819TIP3    H271873   2.878   5.883  13.810  0.3558  0.2410  0.3091
16820TIP3   OH271874   3.688   4.023  10.986  0.5562  0.6256  0.4178
16820TIP3    H171875   3.642   3.939  10.980 -3.4191  2.4667  1.5598
16820TIP3    H271876   3.700   4.050  10.894 -2.7922  0.9306 -0.0688
16821TIP3   OH271877   5.364   1.124  12.001 -0.1675  0.5839 -0.6573
16821TIP3    H171878   5.364   1.177  12.080  1.1144 -1.3755  0.7548
16821TIP3    H271879   5.302   1.167  11.943 -1.6139  1.7598  1.6244
16822TIP3   OH271880   2.827   0.874   2.631  0.1778  0.2210 -0.4149
16822TIP3    H171881   2.840   0.807   2.698 -0.6317  0.0009 -0.4723
16822TIP3    H271882   2.870   0.838   2.553 -0.6306 -0.4360 -0.5693
16823TIP3   OH271883   4.300   4.685   2.962 -0.2030  0.3068 -0.0379
16823TIP3    H171884   4.347   4.703   3.044 -0.3742  0.2222  0.0777
16823TIP3    H271885   4.328   4.597   2.937 -0.4468  0.1788  0.1324
16824TIP3   OH271886   5.335   3.745  17.207  0.1117  0.2538  0.1640
16824TIP3    H171887   5.240   3.745  17.213 -0.0670 -0.6728 -1.9219
16824TIP3    H271888   5.354   3.743  17.113  2.2014  0.6153  0.5177
16825TIP3   OH271889   1.473   6.084   4.193  0.2646 -0.2120  0.3802
16825TIP3    H171890   1.419   6.062   4.269 -0.1898  0.7273  0.3414
16825TIP3    H271891   1.483   6.179   4.197  0.7086 -0.2167 -0.4203
16826TIP3   OH271892   1.176   2.369  10.648 -0.6402  0.1075 -0.0058
16826TIP3    H171893   1.128   2.286  10.649  0.5104 -0.6436 -2.1275
16826TIP3    H271894   1.129   2.423  10.584 -0.2697  0.3817 -0.0512
16827TIP3   OH271895   3.389   2.824   1.207  0.0658  0.4005  0.7629
16827TIP3    H171896   3.308   2.816   1.256 -0.6202 -0.0607 -0.4040
16827TIP3    H271897   3.377   2.766   1.132  0.8086  1.5732 -0.3027
16828TIP3   OH271898   0.577   6.394   5.726 -0.1626 -0.0835  0.0025
16828TIP3    H171899   0.511   6.326   5.735  0.3658 -0.3545  3.1806
16828TIP3    H271900   0.565   6.429   5.638 -3.0702 -1.5708 -0.2962
16829TIP3   OH271901   0.048   5.495   6.467 -0.2032 -0.3104 -0.4963
16829TIP3    H171902   0.141   5.490   6.443 -0.0004 -1.8899  0.5102
16829TIP3    H271903   0.031   5.415   6.517 -1.1301  1.6836  2.7001
16830TIP3   OH271904   5.627   3.836  11.566  0.1577  0.0103  0.1886
16830TIP3    H171905   5.607   3.742  11.570 -3.0583  0.5068 -1.3949
16830TIP3    H271906   5.611   3.867  11.656  0.0759 -0.7704  0.4540
16831TIP3   OH271907   4.617   5.420   0.318  0.2299 -0.0992  0.1795
16831TIP3    H171908   4.605   5.483   0.247 -0.0884 -1.1067 -0.6864
16831TIP3    H271909   4.590   5.336   0.280 -0.9207 -0.4986  1.8183
16832TIP3   OH271910   0.931   6.352   4.200  0.1077  0.4855 -0.1609
16832TIP3    H171911   1.004   6.317   4.250  0.5328  1.4709 -0.0750
16832TIP3    H271912   0.897   6.277   4.152  2.0822  0.2735 -1.3356
16833TIP3   OH271913   3.597   2.313   1.999 -0.0010  0.0169  0.7873
16833TIP3    H171914   3.602   2.218   2.015 -2.8179 -0.2819  0.2650
16833TIP3    H271915   3.607   2.322   1.905 -0.3955  0.1729  0.7595
16834TIP3   OH271916   6.129   1.899  14.209 -0.2188 -0.1126 -0.1727
16834TIP3    H171917   6.076   1.961  14.158  0.0507  0.4354  0.1957
16834TIP3    H271918   6.205   1.950  14.237  0.4257 -0.8454 -0.5584
16835TIP3   OH271919   4.640   2.477   1.438  0.0978 -0.4347  0.1432
16835TIP3    H171920   4.687   2.521   1.368  0.0382 -0.9823 -0.2476
16835TIP3    H271921   4.682   2.390   1.444  0.2616 -0.3075  0.9440
16836TIP3   OH271922   5.270   0.943  13.525  0.3269  0.5277  0.5210
16836TIP3    H171923   5.264   1.020  13.582  0.5723  0.0885  1.1593
16836TIP3    H271924   5.189   0.895  13.542  0.9870 -0.2862  1.5389
16837TIP3   OH271925   6.630   1.163  14.257 -0.5116  0.0025  0.0937
16837TIP3    H171926   6.623   1.085  14.201 -2.5347  0.7046 -0.7233
16837TIP3    H271927   6.723   1.181  14.261 -0.2285 -0.3738 -2.6864
16838TIP3   OH271928   3.802   2.872   5.334 -1.1064 -0.1171 -0.0955
16838TIP3    H171929   3.736   2.938   5.314 -0.2471  0.7167 -0.2270
16838TIP3    H271930   3.819   2.884   5.428 -0.6557  0.1134 -0.2085
16839TIP3   OH271931   3.407   5.530   1.710 -0.3713  0.4765  0.1399
16839TIP3    H171932   3.381   5.622   1.719  0.2464  0.7070 -0.3501
16839TIP3    H271933   3.405   5.496   1.799 -1.2844  0.7720  0.2479
16840TIP3   OH271934   1.861   0.025   6.455 -0.5688  0.0511 -0.8436
16840TIP3    H171935   1.831   0.066   6.536 -0.1894  0.0403 -0.6919
16840TIP3    H271936   1.792  -0.037   6.432 -0.0809 -0.9564  0.2360
16841TIP3   OH271937   2.937   6.574  12.819  0.2386 -0.0862  0.3089
16841TIP3    H171938   2.934   6.483  12.846 -1.2812 -0.2490 -0.3052
16841TIP3    H271939   2.978   6.572  12.732 -1.1998 -0.4016 -0.3932
16842TIP3   OH271940   3.443   2.551  16.428  0.0403 -0.3899  0.0430
16842TIP3    H171941   3.349   2.558  16.411  0.0263 -1.6446 -0.5192
16842TIP3    H271942   3.464   2.461  16.407  1.4825  0.0174 -0.3574
16843TIP3   OH271943   3.605   1.978   0.844  0.4235 -0.4260  0.0345
16843TIP3    H171944   3.530   1.953   0.791  0.9126 -0.6748 -0.5607
16843TIP3    H271945   3.614   1.906   0.908  0.5210 -0.6992 -0.2838
16844TIP3   OH271946   1.285   4.683  11.240 -0.0295 -0.3543  0.1703
16844TIP3    H171947   1.365   4.693  11.189 -0.2512 -0.5190 -0.2189
16844TIP3    H271948   1.266   4.589  11.236  1.7449 -0.9894  3.3227
16845TIP3   OH271949   3.207   3.334   2.327  0.1375  0.1847  0.5774
16845TIP3    H171950   3.223   3.257   2.382  0.7957 -0.2778 -0.2439
16845TIP3    H271951   3.293   3.355   2.289 -0.4164  0.0962 -0.7776
16846TIP3   OH271952   3.840   0.142   4.403 -0.3415  0.2280 -0.2833
16846TIP3    H171953   3.832   0.089   4.323 -0.2408 -0.2764  0.0322
16846TIP3    H271954   3.784   0.098   4.466  0.9726 -0.4484  0.4616
16847TIP3   OH271955   0.049   3.720   4.908  0.1150 -0.5298 -0.1761
16847TIP3    H171956   0.059   3.642   4.963  1.4621  0.6197  1.2945
16847TIP3    H271957   0.117   3.779   4.938  0.7164  0.2916 -2.9266
16848TIP3   OH271958   6.167   0.106   4.940 -0.4004  0.1327  0.1524
16848TIP3    H171959   6.161   0.181   5.000  1.1917  1.1549 -0.9054
16848TIP3    H271960   6.256   0.109   4.905  0.4240 -3.4674  1.5392
16849TIP3   OH271961   5.865   0.770   3.589  0.1163  0.0837 -0.0964
16849TIP3    H171962   5.882   0.850   3.638 -1.1943 -0.4902  1.3782
16849TIP3    H271963   5.930   0.707   3.621 -0.2872 -0.0837  0.4056
16850TIP3   OH271964   5.431   2.946   3.118 -0.4670 -0.3476  0.5347
16850TIP3    H171965   5.376   3.023   3.114 -0.5905 -0.4995 -0.9709
16850TIP3    H271966   5.509   2.968   3.067  0.2629 -0.6310  1.4831
16851TIP3   OH271967   6.081   1.840   6.567 -0.2045 -0.5134 -0.0174
16851TIP3    H171968   6.069   1.892   6.647 -0.6816  1.4535 -1.3024
16851TIP3    H271969   6.150   1.885   6.519 -0.3340 -1.3204 -0.9890
16852TIP3   OH271970   4.166   5.251  11.908 -0.2508 -0.1508 -0.1792
16852TIP3    H171971   4.175   5.186  11.839 -2.4028 -1.8537  1.0043
16852TIP3    H271972   4.221   5.219  11.980 -0.8741 -0.3920  0.2012
16853TIP3   OH271973   0.266   4.026   4.330 -0.4893 -0.4119 -0.0271
16853TIP3    H171974   0.206   4.004   4.259  0.0626  0.3400 -0.7412
16853TIP3    H271975   0.266   4.122   4.333 -2.3903 -0.3924  2.6365
16854TIP3   OH271976   4.445   1.767   3.098 -0.3117  0.2143 -0.6590
16854TIP3    H171977   4.397   1.759   3.016  0.7092  0.1681 -1.2681
16854TIP3    H271978   4.378   1.792   3.163 -1.4085 -1.2382 -1.1714
16855TIP3   OH271979   6.132   1.316   2.658 -0.0710 -0.4625  0.3397
16855TIP3    H171980   6.179   1.236   2.683 -0.1206 -1.1383 -1.5383
16855TIP3    H271981   6.158   1.331   2.567 -2.1774  0.1159 -0.2166
16856TIP3   OH271982   5.324   2.505  15.921 -0.6629  0.2947 -0.0248
16856TIP3    H171983   5.352   2.484  16.010  0.0753 -1.1093 -0.5659
16856TIP3    H271984   5.229   2.513  15.926 -0.6760 -0.3245  0.7758
16857TIP3   OH271985   2.284   2.286   4.642 -0.1818 -0.4122 -0.2613
16857TIP3    H171986   2.228   2.319   4.572 -1.6617 -0.2706  0.9319
16857TIP3    H271987   2.359   2.345   4.643  0.5111 -1.1190 -2.4774
16858TIP3   OH271988   2.096   2.898  16.036 -0.0138 -0.5828 -0.0209
16858TIP3    H171989   2.094   2.985  16.075 -0.5282 -0.2659 -0.7230
16858TIP3    H271990   2.147   2.909  15.956 -0.6765 -0.7511 -0.4829
16859TIP3   OH271991   1.957   1.126   5.365  0.2212 -0.0070 -0.0712
16859TIP3    H171992   2.043   1.158   5.391  0.2146 -0.0721  0.0289
16859TIP3    H271993   1.968   1.100   5.273  0.4271 -0.4551  0.0790
16860TIP3   OH271994   5.209   5.980  10.697 -0.2756  0.1600 -1.2757
16860TIP3    H171995   5.227   5.892  10.729  1.2579  0.8518 -0.1021
16860TIP3    H271996   5.114   5.988  10.700 -0.4208 -1.3626 -1.2068
16861TIP3   OH271997   2.888   5.946   4.466 -0.4392  0.6298 -0.7456
16861TIP3    H171998   2.926   5.864   4.435  0.0154  0.9854 -1.1451
16861TIP3    H271999   2.800   5.948   4.427 -0.3549  0.4508 -0.9457
16862TIP3   OH272000   1.553   5.857  16.880 -0.3970  0.0163  0.6047
16862TIP3    H172001   1.483   5.831  16.819  0.5177  2.3114 -1.5892
16862TIP3    H272002   1.633   5.821  16.842  0.0827  0.6182  1.0227
16863TIP3   OH272003   1.960   5.086   1.702 -0.0608 -0.0715  0.2267
16863TIP3    H172004   1.930   5.056   1.617  1.9804 -2.9113  0.3842
16863TIP3    H272005   1.894   5.150   1.729 -0.5705  1.2763 -3.5946
16864TIP3   OH272006   6.574   3.496   0.268  0.3730  0.1112 -0.1105
16864TIP3    H172007   6.490   3.502   0.222 -0.8057  1.4473  2.0077
16864TIP3    H272008   6.552   3.458   0.353  1.7550  1.2144  0.7951
16865TIP3   OH272009   2.857   2.958   5.545 -0.2472  0.3225 -0.2512
16865TIP3    H172010   2.787   2.914   5.498 -1.6878 -0.3380  2.3426
16865TIP3    H272011   2.937   2.920   5.509 -1.3548 -2.4425 -0.0556
16866TIP3   OH272012   6.305   6.201  14.881 -0.3733  0.0558  0.3108
16866TIP3    H172013   6.302   6.222  14.974 -1.7480 -2.3478  0.8814
16866TIP3    H272014   6.290   6.107  14.877  1.3153 -0.2033 -2.2699
16867TIP3   OH272015   2.093   0.354   1.777 -0.0558 -0.1821  0.0487
16867TIP3    H172016   2.179   0.337   1.813 -0.4990 -1.6576  0.4950
16867TIP3    H272017   2.033   0.345   1.852 -0.6509  0.1183 -0.3819
16868TIP3   OH272018   1.458   3.183   3.074  0.4070 -0.2527 -0.1972
16868TIP3    H172019   1.393   3.252   3.059  0.0456 -0.7491 -0.9601
16868TIP3    H272020   1.407   3.107   3.100  0.7074 -0.5513 -0.4779
16869TIP3   OH272021   6.478   3.948  12.431 -0.1019 -0.2166  0.2572
16869TIP3    H172022   6.464   4.023  12.489  0.9354  0.0348  0.2014
16869TIP3    H272023   6.494   3.986  12.345  0.0674 -0.5113  0.1540
16870TIP3   OH272024   2.031   0.221  15.572  0.4029  0.0001 -0.3736
16870TIP3    H172025   2.035   0.271  15.490 -2.9434  0.5054 -0.3774
16870TIP3    H272026   2.072   0.138  15.551  0.5987  0.5161 -2.2339
16871TIP3   OH272027   6.163   6.281   1.929 -0.7419 -0.4641 -0.0350
16871TIP3    H172028   6.253   6.313   1.924 -0.7619 -0.5150 -0.8090
16871TIP3    H272029   6.137   6.297   2.020  0.5289 -1.7449  0.6094
16872TIP3   OH272030   1.378   4.143   2.506  0.8957 -0.1368 -0.7169
16872TIP3    H172031   1.365   4.054   2.471  0.5892 -0.1830 -0.4970
16872TIP3    H272032   1.390   4.130   2.600 -0.4113  0.1440 -0.4900
16873TIP3   OH272033   6.680   5.810   0.139 -0.2508  0.4573  0.2153
16873TIP3    H172034   6.645   5.898   0.154 -1.0045  0.3714 -0.8580
16873TIP3    H272035   6.627   5.776   0.066 -0.1248 -0.9699  0.7627
16874TIP3   OH272036   3.320   5.462  16.938  0.0454  0.2607  0.2632
16874TIP3    H172037   3.382   5.517  16.986 -0.9127  1.0645  0.6086
16874TIP3    H272038   3.356   5.373  16.947  2.1363  0.8791 -1.1297
16875TIP3   OH272039   5.969   1.844   5.334 -0.1534 -0.4559  0.3364
16875TIP3    H172040   6.006   1.929   5.356 -1.4915  0.2963 -0.2123
16875TIP3    H272041   6.015   1.818   5.255 -0.7862  0.5010 -0.3761
16876TIP3   OH272042   2.616   3.611   1.463  0.1339  0.5219  0.5933
16876TIP3    H172043   2.624   3.516   1.455  0.9349  0.5425  1.0843
16876TIP3    H272044   2.575   3.625   1.548 -0.2093  0.6142  0.4168
16877TIP3   OH272045   2.789   4.978   0.664  0.1698 -0.2795  0.0928
16877TIP3    H172046   2.841   4.899   0.650  0.7424  0.0475  0.2922
16877TIP3    H272047   2.832   5.044   0.609 -0.0241  0.0017  0.2767
16878TIP3   OH272048   2.681   3.128  14.448  0.1496  0.0571  0.4026
16878TIP3    H172049   2.764   3.148  14.406 -0.0633  0.9578  0.3746
16878TIP3    H272050   2.672   3.033  14.442  1.1415 -0.0370  0.3546
16879TIP3   OH272051   5.623   3.974  13.135  0.3577  0.1157  0.0548
16879TIP3    H172052   5.634   4.020  13.052 -0.1919 -1.6768 -1.0684
16879TIP3    H272053   5.657   4.035  13.201 -0.8077  2.3048 -1.2594
16880TIP3   OH272054   2.898   4.327  10.605 -0.5046  0.4115 -0.5088
16880TIP3    H172055   2.841   4.253  10.584 -0.4148 -0.4828  1.9886
16880TIP3    H272056   2.981   4.307  10.561 -0.7608 -0.5344 -0.5864
16881TIP3   OH272057   1.614   4.319   2.466  0.3232  0.0478 -0.1140
16881TIP3    H172058   1.687   4.308   2.404 -0.3922  0.5758 -1.0780
16881TIP3    H272059   1.552   4.250   2.443 -1.5722  2.2904 -2.4330
16882TIP3   OH272060   0.942   6.376  12.998  0.4879  0.2746  0.4682
16882TIP3    H172061   1.032   6.383  12.964  0.0145 -1.6266 -1.4177
16882TIP3    H272062   0.947   6.304  13.061  0.2120 -0.1982 -0.0398
16883TIP3   OH272063   4.255   6.473  13.691 -0.4525 -0.4886  0.4214
16883TIP3    H172064   4.294   6.556  13.720 -0.4551  0.4810 -2.1176
16883TIP3    H272065   4.330   6.418  13.670 -0.4556 -1.0959  1.8651
16884TIP3   OH272066   1.277   2.227  16.816 -0.3030  0.4122  0.1446
16884TIP3    H172067   1.369   2.219  16.839 -0.1357  0.8990 -0.3288
16884TIP3    H272068   1.253   2.142  16.780 -0.4653 -0.2363  1.7127
16885TIP3   OH272069   2.710   1.759  12.877 -0.2845  0.1154  0.0746
16885TIP3    H172070   2.746   1.833  12.827 -2.7797  0.9857 -0.5701
16885TIP3    H272071   2.769   1.750  12.952  0.4091  2.4322 -0.1061
16886TIP3   OH272072   1.705   0.599   4.468  0.1749  0.3477  0.3262
16886TIP3    H172073   1.719   0.634   4.557  0.9249  1.3347 -0.1596
16886TIP3    H272074   1.677   0.675   4.417  2.0385  0.3334 -0.8015
16887TIP3   OH272075   3.957   4.503   5.471 -0.1236 -0.6591  0.0879
16887TIP3    H172076   3.935   4.473   5.559  1.4611  2.4187  1.6911
16887TIP3    H272077   3.926   4.594   5.468  2.8666  0.4510 -1.2058
16888TIP3   OH272078   1.302   2.075   4.610  0.3498  0.5059 -0.5741
16888TIP3    H172079   1.360   2.126   4.666  1.4602 -0.3818 -0.8738
16888TIP3    H272080   1.215   2.110   4.628  0.9889  2.0786 -0.3226
16889TIP3   OH272081   2.972   3.057   2.432 -0.1283 -0.1826 -0.7447
16889TIP3    H172082   2.922   3.034   2.354 -2.2138  0.2786  0.3736
16889TIP3    H272083   2.977   3.153   2.429  1.6358 -0.2624 -1.3559
16890TIP3   OH272084   2.943   5.944   5.939  0.0149 -0.2986 -0.3103
16890TIP3    H172085   2.948   5.999   5.862 -0.0228 -0.8796 -0.7351
16890TIP3    H272086   2.897   5.997   6.004 -0.0664  0.1437 -0.7231
16891TIP3   OH272087   2.007   2.908  16.430  0.9739 -0.6190  0.4339
16891TIP3    H172088   1.944   2.858  16.482  2.5801 -1.4136  1.7102
16891TIP3    H272089   1.983   2.890  16.340 -0.9561 -0.4369  0.8768
16892TIP3   OH272090   3.083   5.648   2.967  0.1005  0.3534  0.2680
16892TIP3    H172091   3.023   5.605   3.027 -0.7374 -1.4228 -1.7084
16892TIP3    H272092   3.164   5.660   3.018 -0.2768 -1.8396  1.4956
16893TIP3   OH272093   0.661   4.100  13.360 -0.7669  0.4321  0.1608
16893TIP3    H172094   0.733   4.137  13.413 -0.1452  0.1616 -0.4767
16893TIP3    H272095   0.629   4.174  13.309  0.0719  0.2532 -0.6610
16894TIP3   OH272096   2.855   5.332  13.376  0.2100  0.3346 -0.1277
16894TIP3    H172097   2.793   5.280  13.324 -1.0476  0.9062  0.7841
16894TIP3    H272098   2.802   5.396  13.421  1.0964 -0.8430  2.8073
16895TIP3   OH272099   1.121   0.219   3.795  0.0215 -0.5332  0.3890
16895TIP3    H172100   1.086   0.278   3.729 -1.8418 -0.7849  1.0856
16895TIP3    H272101   1.203   0.260   3.823  0.5219 -0.1050 -1.5855
16896TIP3   OH272102   3.017   3.234  13.007 -0.2590  0.3311  0.3498
16896TIP3    H172103   2.961   3.258  13.080  2.1413  1.9428  1.8251
16896TIP3    H272104   2.967   3.170  12.958 -1.7243 -1.5092  3.8768
16897TIP3   OH272105   2.693   4.863   1.279 -0.8730  0.5480 -1.2123
16897TIP3    H172106   2.770   4.808   1.293 -0.2526  1.1899 -2.0250
16897TIP3    H272107   2.621   4.814   1.319 -0.0308  0.0007 -0.3126
16898TIP3   OH272108   0.135   3.038  12.463 -0.0316 -0.2123  0.0620
16898TIP3    H172109   0.184   2.987  12.398  0.2451  1.8134 -1.4431
16898TIP3    H272110   0.070   2.977  12.498  0.1974 -1.5556 -1.7028
16899TIP3   OH272111   5.200   5.151   2.749 -0.1256 -0.0621  0.3358
16899TIP3    H172112   5.220   5.224   2.808  0.7982  2.1504 -2.5345
16899TIP3    H272113   5.280   5.138   2.699 -0.9134 -1.8076 -0.5452
16900TIP3   OH272114   0.805   5.999  15.948  0.4509  0.4173  0.3206
16900TIP3    H172115   0.743   6.061  15.986  0.4038  0.2658  0.4919
16900TIP3    H272116   0.809   6.023  15.856 -1.6069 -1.0137 -0.1995
16901TIP3   OH272117   0.249   1.216  15.508 -0.5393 -0.4154  0.2763
16901TIP3    H172118   0.256   1.291  15.566 -4.2243  1.8458 -1.7717
16901TIP3    H272119   0.155   1.200  15.501 -0.3860 -0.7917 -4.5031
16902TIP3   OH272120   0.764   3.790   3.503 -0.2868 -0.3764 -0.1521
16902TIP3    H172121   0.799   3.773   3.415 -1.1601 -0.4294 -0.4935
16902TIP3    H272122   0.689   3.732   3.511 -0.0660 -0.5597  0.7403
16903TIP3   OH272123   1.829   5.807   6.198  0.2420  0.2964 -0.4687
16903TIP3    H172124   1.867   5.804   6.110  1.9785  0.2042  0.2425
16903TIP3    H272125   1.860   5.889   6.236 -1.1230  0.7127 -0.1747
16904TIP3   OH272126   5.849   0.753  13.097  0.3209  0.3283  0.4890
16904TIP3    H172127   5.875   0.794  13.014  1.0207  0.9400  0.9902
16904TIP3    H272128   5.916   0.782  13.160 -1.6527  2.1798  1.9153
16905TIP3   OH272129   0.733   0.015  12.247 -0.7519  0.1282  1.1707
16905TIP3    H172130   0.717   0.104  12.279  0.7101  1.6353 -1.8304
16905TIP3    H272131   0.806   0.025  12.185 -0.4519 -3.2183  0.8086
16906TIP3   OH272132   3.793   4.629   2.413 -0.1357 -0.0503  0.4608
16906TIP3    H172133   3.804   4.550   2.361  0.5226  0.7529 -0.6703
16906TIP3    H272134   3.871   4.633   2.468  0.5876  0.5771 -0.5736
16907TIP3   OH272135   1.457   0.192  15.106 -0.6586  0.1769  0.0026
16907TIP3    H172136   1.515   0.155  15.173 -2.3204  0.3380  1.6431
16907TIP3    H272137   1.372   0.197  15.150 -1.2706  2.6972 -1.2874
16908TIP3   OH272138   2.508   0.159   3.912 -0.6734 -0.3009 -0.3788
16908TIP3    H172139   2.525   0.183   4.003  2.7686  0.1779 -1.0073
16908TIP3    H272140   2.501   0.064   3.913 -0.0047 -0.3527  0.3249
16909TIP3   OH272141   6.263   3.759  15.623 -0.6208  0.1213 -0.0316
16909TIP3    H172142   6.196   3.691  15.624  0.8864 -1.4656 -1.1107
16909TIP3    H272143   6.244   3.811  15.545 -1.3861  0.5601  0.4336
16910TIP3   OH272144   5.194   3.825  12.912 -0.6397  0.8401  0.3451
16910TIP3    H172145   5.114   3.820  12.964 -0.8330 -0.5382 -0.0501
16910TIP3    H272146   5.263   3.847  12.975 -0.9687 -0.2011  1.0792
16911TIP3   OH272147   2.181   0.981   4.893  0.1042  0.1245  0.1191
16911TIP3    H172148   2.202   0.892   4.863  2.6689  0.9435 -0.7550
16911TIP3    H272149   2.201   0.979   4.987 -3.4072 -1.1435  0.9766
16912TIP3   OH272150   3.097   5.863   2.358 -0.1506 -0.1509 -0.2266
16912TIP3    H172151   3.180   5.866   2.309  0.9482 -1.2930  1.4783
16912TIP3    H272152   3.121   5.887   2.448 -1.8746  0.4943  0.1066
16913TIP3   OH272153   1.923   6.345  11.757 -0.3583 -0.5547  0.0510
16913TIP3    H172154   1.838   6.300  11.759 -1.1833  0.8299 -1.3081
16913TIP3    H272155   1.953   6.344  11.848 -1.9599 -0.8459  0.6143
16914TIP3   OH272156   1.056   0.929   5.815 -0.3366  0.2157 -0.1397
16914TIP3    H172157   1.062   0.857   5.752 -2.1238 -0.7643  0.7128
16914TIP3    H272158   1.124   0.910   5.880 -1.0161 -0.9396  0.2616
16915TIP3   OH272159   4.687   4.140   2.641  0.6186 -0.4850  0.6733
16915TIP3    H172160   4.596   4.165   2.624  0.8991  0.8110  0.9607
16915TIP3    H272161   4.695   4.144   2.736  0.9181 -0.7813  0.6594
16916TIP3   OH272162   1.725   2.669  14.061 -0.4498  0.2274 -0.2356
16916TIP3    H172163   1.719   2.745  14.119 -1.6377  0.2225 -0.3107
16916TIP3    H272164   1.810   2.676  14.019  0.4965  0.1613  1.5992
16917TIP3   OH272165   0.533   5.334  12.225  0.1464 -0.0807  0.2732
16917TIP3    H172166   0.548   5.419  12.185 -0.9167  0.5794  1.2215
16917TIP3    H272167   0.476   5.352  12.300  1.2740 -1.3944  1.5104
16918TIP3   OH272168   1.125   3.844  14.962 -0.2577  0.0931 -0.2645
16918TIP3    H172169   1.154   3.766  14.915  0.8537 -0.6541  1.5315
16918TIP3    H272170   1.205   3.897  14.972 -0.8085  1.0161 -0.6236
16919TIP3   OH272171   6.311   0.966  13.835 -0.0220 -0.2176 -0.0365
16919TIP3    H172172   6.219   0.956  13.812 -0.4333  1.0251  1.0191
16919TIP3    H272173   6.317   1.051  13.879  1.8376  0.2997 -1.1521
16920TIP3   OH272174   4.000   2.461  15.796 -0.2982 -0.3117 -0.9317
16920TIP3    H172175   4.072   2.503  15.750 -0.5201  0.2049 -0.8226
16920TIP3    H272176   3.930   2.456  15.731 -0.7542  0.7959 -0.5681
16921TIP3   OH272177   4.083   2.507  14.072 -0.0746 -0.2424  0.4035
16921TIP3    H172178   4.176   2.528  14.064 -0.2965  0.8029  0.4318
16921TIP3    H272179   4.065   2.513  14.165 -0.4062  0.6497  0.2895
16922TIP3   OH272180   5.066   3.299   1.495 -0.4504  0.0126  0.7851
16922TIP3    H172181   5.062   3.388   1.531  0.1910  0.7922 -0.9536
16922TIP3    H272182   5.090   3.244   1.570 -0.6819  1.3174  1.8597
16923TIP3   OH272183   3.372   2.462  10.927  0.7358 -0.1931 -0.1035
16923TIP3    H172184   3.366   2.557  10.918  2.5264 -0.0395 -0.1306
16923TIP3    H272185   3.463   2.442  10.903  0.2504 -1.9767 -0.5889
16924TIP3   OH272186   0.431   3.396  14.727 -0.1854  0.2794  0.3706
16924TIP3    H172187   0.431   3.300  14.734 -0.5966  0.1400 -1.1923
16924TIP3    H272188   0.385   3.414  14.645 -1.6588  1.9066  1.4912
16925TIP3   OH272189   5.356   6.062  16.530  0.4770  0.2921 -0.6769
16925TIP3    H172190   5.420   6.111  16.480 -0.2161  1.4198 -0.4915
16925TIP3    H272191   5.408   6.008  16.590  1.2746 -0.0666 -1.6639
16926TIP3   OH272192   4.726   6.623  14.091 -0.2680  0.7506  0.1272
16926TIP3    H172193   4.810   6.580  14.109 -0.8430 -0.6034 -0.3232
16926TIP3    H272194   4.739   6.666  14.006 -0.2224 -0.0019 -0.2541
16927TIP3   OH272195   0.320   1.809   5.521  0.1280  0.3467  0.3405
16927TIP3    H172196   0.371   1.785   5.444  0.1709 -0.7296  0.6893
16927TIP3    H272197   0.247   1.860   5.487  0.7333  0.8117 -0.2921
16928TIP3   OH272198   2.010   5.054   4.041 -0.1664  0.4120 -0.0372
16928TIP3    H172199   2.104   5.070   4.033 -0.0167  0.7404  1.9222
16928TIP3    H272200   1.973   5.140   4.061 -0.6130 -0.0281  1.0978
16929TIP3   OH272201   6.079   5.504   2.381 -0.2169 -0.4068  0.0876
16929TIP3    H172202   6.039   5.448   2.315 -2.3673  0.8744  0.2266
16929TIP3    H272203   6.128   5.569   2.331 -0.2599 -0.5749 -0.1728
16930TIP3   OH272204   4.166   5.207  17.342  0.3241  0.3310  0.3364
16930TIP3    H172205   4.214   5.149  17.282 -1.4272 -1.2813  0.4090
16930TIP3    H272206   4.160   5.157  17.423  1.1483  1.7908  1.3434
16931TIP3   OH272207   6.207   0.392   3.481  0.1848  0.3880  0.0249
16931TIP3    H172208   6.286   0.370   3.431 -0.7992  0.1914 -1.5366
16931TIP3    H272209   6.170   0.308   3.506  0.9610  0.4916  1.6377
16932TIP3   OH272210   4.614   4.189   2.915 -0.1715  0.0737  0.1511
16932TIP3    H172211   4.547   4.124   2.897  0.4013 -0.2542 -0.8975
16932TIP3    H272212   4.603   4.210   3.008 -1.4455 -0.2637  0.0912
16933TIP3   OH272213   1.598   3.246   3.495 -0.3685 -0.6795 -0.2206
16933TIP3    H172214   1.669   3.308   3.513 -0.9115 -0.2645  0.5554
16933TIP3    H272215   1.521   3.287   3.534 -1.3551 -0.3943 -2.3843
16934TIP3   OH272216   6.232   1.675  15.674  0.3145  0.2322 -0.1359
16934TIP3    H172217   6.187   1.591  15.663 -0.3636  0.4074  1.1781
16934TIP3    H272218   6.163   1.736  15.698  1.2636  0.4533  2.2036
16935TIP3   OH272219   4.680   2.078   1.264 -0.0197  0.1702  0.3568
16935TIP3    H172220   4.764   2.060   1.222  0.3281  0.6419  0.8216
16935TIP3    H272221   4.694   2.053   1.356 -1.1886 -2.1384 -0.0227
16936TIP3   OH272222   5.143   1.055   2.103  0.5063 -0.4411  0.4958
16936TIP3    H172223   5.051   1.067   2.126 -0.1322 -2.7314 -0.5558
16936TIP3    H272224   5.160   1.123   2.037 -1.2785 -1.5774 -1.2816
16937TIP3   OH272225   5.980   5.844   4.453 -0.6966  0.2103  0.5823
16937TIP3    H172226   5.976   5.768   4.394 -0.4176 -0.4520  1.3901
16937TIP3    H272227   5.896   5.889   4.440 -1.9464 -1.5865  1.8206
16938TIP3   OH272228   3.104   1.125  12.663  0.0449 -0.1891  0.0559
16938TIP3    H172229   3.154   1.130  12.581  0.7174  0.8834  0.5067
16938TIP3    H272230   3.036   1.191  12.653 -0.5898 -0.8604 -0.0950
16939TIP3   OH272231   2.948   3.294   0.053 -0.1905  0.4605  0.5120
16939TIP3    H172232   2.866   3.280   0.004  0.4856  0.3632 -0.6332
16939TIP3    H272233   2.938   3.239   0.131 -0.0742 -1.8467 -0.9885
16940TIP3   OH272234   6.547   3.315   3.623 -0.7450 -0.1528  0.0457
16940TIP3    H172235   6.504   3.369   3.689 -4.3111 -0.2442 -1.9940
16940TIP3    H272236   6.479   3.257   3.591  1.0496 -0.7708 -3.0764
16941TIP3   OH272237   2.365   1.467  13.365 -0.4333  0.3820 -0.3003
16941TIP3    H172238   2.457   1.444  13.358 -0.8548 -1.6346  0.1796
16941TIP3    H272239   2.318   1.396  13.320 -1.8443  0.0702  1.5252
16942TIP3   OH272240   4.364   5.392  11.768  0.0576  0.3045 -0.4037
16942TIP3    H172241   4.274   5.376  11.796  0.7147 -3.4679  0.1262
16942TIP3    H272242   4.375   5.337  11.690  2.5547 -1.4788  1.0645
16943TIP3   OH272243   1.824   2.280   5.691  0.3425 -0.1684 -0.7247
16943TIP3    H172244   1.906   2.330   5.693 -0.0245  0.5562 -2.5593
16943TIP3    H272245   1.758   2.341   5.659 -0.8709 -0.8655  0.3036
16944TIP3   OH272246   4.560   2.804  13.177 -0.2447 -0.4703 -0.0396
16944TIP3    H172247   4.600   2.718  13.193 -1.3834 -0.8532  0.9014
16944TIP3    H272248   4.476   2.784  13.135 -0.1941  0.2366 -0.5003
16945TIP3   OH272249   2.050   4.934   4.570 -0.3315 -0.4010 -0.0514
16945TIP3    H172250   2.099   4.852   4.558 -1.3922 -1.2542  1.1606
16945TIP3    H272251   2.115   4.996   4.601  0.2479 -1.1574  0.2893
16946TIP3   OH272252   1.103   5.697   0.921  0.0552  0.4390  0.1407
16946TIP3    H172253   1.159   5.639   0.973  1.5437  0.9569 -0.8369
16946TIP3    H272254   1.023   5.646   0.907  0.7559 -0.8126  0.5266
16947TIP3   OH272255   4.722   3.159   1.974  0.1370 -0.1389 -0.1187
16947TIP3    H172256   4.783   3.219   1.930 -2.2136  1.3525 -1.5065
16947TIP3    H272257   4.771   3.077   1.980  2.8462  1.3742  0.2683
16948TIP3   OH272258   5.341   3.052   1.035 -0.4573  0.5460  0.2066
16948TIP3    H172259   5.294   2.975   1.003  0.0710 -0.3830  1.5324
16948TIP3    H272260   5.407   3.070   0.968 -1.9682  1.1962 -1.1492
16949TIP3   OH272261   1.857   2.127  14.021 -0.4685  0.7097 -0.7172
16949TIP3    H172262   1.865   2.060  13.953  0.9202  0.4446 -0.3123
16949TIP3    H272263   1.946   2.156  14.037 -0.4648 -0.5545  2.2888
16950TIP3   OH272264   6.240   2.535  16.482  0.0393 -0.1386  0.6310
16950TIP3    H172265   6.288   2.512  16.402  0.8710  1.5764  0.5752
16950TIP3    H272266   6.301   2.513  16.553 -1.3186 -3.2318  1.0120
16951TIP3   OH272267   1.504   5.313  12.514 -0.1161 -0.3852 -0.1625
16951TIP3    H172268   1.413   5.328  12.488 -0.1863 -0.6983 -0.0985
16951TIP3    H272269   1.551   5.389  12.479 -0.4513 -0.0611  0.0824
16952TIP3   OH272270   1.632   0.688   3.359 -0.6675  0.5217 -0.3564
16952TIP3    H172271   1.623   0.779   3.388 -1.8087  0.3771 -0.1945
16952TIP3    H272272   1.673   0.643   3.432 -0.6069  0.7965 -0.2197
16953TIP3   OH272273   5.286   2.076  16.809  0.1904  0.4662  0.5303
16953TIP3    H172274   5.324   1.990  16.790  1.8054  1.5295 -1.5065
16953TIP3    H272275   5.268   2.074  16.903 -0.2603 -2.2362  0.4633
16954TIP3   OH272276   1.737   3.789   3.952  0.3543  0.3718  0.1442
16954TIP3    H172277   1.824   3.827   3.964  0.9996 -1.0870  0.3468
16954TIP3    H272278   1.692   3.805   4.035  0.1110  1.8713 -0.2570
16955TIP3   OH272279   4.812   3.055   5.378  0.5034  0.8945 -0.4070
16955TIP3    H172280   4.804   3.125   5.312 -1.9060  0.9796 -0.1453
16955TIP3    H272281   4.791   3.098   5.461  0.7047  0.2021  0.0086
16956TIP3   OH272282   3.123   4.052   5.654  0.3193  0.0019 -0.8947
16956TIP3    H172283   3.152   4.082   5.740 -1.0734  0.6468 -0.6151
16956TIP3    H272284   3.181   3.979   5.633 -0.1758 -1.0948  1.2274
16957TIP3   OH272285   4.502   2.895  13.841 -0.1494  0.4246 -0.1377
16957TIP3    H172286   4.484   2.951  13.916 -0.2231  0.4681 -0.1887
16957TIP3    H272287   4.598   2.893  13.835 -0.1398  2.4767 -1.5965
16958TIP3   OH272288   2.776   4.970  16.124 -0.1285 -0.0280  0.0842
16958TIP3    H172289   2.863   4.938  16.147 -0.3154  0.1130  1.0414
16958TIP3    H272290   2.785   5.001  16.033  1.4560  2.1252  0.8767
16959TIP3   OH272291   6.070   1.416  13.721 -0.2432 -0.6053 -0.7328
16959TIP3    H172292   6.004   1.370  13.670 -1.9821 -0.6855  1.4321
16959TIP3    H272293   6.134   1.349  13.744  0.1544 -0.7224 -2.1297
16960TIP3   OH272294   0.534   5.501  12.885 -0.1047 -0.0575 -0.0576
16960TIP3    H172295   0.615   5.511  12.936 -2.1619  3.0348  3.1287
16960TIP3    H272296   0.491   5.425  12.923 -0.6745  1.0106  1.5443
16961TIP3   OH272297   3.379   4.168   2.563  0.0282  0.0064 -0.3401
16961TIP3    H172298   3.405   4.243   2.617 -0.2405 -0.8333  1.0263
16961TIP3    H272299   3.290   4.188   2.535  0.5580  0.9405 -1.3953
16962TIP3   OH272300   2.211   1.337  16.360  0.4240  0.1775 -0.4329
16962TIP3    H172301   2.287   1.345  16.418  0.6760 -2.1684 -0.3496
16962TIP3    H272302   2.135   1.345  16.419  0.6711 -1.4060  0.1330
16963TIP3   OH272303   1.988   4.509   5.305 -0.0520  0.0850 -0.1973
16963TIP3    H172304   2.070   4.460   5.292  0.9238  1.6096  0.0195
16963TIP3    H272305   1.975   4.509   5.400  0.5889  1.2237 -0.0968
16964TIP3   OH272306   1.508   4.979   1.047 -0.2240 -0.0750  0.2164
16964TIP3    H172307   1.542   4.892   1.068  0.0876 -0.3544 -1.3512
16964TIP3    H272308   1.575   5.019   0.991 -1.6728  0.0066 -1.5587
16965TIP3   OH272309   0.107   5.760  14.651  0.5839 -0.4307 -0.4193
16965TIP3    H172310   0.089   5.786  14.561 -2.3661 -0.5194  0.0380
16965TIP3    H272311   0.109   5.843  14.700 -1.3028 -0.4935 -0.1233
16966TIP3   OH272312   6.548   4.645   6.525  0.4036  0.0548 -0.2729
16966TIP3    H172313   6.485   4.707   6.488  1.9198  1.8657  0.0423
16966TIP3    H272314   6.493   4.574   6.560 -1.3186  0.5086 -1.8301
16967TIP3   OH272315   6.678   3.785   2.339 -0.5145  0.5273 -0.1440
16967TIP3    H172316   6.702   3.754   2.251  0.1011 -1.8961  0.7827
16967TIP3    H272317   6.584   3.772   2.344 -0.1170 -3.3977  0.8194
16968TIP3   OH272318   3.191   4.113   5.919 -0.6684  0.0740  0.6098
16968TIP3    H172319   3.118   4.172   5.940 -1.3161 -0.8468  1.0417
16968TIP3    H272320   3.266   4.150   5.966 -1.0792  0.5182  0.9302
16969TIP3   OH272321   4.676   3.288  13.933 -0.1138  0.6429 -0.0293
16969TIP3    H172322   4.606   3.240  13.888 -0.9667  2.6125 -0.8907
16969TIP3    H272323   4.659   3.273  14.026 -1.3621  0.6480 -0.2413
16970TIP3   OH272324   6.648   6.289   2.991 -0.2472 -0.1711 -0.5917
16970TIP3    H172325   6.625   6.336   2.911  0.4377  1.3285  0.0467
16970TIP3    H272326   6.571   6.234   3.010 -1.2035  0.9145 -1.2112
16971TIP3   OH272327   0.302   5.909   4.492 -0.2996 -0.0614  0.1109
16971TIP3    H172328   0.382   5.956   4.468 -0.1025  0.6937  2.0706
16971TIP3    H272329   0.233   5.952   4.442  0.3423  0.0420 -0.7132
16972TIP3   OH272330   3.179   2.390  12.642 -0.6260 -0.9790  0.0907
16972TIP3    H172331   3.242   2.318  12.642  0.7591  0.1910  1.0939
16972TIP3    H272332   3.174   2.417  12.734 -0.3256  0.8663 -0.4066
16973TIP3   OH272333   2.356   0.039  13.901 -0.0645 -0.3975 -0.2124
16973TIP3    H172334   2.313   0.119  13.928 -0.2504  0.5542 -3.0393
16973TIP3    H272335   2.449   0.055  13.918 -0.0824  0.5002 -0.9051
16974TIP3   OH272336   1.632   3.099  13.008 -0.1279 -0.3056  0.0337
16974TIP3    H172337   1.562   3.034  13.023  0.7375 -1.7230 -1.6375
16974TIP3    H272338   1.633   3.152  13.087 -0.6345 -2.5974  1.6650
16975TIP3   OH272339   2.068   4.570  16.930 -0.6380 -0.0053 -0.2056
16975TIP3    H172340   2.071   4.475  16.934 -1.6273 -0.0338  0.1734
16975TIP3    H272341   2.160   4.598  16.936 -0.4136 -0.8948  0.8742
16976TIP3   OH272342   2.712   2.576   0.451  0.4075 -1.0968 -0.1093
16976TIP3    H172343   2.762   2.632   0.510  1.1286 -0.4596 -1.2886
16976TIP3    H272344   2.670   2.512   0.508  2.6606 -1.7200  0.9300
16977TIP3   OH272345   5.642   3.081   2.115 -0.3569  0.1109 -0.1259
16977TIP3    H172346   5.654   3.047   2.026 -1.9877 -0.9454  0.0058
16977TIP3    H272347   5.559   3.043   2.143 -1.5883  3.1016  0.6005
16978TIP3   OH272348   4.102   3.228   0.294  0.1660 -0.6534 -0.5244
16978TIP3    H172349   4.175   3.282   0.326 -1.6194  0.6169  1.7249
16978TIP3    H272350   4.034   3.292   0.270 -1.1239 -1.8283 -0.1366
16979TIP3   OH272351   2.393   3.857   0.783  0.0527 -0.4274  0.3782
16979TIP3    H172352   2.336   3.782   0.802  0.5818 -0.5771  1.4462
16979TIP3    H272353   2.439   3.833   0.703 -1.0175 -0.5093 -0.2380
16980TIP3   OH272354   1.168   0.433   1.498  0.0244  0.6665  0.0977
16980TIP3    H172355   1.177   0.522   1.531  0.2843  0.8368 -0.4239
16980TIP3    H272356   1.255   0.411   1.464  0.0658  0.0739  0.5624
16981TIP3   OH272357   2.387   2.605   0.663  0.3405 -0.2003 -0.0592
16981TIP3    H172358   2.437   2.532   0.701  1.5788  1.5321  1.8646
16981TIP3    H272359   2.299   2.594   0.697  0.0197 -1.8160 -1.3226
16982TIP3   OH272360   0.323   4.957   0.329  0.0829 -0.2999  0.2456
16982TIP3    H172361   0.252   4.959   0.393  1.6181  0.8092  2.0325
16982TIP3    H272362   0.341   5.049   0.310 -2.4508 -0.4680 -4.4628
16983TIP3   OH272363   3.965   6.706  12.204 -0.2575  0.2721  0.1887
16983TIP3    H172364   3.889   6.747  12.163  0.7717  1.8996 -0.1898
16983TIP3    H272365   3.979   6.625  12.154 -0.6846  0.8445 -0.8777
16984TIP3   OH272366   0.211   1.927   3.920  0.1670  0.2217 -0.4686
16984TIP3    H172367   0.153   1.910   3.845 -0.1836  0.8116 -0.3390
16984TIP3    H272368   0.192   1.857   3.982 -0.7932  0.6972 -0.2102
16985TIP3   OH272369   1.962   3.477   5.912 -0.0140 -0.2366 -0.1654
16985TIP3    H172370   1.991   3.565   5.938 -2.1417  0.1611  1.1157
16985TIP3    H272371   1.982   3.471   5.819  1.5735  0.9882  0.0534
16986TIP3   OH272372   0.374   4.289   4.270 -0.1431 -0.0397 -0.4868
16986TIP3    H172373   0.447   4.261   4.214  0.5446 -0.3122  0.5159
16986TIP3    H272374   0.413   4.350   4.332 -0.7290 -0.3022  0.1566
16987TIP3   OH272375   0.860   6.354   0.563  0.2624 -0.1348  0.1396
16987TIP3    H172376   0.775   6.310   0.559 -0.3577  1.0599 -0.3673
16987TIP3    H272377   0.843   6.435   0.610  1.2439 -0.1342  0.5087
16988TIP3   OH272378   3.402   5.037   0.655 -0.2909  0.4282  0.3002
16988TIP3    H172379   3.308   5.025   0.672 -0.3109  2.2598  1.8159
16988TIP3    H272380   3.407   5.060   0.562 -1.2104 -0.7411 -0.0622
16989TIP3   OH272381   2.571   5.974  12.102 -0.5046 -0.0405  0.1797
16989TIP3    H172382   2.644   6.017  12.146  0.3288  0.8072 -1.9010
16989TIP3    H272383   2.553   6.030  12.026  0.0712 -2.8392 -2.2021
16990TIP3   OH272384   5.190   1.057   5.926 -0.2512 -0.1237  0.5259
16990TIP3    H172385   5.179   1.041   5.833  0.4666  0.4353  0.3396
16990TIP3    H272386   5.163   1.148   5.938  2.0609  0.6374  0.4022
16991TIP3   OH272387   0.935   3.677   3.253  0.0156 -0.0236 -0.1909
16991TIP3    H172388   1.000   3.683   3.323 -1.7646 -0.7283  1.5985
16991TIP3    H272389   0.951   3.754   3.198  0.2027  1.6700  2.1359
16992TIP3   OH272390   3.211   2.238  11.165 -0.9634 -0.4510 -0.4991
16992TIP3    H172391   3.124   2.276  11.175 -0.6298  0.0347  0.7779
16992TIP3    H272392   3.269   2.313  11.155 -0.3998 -0.6334  1.1886
16993TIP3   OH272393   3.352   1.938  13.641 -0.1136  0.4281 -0.0393
16993TIP3    H172394   3.401   2.020  13.632  0.0121  0.2639 -0.9520
16993TIP3    H272395   3.269   1.964  13.681  0.8918  0.6425  2.0429
16994TIP3   OH272396   2.126   3.737   3.258  0.3877  0.1243  0.1455
16994TIP3    H172397   2.186   3.714   3.188  0.1718  1.5836 -0.5618
16994TIP3    H272398   2.182   3.750   3.335  1.0725  1.7430 -0.5726
16995TIP3   OH272399   0.077   3.291   4.313 -0.2271  0.3135 -0.4200
16995TIP3    H172400   0.006   3.341   4.354 -0.0848 -0.8030  1.2469
16995TIP3    H272401   0.038   3.206   4.293  0.4333 -0.0384 -0.2109
16996TIP3   OH272402   4.810   3.907   0.348  0.2010 -0.0905 -0.1940
16996TIP3    H172403   4.738   3.946   0.298 -1.2869 -1.6626  0.6294
16996TIP3    H272404   4.888   3.953   0.317 -0.8778  0.2506 -2.6086
16997TIP3   OH272405   3.774   2.031  13.104 -0.5681 -0.2909  0.1931
16997TIP3    H172406   3.865   2.032  13.136 -0.5431  0.8646  0.1245
16997TIP3    H272407   3.740   2.117  13.127 -1.2625 -0.2557 -0.9185
16998TIP3   OH272408   6.317   1.011  12.217 -0.1143  0.1401  0.2854
16998TIP3    H172409   6.412   1.014  12.232  0.0211 -0.9303 -0.2760
16998TIP3    H272410   6.308   1.015  12.122 -0.5122 -1.9320  0.2073
16999TIP3   OH272411   2.721   6.047   2.075  0.1725  0.0828 -0.6631
16999TIP3    H172412   2.723   5.953   2.057 -0.3637  0.1618 -1.1604
16999TIP3    H272413   2.808   6.067   2.109 -0.0490 -0.8007  0.4848
17000TIP3   OH272414   2.459   1.923  15.249 -0.1046 -0.4342  0.2097
17000TIP3    H172415   2.487   1.873  15.326  0.3962 -0.0298  0.2994
17000TIP3    H272416   2.428   2.006  15.285  1.7163  0.4484 -0.1035
17001TIP3   OH272417   1.957   0.887   4.000  0.0980  0.7593 -0.7976
17001TIP3    H172418   1.873   0.932   3.996  0.1311  1.2161  1.6782
17001TIP3    H272419   1.942   0.814   4.061  0.7697 -0.9811 -2.6029
17002TIP3   OH272420   6.005   5.728   0.237  0.6261 -0.2733 -0.2629
17002TIP3    H172421   5.958   5.665   0.182  2.7427 -1.4759 -0.8215
17002TIP3    H272422   6.076   5.761   0.181  1.4157  0.2479  1.0030
17003TIP3   OH272423   1.739   5.029  16.686  0.7811  0.2502 -0.0845
17003TIP3    H172424   1.683   5.085  16.631  1.3552  0.1622 -0.7811
17003TIP3    H272425   1.694   5.025  16.770 -0.0574  0.5056 -0.5059
17004TIP3   OH272426   1.790   3.054  12.537 -0.0276  0.1955 -0.3654
17004TIP3    H172427   1.709   3.064  12.487 -1.0477 -3.2032  0.3698
17004TIP3    H272428   1.772   2.983  12.599  3.2833 -0.1953  0.3529
17005TIP3   OH272429   2.662   6.002   3.178 -0.3239 -0.3720 -0.1450
17005TIP3    H172430   2.600   6.058   3.225  0.6754  0.1980  0.5246
17005TIP3    H272431   2.674   6.045   3.093 -0.6184 -0.3313 -0.1677
17006TIP3   OH272432   0.259   6.537   3.145  0.2162  0.1773 -0.5550
17006TIP3    H172433   0.251   6.632   3.155  0.1626  0.1123  0.0205
17006TIP3    H272434   0.300   6.507   3.226  2.0532 -0.0710 -1.5310
17007TIP3   OH272435   4.601   2.239  14.276 -0.2193 -0.0191 -0.1862
17007TIP3    H172436   4.556   2.321  14.297  0.3759  0.6522 -1.4572
17007TIP3    H272437   4.592   2.230  14.182  1.8814 -0.1060 -0.4287
17008TIP3   OH272438   6.523   6.430   1.615  0.7319  0.2660 -0.1426
17008TIP3    H172439   6.542   6.416   1.523  0.9410  0.2147 -0.0928
17008TIP3    H272440   6.449   6.372   1.634  0.3035  0.7098 -0.4186
17009TIP3   OH272441   0.354   1.808  12.133  0.1895 -0.4174  0.0541
17009TIP3    H172442   0.282   1.760  12.092  0.9675 -1.7626  0.1692
17009TIP3    H272443   0.422   1.741  12.147  1.0202  0.5754  0.9760
17010TIP3   OH272444   6.607   2.553  14.969  0.2770  0.3723 -0.0292
17010TIP3    H172445   6.542   2.600  15.022 -1.4801 -1.7033 -0.1853
17010TIP3    H272446   6.583   2.572  14.879  0.3913  0.2546 -0.0853
17011TIP3   OH272447   1.083   4.783   1.571  0.4320  0.0941 -0.7286
17011TIP3    H172448   1.031   4.858   1.546 -1.2562 -0.1018  1.8446
17011TIP3    H272449   1.168   4.820   1.595  0.2256  0.9156 -1.2198
17012TIP3   OH272450   5.244   2.152   5.219 -0.4644 -0.2424 -0.4216
17012TIP3    H172451   5.159   2.120   5.189 -1.4732 -0.6427  2.4740
17012TIP3    H272452   5.224   2.201   5.299  1.8803  1.0998 -0.5684
17013TIP3   OH272453   4.519   1.245   2.780  0.5461 -0.1450 -0.1919
17013TIP3    H172454   4.486   1.326   2.741  0.8294 -0.0966 -0.3319
17013TIP3    H272455   4.441   1.193   2.798  0.3920 -0.0423 -0.5508
17014TIP3   OH272456   2.633   2.147   1.619  0.9259 -0.0621  0.6389
17014TIP3    H172457   2.717   2.131   1.660  0.7503 -0.2914  0.9095
17014TIP3    H272458   2.647   2.225   1.565  1.7923 -1.1351 -0.7319
17015TIP3   OH272459   5.762   1.328   4.412 -0.0418  0.8585  0.1738
17015TIP3    H172460   5.784   1.414   4.448  0.1447  0.5888  0.7172
17015TIP3    H272461   5.834   1.271   4.439  0.5931  0.8380 -1.4457
17016TIP3   OH272462   4.536   1.489  15.683  0.0416  0.3106  0.1878
17016TIP3    H172463   4.494   1.436  15.615 -0.4925  1.3315 -0.3091
17016TIP3    H272464   4.496   1.576  15.673  1.1502  0.9009  0.7324
17017TIP3   OH272465   5.004   0.344   5.626 -0.4968  0.1683  0.0355
17017TIP3    H172466   4.951   0.278   5.670 -0.2122  0.5204  0.9340
17017TIP3    H272467   4.942   0.413   5.603 -0.6365  0.0121 -0.0590
17018TIP3   OH272468   5.766   6.736  13.618  0.4645 -0.5848  0.0687
17018TIP3    H172469   5.705   6.792  13.666 -0.4130 -1.2262 -0.2598
17018TIP3    H272470   5.832   6.711  13.682 -0.8385 -1.6494  1.0471
17019TIP3   OH272471   6.224   4.455  11.704  0.8528  0.3051 -0.2684
17019TIP3    H172472   6.300   4.452  11.646  1.7205 -1.4127  0.8725
17019TIP3    H272473   6.181   4.370  11.691  0.7653  0.1084  1.1729
17020TIP3   OH272474   2.350   3.786   0.062  0.2181 -0.7751 -0.1640
17020TIP3    H172475   2.378   3.744   0.143 -2.2283 -0.2286  1.0719
17020TIP3    H272476   2.300   3.863   0.090  0.3538  0.1447 -2.2367
17021TIP3   OH272477   1.465   5.650   3.662  0.0818 -0.4151  0.3404
17021TIP3    H172478   1.504   5.709   3.598  1.1139 -0.1342  1.1896
17021TIP3    H272479   1.535   5.633   3.725 -0.5583 -1.5879  0.7765
17022TIP3   OH272480   3.799   0.473   3.434  0.2531  0.0691 -0.7179
17022TIP3    H172481   3.864   0.530   3.475 -0.3387  0.6557 -0.5742
17022TIP3    H272482   3.715   0.513   3.456 -0.1210 -0.1668 -1.6789
17023TIP3   OH272483   0.110   0.082   5.117 -0.4493  0.0190  0.3625
17023TIP3    H172484   0.038   0.114   5.063  1.0601  2.2253 -0.4988
17023TIP3    H272485   0.185   0.135   5.091  1.3238 -1.6151  1.8009
17024TIP3   OH272486   6.100   6.608  14.389  0.3039 -0.4061 -0.3492
17024TIP3    H172487   6.177   6.605  14.333  0.4181 -0.0005 -0.2165
17024TIP3    H272488   6.094   6.520  14.426  0.7565 -0.4168 -0.2909
17025TIP3   OH272489   1.667   5.967   4.547  0.0607  0.0541  0.7254
17025TIP3    H172490   1.709   5.945   4.630  0.1317  2.3508  1.3568
17025TIP3    H272491   1.590   5.910   4.543  1.9643 -2.7234  0.5596
17026TIP3   OH272492   1.897   4.627   5.720 -0.0212 -0.2409 -0.1271
17026TIP3    H172493   1.988   4.610   5.694  0.4223  1.6263  0.0254
17026TIP3    H272494   1.863   4.681   5.648 -0.8799 -0.5733  0.0273
17027TIP3   OH272495   3.903   0.795   5.475  0.2567 -0.1560 -0.1326
17027TIP3    H172496   3.864   0.817   5.560 -0.3611  1.5536 -0.8180
17027TIP3    H272497   3.888   0.701   5.466  0.6994 -0.4645  1.8244
17028TIP3   OH272498   4.595   5.771  15.166 -0.0133  0.3447  0.0168
17028TIP3    H172499   4.499   5.774  15.170 -0.2036 -1.4962 -1.5904
17028TIP3    H272500   4.622   5.750  15.255 -1.0051  1.7875  0.7029
17029TIP3   OH272501   5.115   2.116  13.931 -0.0059 -0.2019  0.0887
17029TIP3    H172502   5.060   2.047  13.894  1.2119 -1.2648  0.2137
17029TIP3    H272503   5.181   2.131  13.864  0.9031 -0.5686  0.8878
17030TIP3   OH272504   0.076   2.223  14.696 -0.6781 -0.1888 -0.3526
17030TIP3    H172505   0.097   2.304  14.743  1.1111 -0.0915 -1.2504
17030TIP3    H272506   0.086   2.154  14.762  1.9337 -0.0693 -0.5328
17031TIP3   OH272507   3.386   2.278  15.971 -0.1224  0.2309  0.8245
17031TIP3    H172508   3.474   2.303  15.997  0.4063 -0.2914 -0.3541
17031TIP3    H272509   3.351   2.354  15.925 -0.2855  0.4309  1.2753
17032TIP3   OH272510   3.521   2.315  13.640  0.9243 -0.5731 -0.1424
17032TIP3    H172511   3.453   2.382  13.642  1.1939 -0.3085  0.7413
17032TIP3    H272512   3.484   2.242  13.689  1.6358 -0.0462  1.2467
17033TIP3   OH272513   4.535   3.248   6.593 -0.3608 -0.2040 -0.1111
17033TIP3    H172514   4.479   3.210   6.661 -0.4197 -1.4085 -0.8085
17033TIP3    H272515   4.486   3.324   6.562 -1.3100 -0.8497 -0.2346
17034TIP3   OH272516   4.814   0.522   0.174 -0.2194 -0.4173 -0.2034
17034TIP3    H172517   4.878   0.452   0.164 -1.2528 -1.3458 -0.5363
17034TIP3    H272518   4.765   0.521   0.091 -0.5338  0.4132 -0.0388
17035TIP3   OH272519   0.188   4.240   1.329 -0.6532 -0.6273  0.1667
17035TIP3    H172520   0.128   4.314   1.320  1.1077  0.8196 -0.4562
17035TIP3    H272521   0.253   4.270   1.393  1.2365 -0.7466 -1.5816
17036TIP3   OH272522   2.153   5.326   1.595  0.7574 -0.3752  0.5328
17036TIP3    H172523   2.086   5.289   1.652 -0.3643  1.7141  0.6746
17036TIP3    H272524   2.114   5.406   1.560  2.3082 -0.3424 -1.3044
17037TIP3   OH272525   1.656   3.622   0.496  0.0591  0.2741  0.3364
17037TIP3    H172526   1.704   3.546   0.463 -1.1273 -1.3997  2.2828
17037TIP3    H272527   1.600   3.588   0.565 -3.2150  2.2792 -1.0774
17038TIP3   OH272528   3.407   6.162   6.272 -0.6987  0.1089 -0.0055
17038TIP3    H172529   3.389   6.075   6.235 -0.0569 -0.7748  1.6810
17038TIP3    H272530   3.323   6.207   6.270 -1.2395 -0.8880 -0.0571
17039TIP3   OH272531   3.448   6.435   2.279  0.2582  0.5508  0.3732
17039TIP3    H172532   3.433   6.460   2.188  0.8362 -2.2109 -0.5914
17039TIP3    H272533   3.542   6.420   2.285  0.6263  3.0154  2.1641
17040TIP3   OH272534   2.178   5.336   2.417  0.4741  0.0229  0.1650
17040TIP3    H172535   2.163   5.407   2.354 -0.5389 -0.4344 -0.1216
17040TIP3    H272536   2.271   5.316   2.408  0.0639 -1.0924 -2.3545
17041TIP3   OH272537   5.035   6.166  11.464  0.6353  0.5907  0.5764
17041TIP3    H172538   5.091   6.099  11.423 -2.2922 -1.7088 -0.0142
17041TIP3    H272539   5.066   6.170  11.554  2.7983  0.6791 -0.1135
17042TIP3   OH272540   3.872   5.432   3.980  0.3988  0.2592  0.1484
17042TIP3    H172541   3.961   5.433   3.944  1.0588 -0.3909  1.6354
17042TIP3    H272542   3.872   5.505   4.043 -0.4978  0.9493 -0.6317
17043TIP3   OH272543   0.289   2.690  15.731 -0.3712 -0.3443  0.6263
17043TIP3    H172544   0.196   2.700  15.752 -0.6593 -2.4325  0.5008
17043TIP3    H272545   0.291   2.684  15.635  0.0736  1.0004  0.5244
17044TIP3   OH272546   0.085   6.746  13.764  0.4223  0.3560 -0.0666
17044TIP3    H172547   0.062   6.656  13.741  0.3922  0.2057  0.5339
17044TIP3    H272548   0.179   6.752  13.748  0.6284 -0.1149  0.9440
17045TIP3   OH272549   4.774   1.038  16.677  0.5624  0.3595 -0.0926
17045TIP3    H172550   4.695   1.088  16.698  0.1963 -0.0131 -0.5577
17045TIP3    H272551   4.845   1.087  16.719  0.2001  1.2111 -0.4512
17046TIP3   OH272552   6.115   0.934   0.800  0.5434 -0.0394  0.2980
17046TIP3    H172553   6.127   0.916   0.893 -1.4673  0.6696  0.7458
17046TIP3    H272554   6.157   1.019   0.786  2.9271 -1.1742 -0.0375
17047TIP3   OH272555   1.966   3.434  12.776  0.0864  0.1326 -0.1614
17047TIP3    H172556   1.909   3.385  12.835  1.4958 -1.5613 -0.1246
17047TIP3    H272557   2.039   3.463  12.831 -0.2413  1.4568 -0.3992
17048TIP3   OH272558   0.563   0.885  16.594  0.0750  0.3486  0.1722
17048TIP3    H172559   0.483   0.841  16.566  0.7893 -0.8851 -0.0040
17048TIP3    H272560   0.560   0.970  16.549 -1.2476  0.4422  0.3863
17049TIP3   OH272561   4.767   3.123   4.962 -0.2249 -0.3675 -0.3936
17049TIP3    H172562   4.774   3.194   5.027 -0.2723 -0.6513 -0.0743
17049TIP3    H272563   4.685   3.079   4.984  0.3268 -1.1829  0.0939
17050TIP3   OH272564   1.677   5.577  13.727  0.1559 -0.5066  0.3664
17050TIP3    H172565   1.661   5.497  13.777 -2.5039  0.2547  0.8719
17050TIP3    H272566   1.595   5.593  13.680 -0.1507  2.8878  1.7542
17051TIP3   OH272567   4.744   4.554  14.770 -0.0773 -0.0052 -0.1890
17051TIP3    H172568   4.779   4.588  14.852 -0.8159  2.0532 -0.6778
17051TIP3    H272569   4.742   4.629  14.711 -1.9325 -0.8608 -1.3101
17052TIP3   OH272570   5.032   2.735   4.953  0.4542  0.4422 -0.1593
17052TIP3    H172571   5.039   2.746   5.048 -2.5904  0.6385  0.1540
17052TIP3    H272572   5.021   2.825   4.920  3.4336  0.5923 -1.0302
17053TIP3   OH272573   0.791   5.941   0.009  0.5608 -0.7315  0.3137
17053TIP3    H172574   0.832   5.930  -0.077 -1.6903 -0.5282 -0.8429
17053TIP3    H272575   0.699   5.958  -0.010  0.6673  3.7593  2.5253
17054TIP3   OH272576   0.159   3.434   2.304  0.0406  0.1929 -0.1920
17054TIP3    H172577   0.131   3.525   2.304  0.8046  0.4461 -0.8552
17054TIP3    H272578   0.210   3.424   2.385 -2.6292 -0.5298  1.5129
17055TIP3   OH272579   4.341   6.141  15.418  0.1530 -0.4976  0.3623
17055TIP3    H172580   4.287   6.063  15.409  0.8206 -0.8410 -0.8542
17055TIP3    H272581   4.308   6.184  15.497 -1.1890 -1.2379  0.2348
17056TIP3   OH272582   3.747   2.737  15.801  0.0951  0.3956 -0.2849
17056TIP3    H172583   3.817   2.801  15.783  0.9320 -1.1321 -3.0359
17056TIP3    H272584   3.714   2.714  15.715 -0.7939 -2.1995  0.6827
17057TIP3   OH272585   4.258   1.501   2.963 -0.3814  0.1791  0.2729
17057TIP3    H172586   4.173   1.544   2.967 -0.3827  0.1343  0.8595
17057TIP3    H272587   4.265   1.452   3.045 -0.1618 -0.5345 -0.1562
17058TIP3   OH272588   5.679   0.204  13.741 -0.6053  0.0362 -0.1440
17058TIP3    H172589   5.678   0.293  13.704  0.4384  0.0033 -0.2829
17058TIP3    H272590   5.680   0.219  13.836  0.0595  0.2024 -0.1654
17059TIP3   OH272591   6.152   4.319   2.738  0.1355  0.8203  0.3239
17059TIP3    H172592   6.248   4.317   2.744  0.1330  1.1572  0.4671
17059TIP3    H272593   6.131   4.411   2.724 -0.1018  0.6015 -0.8409
17060TIP3   OH272594   4.750   2.687  17.333  0.4446 -0.0995  0.2808
17060TIP3    H172595   4.726   2.644  17.416  2.7073  0.8639  1.5316
17060TIP3    H272596   4.834   2.649  17.310 -0.9835 -1.7887 -2.7438
17061TIP3   OH272597   4.330   5.829  12.823 -0.2320 -0.2438 -0.3974
17061TIP3    H172598   4.240   5.833  12.791 -1.2743  0.3723  2.3521
17061TIP3    H272599   4.324   5.789  12.910  2.0054  0.6563  0.2673
17062TIP3   OH272600   0.386   4.592   3.296 -0.0739 -0.2575  1.1834
17062TIP3    H172601   0.481   4.590   3.284  0.1616  0.0561  2.7776
17062TIP3    H272602   0.352   4.526   3.236  1.0979 -0.0199  0.2278
17063TIP3   OH272603   4.603   4.710   1.683 -0.3204 -0.4051 -0.6982
17063TIP3    H172604   4.526   4.737   1.734 -0.6951  0.0016 -1.4561
17063TIP3    H272605   4.569   4.644   1.623 -0.7305  1.7171 -2.9451
17064TIP3   OH272606   0.104   0.245   4.615  0.1584  0.3897  0.3270
17064TIP3    H172607   0.041   0.202   4.558 -0.3700  1.1608  0.3178
17064TIP3    H272608   0.066   0.240   4.702  0.8342 -0.5361  0.5877
17065TIP3   OH272609   6.648   0.954  13.751 -0.2116  0.4492 -0.1533
17065TIP3    H172610   6.743   0.963  13.752 -0.3308  1.8547  0.2484
17065TIP3    H272611   6.615   1.044  13.744 -1.5149 -0.0124 -0.2929
17066TIP3   OH272612   6.330   6.161  16.528  0.1179  0.0972  0.6628
17066TIP3    H172613   6.288   6.243  16.551  0.2731  0.2002  0.5829
17066TIP3    H272614   6.319   6.153  16.433  0.3534  0.1675  0.6291
17067TIP3   OH272615   1.037   1.851  15.924 -0.3500 -0.0395  0.5318
17067TIP3    H172616   1.098   1.799  15.870 -1.7956 -1.3919  0.1347
17067TIP3    H272617   1.039   1.809  16.010  0.2988  0.7793  0.9360
17068TIP3   OH272618   0.495   2.851  12.401  0.5275 -0.3306 -0.0599
17068TIP3    H172619   0.532   2.938  12.416  1.2025 -0.5738 -0.2795
17068TIP3    H272620   0.473   2.850  12.308 -3.5302  1.1305  0.7062
17069TIP3   OH272621   1.231   1.213  17.179 -0.2378 -0.2148  0.0196
17069TIP3    H172622   1.265   1.268  17.108 -0.8971 -1.5414 -1.3878
17069TIP3    H272623   1.142   1.191  17.152 -0.0202 -1.8794  0.5763
17070TIP3   OH272624   5.837   0.815  15.377  0.5498  0.3681  0.4723
17070TIP3    H172625   5.810   0.781  15.463 -0.4797 -1.9445 -0.6599
17070TIP3    H272626   5.883   0.742  15.336 -1.9570  0.1110 -2.2197
17071TIP3   OH272627   3.539   3.406   4.997  0.1121 -0.2740 -0.1220
17071TIP3    H172628   3.512   3.315   5.004  0.9731 -0.5328 -0.0405
17071TIP3    H272629   3.629   3.402   4.964  0.7210  0.4654  1.3373
17072TIP3   OH272630   4.873   4.743  11.775 -0.0096  0.0677  0.4284
17072TIP3    H172631   4.807   4.804  11.807 -0.3992 -0.2898  0.3152
17072TIP3    H272632   4.831   4.657  11.780  0.2177 -0.0901 -0.2443
17073TIP3   OH272633   6.731   5.911   2.287  0.3647 -0.0228  0.1129
17073TIP3    H172634   6.723   5.817   2.303 -1.8945 -0.0619 -0.9496
17073TIP3    H272635   6.700   5.952   2.368 -1.8330 -0.2379 -0.5637
17074TIP3   OH272636   3.473   4.972  14.639 -0.3403  0.1951  0.0824
17074TIP3    H172637   3.513   4.942  14.558 -2.4152 -0.3897 -0.8139
17074TIP3    H272638   3.400   5.027  14.610 -0.0248  1.4875  1.6080
17075TIP3   OH272639   3.009   4.377  16.892 -0.0503  0.8314  0.2305
17075TIP3    H172640   3.073   4.448  16.897  0.6367  0.2908 -0.6154
17075TIP3    H272641   2.953   4.400  16.819 -0.7026  1.1913  0.8314
17076TIP3   OH272642   2.574   0.262  11.138 -0.0309 -0.0216  0.1543
17076TIP3    H172643   2.641   0.194  11.146  0.6787  0.6852  0.3099
17076TIP3    H272644   2.623   0.342  11.118 -0.9784  0.1347 -1.7448
17077TIP3   OH272645   5.685   4.722  17.258 -0.0426  0.3626  0.3596
17077TIP3    H172646   5.659   4.779  17.330 -1.0677 -0.9823  1.0909
17077TIP3    H272647   5.666   4.773  17.179 -0.6038  1.1662  0.9938
17078TIP3   OH272648   0.937   1.858  12.360 -0.2227  0.0491 -0.6725
17078TIP3    H172649   0.869   1.879  12.425  0.1251 -1.4219  0.2003
17078TIP3    H272650   0.891   1.805  12.294  0.2463 -1.8419  0.4555
17079TIP3   OH272651   5.081   3.783   3.914  0.5992  0.0720 -0.3483
17079TIP3    H172652   5.059   3.746   3.999 -1.7872 -0.0392 -0.9240
17079TIP3    H272653   5.066   3.711   3.852 -0.0823  0.8044 -1.0658
17080TIP3   OH272654   0.878   1.059   5.520 -0.1887  0.1011  0.1063
17080TIP3    H172655   0.898   1.122   5.589 -1.7549  1.2800 -0.4676
17080TIP3    H272656   0.819   0.996   5.561  0.5970 -0.4647  0.4046
17081TIP3   OH272657   1.132   2.898  12.480 -0.1473  0.1800 -0.3750
17081TIP3    H172658   1.187   2.857  12.546 -0.3265 -0.5590 -0.6826
17081TIP3    H272659   1.191   2.954  12.430  0.3198 -0.5629 -0.6648
17082TIP3   OH272660   3.683   6.495   3.262  0.0698 -0.2541 -0.3124
17082TIP3    H172661   3.777   6.496   3.240 -0.1528  0.0202 -1.3161
17082TIP3    H272662   3.680   6.521   3.354  0.8960  1.1630 -0.6491
17083TIP3   OH272663   4.787   3.085  11.834  0.5558 -0.1233  0.3061
17083TIP3    H172664   4.845   3.085  11.910  0.7708  1.5970  0.1705
17083TIP3    H272665   4.758   3.175  11.825  0.0557 -0.4072 -1.3118
17084TIP3   OH272666   1.841   5.406   3.013 -0.3075  0.4865 -0.3007
17084TIP3    H172667   1.811   5.389   2.924 -0.5233  2.9392 -0.7896
17084TIP3    H272668   1.921   5.354   3.022 -0.7667 -0.4927 -1.5871
17085TIP3   OH272669   4.081   4.710   5.811  0.1513  0.2824  0.0660
17085TIP3    H172670   4.168   4.723   5.849  1.6392  0.8723 -3.1728
17085TIP3    H272671   4.046   4.799   5.800 -0.8403  0.0572  1.1811
17086TIP3   OH272672   4.198   4.651   0.582  0.1753  0.5787  0.4356
17086TIP3    H172673   4.152   4.652   0.499  3.0539 -1.0337 -1.3589
17086TIP3    H272674   4.213   4.558   0.600  1.8538  0.9935  1.3774
17087TIP3   OH272675   1.008   5.083  13.161 -0.0094  0.0133  0.1105
17087TIP3    H172676   0.923   5.084  13.205 -0.1329  1.8209 -0.0940
17087TIP3    H272677   1.033   5.175  13.155  1.6966 -0.4456 -0.3709
17088TIP3   OH272678   5.585   0.842  13.674 -0.5525  0.0902 -0.3940
17088TIP3    H172679   5.676   0.852  13.645  0.3328 -1.7773  1.4472
17088TIP3    H272680   5.537   0.820  13.594  0.9310 -0.5198 -1.1609
17089TIP3   OH272681   3.913   6.182  15.277 -0.0525  0.1366  0.2418
17089TIP3    H172682   3.904   6.087  15.275 -1.2497  0.2084  1.4175
17089TIP3    H272683   3.932   6.203  15.368  0.8984  0.9903 -0.1305
17090TIP3   OH272684   4.033   4.586  15.906 -0.0847 -0.3505  0.0052
17090TIP3    H172685   4.015   4.679  15.893  0.7477 -0.3518 -1.4344
17090TIP3    H272686   4.121   4.574  15.870 -0.6527 -1.9190 -0.9729
17091TIP3   OH272687   0.160   0.027   3.548  0.0091  0.6042 -0.1940
17091TIP3    H172688   0.163   0.107   3.600  0.5176 -0.7197  1.9302
17091TIP3    H272689   0.253   0.005   3.533 -0.1220  1.0068 -1.8040
17092TIP3   OH272690   3.475   5.168  13.474 -0.5917 -0.3305  0.3488
17092TIP3    H172691   3.516   5.246  13.510  0.2289 -1.2811  1.5529
17092TIP3    H272692   3.486   5.177  13.379 -1.7406  1.6513  0.3509
17093TIP3   OH272693   2.066   1.180  12.400  0.1163  0.6348 -0.1742
17093TIP3    H172694   2.045   1.248  12.336  0.0560  1.4511  0.6968
17093TIP3    H272695   2.035   1.099  12.359 -1.3011  1.3243 -0.5405
17094TIP3   OH272696   5.789   2.987   0.331  0.6852  0.0521 -0.2691
17094TIP3    H172697   5.767   2.895   0.315 -0.9993  0.3019  0.3032
17094TIP3    H272698   5.884   2.990   0.330  0.8407 -1.9767  1.0913
17095TIP3   OH272699   4.969   6.266   0.092 -0.1672  0.7211  0.3992
17095TIP3    H172700   5.027   6.336   0.065  0.5048  0.1221  0.2591
17095TIP3    H272701   4.971   6.268   0.188 -0.3771  1.0751  0.3960
17096TIP3   OH272702   1.253   6.316   5.874 -0.0980  0.5006 -0.5471
17096TIP3    H172703   1.188   6.385   5.888 -1.0083 -0.0442 -1.9007
17096TIP3    H272704   1.236   6.253   5.943  0.3984  1.3498  0.3845
17097TIP3   OH272705   4.214   5.138  13.628 -0.2455 -0.4512 -0.2402
17097TIP3    H172706   4.185   5.142  13.537  0.8520 -1.7482 -0.6800
17097TIP3    H272707   4.240   5.228  13.649  0.6859 -0.3668 -1.6428
17098TIP3   OH272708   3.322   4.518  16.587 -0.1837  0.3747 -0.0238
17098TIP3    H172709   3.356   4.539  16.499 -0.4540  0.4421 -0.1119
17098TIP3    H272710   3.401   4.515  16.642  0.0898 -0.6084 -0.4477
17099TIP3   OH272711   0.111   3.240  12.155 -0.4797 -0.2498 -0.3965
17099TIP3    H172712   0.198   3.202  12.148 -0.8347 -1.5899  1.6758
17099TIP3    H272713   0.093   3.276  12.068  1.8259 -0.5726 -1.0583
17100TIP3   OH272714   1.788   6.197  14.514  0.7385 -0.2743 -0.0584
17100TIP3    H172715   1.757   6.115  14.552 -0.1631 -0.3927 -1.0079
17100TIP3    H272716   1.714   6.257  14.524  1.3207  0.3812  0.4418
17101TIP3   OH272717   3.167   3.450  16.058  0.0576  0.5569  0.0766
17101TIP3    H172718   3.139   3.537  16.030 -1.2132  0.0646 -0.2530
17101TIP3    H272719   3.131   3.391  15.992 -0.6992 -0.3870  1.3010
17102TIP3   OH272720   0.310   3.332   2.765  0.3490 -0.4295 -0.6205
17102TIP3    H172721   0.256   3.253   2.776  0.4169 -0.2828  0.9876
17102TIP3    H272722   0.336   3.331   2.673  0.9783 -2.6858 -0.4624
17103TIP3   OH272723   5.712   5.117   3.165 -0.0780  0.2517 -0.0510
17103TIP3    H172724   5.652   5.191   3.156 -0.0122  0.1912 -1.1092
17103TIP3    H272725   5.735   5.116   3.258 -1.9218  0.0925  0.4331
17104TIP3   OH272726   6.175   2.387   4.463 -0.6496  0.3191  0.1288
17104TIP3    H172727   6.174   2.309   4.407 -0.6794 -1.8250  2.9193
17104TIP3    H272728   6.096   2.435   4.437 -0.4249 -0.3134 -1.9240
17105TIP3   OH272729   2.712   2.815  12.309  0.0104 -0.1157 -0.5964
17105TIP3    H172730   2.623   2.801  12.343 -0.5531 -1.6652 -2.5322
17105TIP3    H272731   2.700   2.833  12.216  1.4842  4.1943 -0.2104
17106TIP3   OH272732   3.595   6.034   1.698  0.1562  0.0523 -1.1521
17106TIP3    H172733   3.527   6.101   1.690 -0.4255 -0.6925 -2.6972
17106TIP3    H272734   3.676   6.084   1.712 -0.2625  1.0823 -2.3033
17107TIP3   OH272735   3.201   2.970   3.600 -0.5325 -0.9208  0.0553
17107TIP3    H172736   3.222   2.985   3.508 -2.3415  0.1037 -0.2436
17107TIP3    H272737   3.206   3.056   3.641 -0.3585 -1.2656  0.7911
17108TIP3   OH272738   2.462   3.113   5.469  0.2278  0.4212  0.4459
17108TIP3    H172739   2.473   3.065   5.551 -0.6643 -1.1146 -0.2974
17108TIP3    H272740   2.540   3.169   5.464  0.6218  0.0776  2.0036
17109TIP3   OH272741   0.424   5.874   0.664  0.1082  0.1637 -0.1618
17109TIP3    H172742   0.436   5.925   0.744 -2.1010 -1.0051  1.0060
17109TIP3    H272743   0.346   5.912   0.623 -0.3267 -0.9323 -0.3720
17110TIP3   OH272744   2.718   3.925  16.389 -0.2877  0.1931 -0.1034
17110TIP3    H172745   2.645   3.960  16.338  0.0593  0.9129 -0.1157
17110TIP3    H272746   2.773   3.880  16.325 -0.5948 -0.1472 -0.1306
17111TIP3   OH272747   2.026   3.783   0.925 -0.0986 -0.2723 -0.0459
17111TIP3    H172748   2.041   3.863   0.976 -2.6082 -0.8114  1.7181
17111TIP3    H272749   2.011   3.814   0.836 -3.5607  1.6445  1.0093
17112TIP3   OH272750   1.262   3.167   5.885  0.1206 -0.0807  0.0380
17112TIP3    H172751   1.236   3.076   5.875 -0.1475  0.0604 -0.5649
17112TIP3    H272752   1.356   3.164   5.904  0.9889 -0.3513 -3.6104
17113TIP3   OH272753   5.827   4.718  17.010  0.4597  0.2650 -0.3375
17113TIP3    H172754   5.914   4.748  17.035  0.1778  1.4149 -0.6967
17113TIP3    H272755   5.799   4.663  17.084  1.0032  0.8595  0.3290
17114TIP3   OH272756   2.834   2.317  16.936 -0.3677 -0.4534 -0.3406
17114TIP3    H172757   2.835   2.221  16.937  0.8248 -0.4515  0.8432
17114TIP3    H272758   2.807   2.341  17.025 -0.2821  0.3149 -0.5197
17115TIP3   OH272759   1.238   5.456  11.320 -0.2695  0.2814  0.8034
17115TIP3    H172760   1.293   5.533  11.303  1.0128 -0.7665  0.0335
17115TIP3    H272761   1.165   5.465  11.260  1.3230 -0.4835 -1.3944
17116TIP3   OH272762   2.581   5.846  16.329 -0.1887  0.3915  0.1538
17116TIP3    H172763   2.512   5.910  16.308 -1.1885  0.4792  3.2773
17116TIP3    H272764   2.586   5.847  16.424  1.1292 -2.8368  0.2150
17117TIP3   OH272765   1.470   1.844   2.515  0.9666 -0.0322  0.4926
17117TIP3    H172766   1.386   1.872   2.552  1.0427  1.0496 -0.1219
17117TIP3    H272767   1.482   1.755   2.549 -1.2969 -0.9396 -0.8036
17118TIP3   OH272768   6.280   6.163  14.241  0.1322  0.3951 -0.0709
17118TIP3    H172769   6.344   6.114  14.189  0.9480  0.4468  0.8671
17118TIP3    H272770   6.304   6.146  14.332 -3.0603 -2.0897  0.4403
17119TIP3   OH272771   3.786   1.466   3.808 -0.2906 -0.1513 -0.5111
17119TIP3    H172772   3.821   1.493   3.893  0.0015 -0.6183 -0.4841
17119TIP3    H272773   3.768   1.549   3.763 -2.2911  0.1633  0.7261
17120TIP3   OH272774   2.873   3.807  16.763 -0.0026  0.1505 -0.0361
17120TIP3    H172775   2.801   3.797  16.702  0.8142 -1.4653 -0.8102
17120TIP3    H272776   2.921   3.724  16.757  2.8699  1.7244 -0.7974
17121TIP3   OH272777   2.916   0.657  15.511  0.4772 -0.1485 -0.0569
17121TIP3    H172778   2.920   0.752  15.514  0.4549  0.0463 -3.2628
17121TIP3    H272779   2.845   0.635  15.572  1.2953  1.7150  1.7042
17122TIP3   OH272780   1.928   5.804   5.939  1.0744  0.2905  0.3764
17122TIP3    H172781   1.993   5.853   5.890  1.0818  0.5550  0.6485
17122TIP3    H272782   1.959   5.713   5.935  0.0011 -0.0320 -1.8327
17123TIP3   OH272783   1.413   0.694   6.478 -0.1569 -0.0332  0.3599
17123TIP3    H172784   1.368   0.610   6.486 -0.7415  0.2613  0.2118
17123TIP3    H272785   1.347   0.753   6.441  0.2525  0.4871  0.4543
17124TIP3   OH272786   3.277   4.325  14.630  0.2986  0.7031  0.0071
17124TIP3    H172787   3.277   4.230  14.641  1.6149  0.5645 -0.9461
17124TIP3    H272788   3.187   4.352  14.651 -0.7063 -0.9996 -1.7732
17125TIP3   OH272789   0.386   5.895   0.929 -0.1007 -0.2939 -0.1652
17125TIP3    H172790   0.381   5.825   0.995  1.6460  0.2866  0.6534
17125TIP3    H272791   0.305   5.944   0.940 -0.3753 -0.9142  0.7307
17126TIP3   OH272792   6.670   3.646   5.595 -0.2626  0.1684  0.2346
17126TIP3    H172793   6.629   3.724   5.632  0.8688  1.8425 -1.8035
17126TIP3    H272794   6.760   3.649   5.625 -1.1288 -2.9668  3.8927
17127TIP3   OH272795   5.556   2.828  14.791  0.4900 -1.1207  0.7716
17127TIP3    H172796   5.538   2.864  14.705  0.5794 -1.2436  0.7010
17127TIP3    H272797   5.652   2.818  14.794  0.3827 -2.6325  0.2651
17128TIP3   OH272798   4.191   0.751   5.309  0.6440 -0.4046 -0.0258
17128TIP3    H172799   4.232   0.740   5.395 -0.2452  0.7487  0.5753
17128TIP3    H272800   4.147   0.667   5.293  0.1072 -0.3535  1.0558
17129TIP3   OH272801   0.405   3.885  14.825  0.3994  0.3709 -0.0482
17129TIP3    H172802   0.323   3.912  14.783  0.8040  2.2857  0.2730
17129TIP3    H272803   0.446   3.826  14.763 -0.9580 -0.1748 -0.4669
17130TIP3   OH272804   5.640   0.390  17.007  0.1479 -0.2090  0.3487
17130TIP3    H172805   5.685   0.421  17.086 -0.6426 -0.1953  0.8041
17130TIP3    H272806   5.613   0.301  17.029 -0.8528  0.1009  0.4313
17131TIP3   OH272807   2.128   5.864  15.037  0.3692 -0.4240  0.5068
17131TIP3    H172808   2.209   5.875  14.988  0.6523 -2.0237  0.5583
17131TIP3    H272809   2.059   5.863  14.970  0.1915  2.3014  0.5597
17132TIP3   OH272810   2.436   4.266   2.706  0.3381 -0.6357  0.0297
17132TIP3    H172811   2.449   4.292   2.614  0.3448  0.0517  0.2182
17132TIP3    H272812   2.357   4.211   2.705  0.7854 -1.2902 -0.4972
17133TIP3   OH272813   2.180   5.040  13.901 -0.3517 -0.3951 -0.3825
17133TIP3    H172814   2.127   5.071  13.827 -2.6120 -0.6390  1.0154
17133TIP3    H272815   2.116   4.997  13.959  1.3082 -0.1482  1.7502
17134TIP3   OH272816   2.676   4.169   1.066  0.0628 -0.1507 -0.1696
17134TIP3    H172817   2.731   4.139   1.138 -0.0188  1.6583  0.7156
17134TIP3    H272818   2.619   4.094   1.046 -1.0131 -0.2547  2.7611
17135TIP3   OH272819   2.798   2.497   1.800  0.3928  0.2228  0.1798
17135TIP3    H172820   2.852   2.572   1.775 -0.9315  1.1184 -0.1137
17135TIP3    H272821   2.787   2.506   1.895  0.9315 -0.0985  0.2789
17136TIP3   OH272822   4.008   4.570  13.746  0.4066 -0.0865  0.0282
17136TIP3    H172823   4.077   4.525  13.793  1.4209 -1.3798 -2.5214
17136TIP3    H272824   3.938   4.505  13.737  0.5766 -0.1401 -0.9703
17137TIP3   OH272825   1.804   5.110   0.525 -0.2413 -0.3152  0.0175
17137TIP3    H172826   1.870   5.098   0.593 -1.3107 -0.4684  1.0627
17137TIP3    H272827   1.751   5.184   0.555 -0.7706 -0.4303 -0.6041
17138TIP3   OH272828   6.727   2.766   2.164  0.3576 -0.2334 -0.4307
17138TIP3    H172829   6.770   2.729   2.240 -1.2569  1.0588  1.1964
17138TIP3    H272830   6.638   2.783   2.192  0.2901  2.3643 -1.8884
17139TIP3   OH272831   2.541   1.915  11.541 -0.2343 -0.2157 -0.3038
17139TIP3    H172832   2.634   1.936  11.532 -0.4603  0.0956 -2.3684
17139TIP3    H272833   2.497   2.001  11.540 -0.6585 -0.4199 -1.5575
17140TIP3   OH272834   1.687   5.069   3.076  0.2855 -0.3446 -0.3921
17140TIP3    H172835   1.629   5.143   3.058 -0.1945 -0.4486  0.6495
17140TIP3    H272836   1.630   4.992   3.075  0.5269 -0.5316 -0.0762
17141TIP3   OH272837   0.047   1.256  14.895  0.1175  0.2780  0.3322
17141TIP3    H172838   0.048   1.180  14.954  2.2855  0.3562  0.4847
17141TIP3    H272839  -0.026   1.309  14.925 -1.4614 -1.7079  0.2337
17142TIP3   OH272840   5.594   0.183  11.413 -0.0900 -0.5167 -0.0770
17142TIP3    H172841   5.621   0.265  11.453  0.6701 -0.8605  0.1354
17142TIP3    H272842   5.498   0.188  11.409 -0.1894 -0.4285  1.6867
17143TIP3   OH272843   2.424   2.503   1.844  0.1118  0.3289 -0.1428
17143TIP3    H172844   2.514   2.514   1.874  0.1804  1.2225 -0.6470
17143TIP3    H272845   2.370   2.524   1.920  0.3242 -1.7975  0.6538
17144TIP3   OH272846   4.044   6.276  13.843 -0.0890  0.1898  0.5647
17144TIP3    H172847   3.952   6.260  13.864 -0.2687  0.3485 -0.0575
17144TIP3    H272848   4.043   6.360  13.798  0.1992 -0.3387 -0.4577
17145TIP3   OH272849   1.943   5.998  11.846  0.1601 -0.2147  0.0438
17145TIP3    H172850   1.983   5.988  11.759  1.9192  0.2733  0.7557
17145TIP3    H272851   1.965   5.918  11.893  0.4828  0.1411  0.5105
17146TIP3   OH272852   3.212   1.064   1.616 -0.9565 -0.6323 -0.7903
17146TIP3    H172853   3.185   0.983   1.572 -0.7323 -0.7915 -0.6360
17146TIP3    H272854   3.301   1.081   1.584 -0.7457 -0.8180 -0.3056
17147TIP3   OH272855   4.729   4.059  12.164  0.1220  0.1667 -0.1669
17147TIP3    H172856   4.822   4.068  12.182  0.2133 -2.3154  1.0348
17147TIP3    H272857   4.718   3.968  12.137 -2.2620 -0.3488  2.1245
17148TIP3   OH272858   2.352   1.201   2.167  0.9660 -0.3912  0.6310
17148TIP3    H172859   2.356   1.160   2.080 -0.3324 -0.3016  0.5206
17148TIP3    H272860   2.344   1.127   2.228  2.4200 -0.4902  0.7497
17149TIP3   OH272861   6.451   4.370  15.986 -0.1144 -0.6079  0.0129
17149TIP3    H172862   6.502   4.440  15.946 -0.3458 -0.2194  0.3807
17149TIP3    H272863   6.488   4.360  16.074 -0.3925 -0.6084  0.1330
17150TIP3   OH272864   4.348   0.389  11.020 -0.3828  0.2509  0.6204
17150TIP3    H172865   4.339   0.313  11.078 -0.5141 -0.9651 -0.9176
17150TIP3    H272866   4.259   0.409  10.993 -0.3461  0.9697  1.0112
17151TIP3   OH272867   4.998   0.725  11.521 -0.0857  0.2291  0.2043
17151TIP3    H172868   4.925   0.690  11.571 -0.6012 -1.2849 -1.5018
17151TIP3    H272869   4.958   0.765  11.444  0.7967  0.7674  0.0115
17152TIP3   OH272870   1.177   3.519  15.560  0.5578  0.3723  0.7451
17152TIP3    H172871   1.184   3.570  15.479 -0.7443  0.9675  0.9762
17152TIP3    H272872   1.112   3.566  15.612  0.4284 -0.7114  1.5958
17153TIP3   OH272873   5.003   2.187  15.334  0.1461 -0.0356 -0.1387
17153TIP3    H172874   5.024   2.163  15.424 -0.2405  0.1010 -0.0059
17153TIP3    H272875   5.079   2.160  15.282  0.6712  0.5264  0.3280
17154TIP3   OH272876   5.165   3.106  13.827 -0.1972 -0.5932  0.0114
17154TIP3    H172877   5.236   3.147  13.875  1.3642 -2.6270 -0.3954
17154TIP3    H272878   5.209   3.044  13.768 -2.3224 -2.5209  0.3050
17155TIP3   OH272879   4.481   0.680  12.056  0.0112 -0.9108  0.6350
17155TIP3    H172880   4.555   0.631  12.092  0.1581 -0.0452  1.5982
17155TIP3    H272881   4.514   0.770  12.050 -0.2677 -0.9065 -1.0189
17156TIP3   OH272882   0.350   2.127   0.728  0.6224 -0.0185  0.3618
17156TIP3    H172883   0.336   2.222   0.727 -0.6338 -0.0704  3.0841
17156TIP3    H272884   0.439   2.115   0.696  1.8700  2.3850  2.5404
17157TIP3   OH272885   3.855   3.728   5.810  0.1636 -0.5321 -0.4500
17157TIP3    H172886   3.894   3.788   5.873 -2.0517  0.5946 -0.0458
17157TIP3    H272887   3.807   3.665   5.863  0.3397 -1.1061 -0.9548
17158TIP3   OH272888   5.855   3.284  14.693 -0.4877  0.3617 -1.0916
17158TIP3    H172889   5.896   3.305  14.609 -1.9722  0.2125 -1.8786
17158TIP3    H272890   5.922   3.234  14.740 -0.0127 -0.5167 -2.6272
17159TIP3   OH272891   1.122   0.132  15.387  0.2612  0.3676 -0.1123
17159TIP3    H172892   1.142   0.167  15.474 -0.5133 -0.3686  0.3787
17159TIP3    H272893   1.038   0.173  15.364 -0.6184 -1.0514  0.4374
17160TIP3   OH272894   3.932   6.536  13.735  0.0722  0.5436 -0.3081
17160TIP3    H172895   3.955   6.538  13.642 -2.1583  1.1750 -0.9159
17160TIP3    H272896   3.931   6.628  13.761  1.0236  0.3510  0.4606
17161TIP3   OH272897   5.642   0.999  15.210 -0.5733  0.1491  0.4755
17161TIP3    H172898   5.687   0.924  15.249  1.4952  0.6649 -0.7668
17161TIP3    H272899   5.673   1.001  15.119 -3.8807  0.0083 -0.8176
17162TIP3   OH272900   5.916   1.584   2.549  0.0334  0.0995 -0.4922
17162TIP3    H172901   5.873   1.606   2.631  2.7878  2.4280  0.4790
17162TIP3    H272902   5.886   1.650   2.487 -0.5416 -0.4753 -0.8359
17163TIP3   OH272903   2.882   6.052   4.902 -0.3054  0.0401 -0.8296
17163TIP3    H172904   2.913   5.984   4.841 -1.7703 -0.2023 -1.3407
17163TIP3    H272905   2.879   6.008   4.987  3.3941  0.8234 -0.0833
17164TIP3   OH272906   1.307   5.210   2.282  0.0036 -0.9621  0.6407
17164TIP3    H172907   1.347   5.256   2.355  0.1066 -0.1911  0.1101
17164TIP3    H272908   1.213   5.223   2.294 -0.0431 -1.7163  1.1948
17165TIP3   OH272909   1.415   3.717   5.930  0.1114  0.3033  0.4193
17165TIP3    H172910   1.367   3.669   5.862  0.3976  0.7175 -0.0852
17165TIP3    H272911   1.347   3.748   5.990 -0.1131 -0.3705  0.5251
17166TIP3   OH272912   0.324   5.287   2.037  0.6894 -0.0750 -0.5119
17166TIP3    H172913   0.230   5.269   2.028  0.6862  0.6225 -2.4067
17166TIP3    H272914   0.334   5.375   2.001  2.1896 -0.4562 -1.0740
17167TIP3   OH272915   2.214   3.273   4.939 -0.4920  0.3001 -0.7848
17167TIP3    H172916   2.207   3.178   4.943  0.1608  0.2639 -0.2255
17167TIP3    H272917   2.308   3.291   4.937 -0.6121  0.9221 -1.2499
17168TIP3   OH272918   4.251   4.879  15.841  0.3478 -0.2793 -0.1006
17168TIP3    H172919   4.259   4.968  15.876 -2.2364  0.7170 -1.6545
17168TIP3    H272920   4.257   4.891  15.746 -2.1606 -1.3531 -0.4813
17169TIP3   OH272921   2.207   2.957   5.273  0.2409  0.3544  0.4651
17169TIP3    H172922   2.216   3.022   5.204 -0.7954  1.1180  1.0253
17169TIP3    H272923   2.136   2.900   5.244  0.5027  0.0395  0.4266
17170TIP3   OH272924   0.188   6.331  15.627  0.6559 -0.1924 -0.3086
17170TIP3    H172925   0.261   6.367  15.576  0.1405  0.0453 -0.8902
17170TIP3    H272926   0.185   6.385  15.706  1.7873 -0.8813  0.2438
17171TIP3   OH272927   0.420   5.517   3.674 -0.6113  0.2980 -0.3135
17171TIP3    H172928   0.350   5.555   3.728 -1.8480 -0.3795 -1.3685
17171TIP3    H272929   0.374   5.477   3.601  0.9645  0.4978 -1.4606
17172TIP3   OH272930   1.110   2.352  12.163 -0.0739  0.3456  0.8557
17172TIP3    H172931   1.074   2.399  12.238 -0.1323 -0.7174  1.5198
17172TIP3    H272932   1.051   2.373  12.091 -2.3200 -1.5789  1.9771
17173TIP3   OH272933   4.351   3.262   1.100 -0.3383  0.7147  0.3335
17173TIP3    H172934   4.380   3.184   1.147 -0.1086  0.0196 -0.9075
17173TIP3    H272935   4.423   3.282   1.040 -1.4645  0.2983 -1.2206
17174TIP3   OH272936   6.294   3.578  13.853 -0.0443 -0.5358  0.3827
17174TIP3    H172937   6.325   3.665  13.830 -1.2869 -0.2843 -0.4340
17174TIP3    H272938   6.199   3.589  13.866 -0.5054 -2.0510 -1.3102
17175TIP3   OH272939   0.572   0.359   2.569 -0.0557 -0.1637 -0.5832
17175TIP3    H172940   0.494   0.360   2.624 -0.1333  0.4203 -0.6910
17175TIP3    H272941   0.554   0.293   2.503  0.9169 -2.4413  1.2957
17176TIP3   OH272942   6.368   4.048   3.993 -0.1017  0.6514 -0.5237
17176TIP3    H172943   6.417   3.968   4.013 -2.0662 -0.2325  0.9905
17176TIP3    H272944   6.432   4.118   4.007  0.9025 -0.4770  0.8673
17177TIP3   OH272945   3.702   5.278  16.837 -0.3274  0.1837 -0.5308
17177TIP3    H172946   3.714   5.363  16.795 -0.6861  0.0204 -0.9761
17177TIP3    H272947   3.677   5.299  16.927  0.0319  0.5449 -0.5137
17178TIP3   OH272948   0.996   3.332   1.030  0.1996 -0.5241 -0.7259
17178TIP3    H172949   1.056   3.275   1.079  0.2422 -0.1951 -0.3881
17178TIP3    H272950   0.912   3.320   1.073  0.3663  0.2442 -0.1523
17179TIP3   OH272951   1.121   2.913  13.860  0.1008 -0.5166  0.4103
17179TIP3    H172952   1.138   2.995  13.812 -0.4703 -0.2912  0.5799
17179TIP3    H272953   1.194   2.906  13.922  1.4745 -1.3990 -1.2289
17180TIP3   OH272954   5.005   2.148  15.605 -0.0280 -0.5938 -0.4295
17180TIP3    H172955   4.988   2.071  15.659  0.7286 -0.0663  0.5877
17180TIP3    H272956   4.939   2.211  15.633  0.2314 -0.3957 -0.2529
17181TIP3   OH272957   0.210   1.652  12.810 -0.8823  0.5743 -0.1873
17181TIP3    H172958   0.145   1.593  12.773 -0.0170  0.0390 -0.8911
17181TIP3    H272959   0.294   1.612  12.789 -0.3259  0.4799  1.9565
17182TIP3   OH272960   5.004   0.783   6.919  0.4695  0.0785 -0.2726
17182TIP3    H172961   5.046   0.869   6.910  1.6083 -0.3835  0.4375
17182TIP3    H272962   5.068   0.721   6.883  0.3151 -0.6250  0.6316
17183TIP3   OH272963   2.186   2.202   3.123 -0.2659  0.7532 -0.1008
17183TIP3    H172964   2.244   2.269   3.159 -2.5684  1.0761  3.5690
17183TIP3    H272965   2.237   2.121   3.128 -0.3740  0.6874  4.7836
17184TIP3   OH272966   4.057   1.325   5.927 -0.2664  0.3424  0.6944
17184TIP3    H172967   4.068   1.407   5.880  0.1263 -1.1967 -2.1917
17184TIP3    H272968   4.146   1.291   5.937 -0.4793 -0.1508  0.9507
17185TIP3   OH272969   2.114   6.371   0.658 -0.7511 -0.7371 -0.3505
17185TIP3    H172970   2.158   6.451   0.629  2.6010 -3.0540 -2.3947
17185TIP3    H272971   2.052   6.351   0.588 -1.1764 -0.2703 -0.1152
17186TIP3   OH272972   0.470   2.673  11.368 -0.2128  0.1846 -0.2384
17186TIP3    H172973   0.537   2.635  11.426  0.3980  2.7486  0.8668
17186TIP3    H272974   0.397   2.691  11.427 -1.0841 -0.6290 -1.0446
17187TIP3   OH272975   0.552   4.406   5.528  0.1029  0.4149 -0.3868
17187TIP3    H172976   0.592   4.365   5.604  1.6111 -2.4206 -2.5023
17187TIP3    H272977   0.625   4.439   5.476 -0.5603 -0.7012 -2.1346
17188TIP3   OH272978   5.139   0.744   4.878  0.4543 -0.2679  0.2504
17188TIP3    H172979   5.163   0.655   4.853  2.4091  0.0845  0.6742
17188TIP3    H272980   5.221   0.793   4.872 -0.4529  1.3753  0.6114
17189TIP3   OH272981   2.631   3.035  14.165 -0.3410 -0.2136  0.6761
17189TIP3    H172982   2.726   3.029  14.160 -0.4007 -0.9690  0.2802
17189TIP3    H272983   2.601   2.945  14.155 -1.1051  0.0350  0.6675
17190TIP3   OH272984   0.287   0.177  15.075  0.1727 -0.6764 -0.2853
17190TIP3    H172985   0.220   0.245  15.067  0.0325 -0.6896  0.6715
17190TIP3    H272986   0.253   0.104  15.024  0.2532 -0.1057 -1.1999
17191TIP3   OH272987   3.096   6.436  11.584  0.6070  0.1877  0.3954
17191TIP3    H172988   3.149   6.495  11.530 -0.9994 -1.0336 -2.7907
17191TIP3    H272989   3.022   6.490  11.612 -0.0943  0.1747 -1.2743
17192TIP3   OH272990   6.115   1.946  13.022 -0.4383  0.4092  0.0794
17192TIP3    H172991   6.063   1.939  13.102  0.0571  3.1142  0.7552
17192TIP3    H272992   6.136   1.856  12.999 -1.1601 -0.5066  2.6145
17193TIP3   OH272993   1.102   5.852  14.839  0.2924 -0.3917  0.2197
17193TIP3    H172994   1.143   5.766  14.838  1.7323  0.2780 -0.0549
17193TIP3    H272995   1.124   5.888  14.925 -0.7745 -0.4947  0.5535
17194TIP3   OH272996   6.279   0.058  16.039 -0.3402 -0.3177  0.3928
17194TIP3    H172997   6.326   0.071  15.957  1.0376 -1.1350  1.0290
17194TIP3    H272998   6.213   0.127  16.039  0.7182  0.7453 -0.6112
17195TIP3   OH272999   1.418   5.328   4.384 -0.8025 -0.0830 -0.6717
17195TIP3    H173000   1.420   5.423   4.374 -1.0510 -0.1736 -1.7195
17195TIP3    H273001   1.451   5.294   4.301 -1.8149 -0.9277 -0.7489
17196TIP3   OH273002   5.891   4.150   0.926  0.0351 -0.6238  0.2644
17196TIP3    H173003   5.876   4.062   0.892 -1.2259 -1.5554  2.9291
17196TIP3    H273004   5.979   4.147   0.963  1.8171  0.6816 -3.3835
17197TIP3   OH273005   0.325   6.367  13.247  0.1623 -0.2580  0.2783
17197TIP3    H173006   0.264   6.439  13.264 -0.2233 -0.1040 -1.5532
17197TIP3    H273007   0.411   6.409  13.241  0.4147 -0.3983  2.2775
17198TIP3   OH273008   4.156   5.339  11.487 -0.3689 -0.1228  0.2092
17198TIP3    H173009   4.108   5.286  11.424  0.4754  1.3934 -1.8422
17198TIP3    H273010   4.238   5.293  11.500 -0.4912 -0.3803  0.0753
17199TIP3   OH273011   1.709   4.320   1.029 -0.5151  0.3602  0.3778
17199TIP3    H173012   1.750   4.405   1.043 -0.0385  0.0776  0.7273
17199TIP3    H273013   1.768   4.274   0.969  0.3442 -0.4945  1.8016
17200TIP3   OH273014   6.496   3.129  15.698 -0.2096 -0.0268 -0.3156
17200TIP3    H173015   6.522   3.195  15.762 -1.3099  0.3755 -0.2571
17200TIP3    H273016   6.450   3.063  15.750  0.7606 -0.7750 -0.3958
17201TIP3   OH273017   3.752   6.432   4.263 -0.5156 -0.2875  0.4196
17201TIP3    H173018   3.841   6.420   4.298 -0.4330 -2.1342 -0.3307
17201TIP3    H273019   3.722   6.513   4.304  1.6790  0.6405  0.3492
17202TIP3   OH273020   2.216   6.274   6.011 -1.3108 -0.0552 -0.1716
17202TIP3    H173021   2.148   6.329   5.972 -0.0856  2.1403  0.6375
17202TIP3    H273022   2.186   6.259   6.100 -0.2178  2.0131  0.6073
17203TIP3   OH273023   1.586   2.363  15.795 -0.5412 -0.2865  0.0067
17203TIP3    H173024   1.544   2.284  15.760  2.3819 -0.9945 -2.2793
17203TIP3    H273025   1.544   2.435  15.747 -1.4407 -0.6332  0.2448
17204TIP3   OH273026   6.732   6.256   2.272  0.2162 -0.3551  0.3589
17204TIP3    H173027   6.721   6.197   2.197  0.4376 -0.4157  0.3729
17204TIP3    H273028   6.825   6.250   2.294  0.6005  1.2507 -0.6730
17205TIP3   OH273029   2.301   0.455   2.218  0.7561 -0.2332 -0.3774
17205TIP3    H173030   2.221   0.432   2.266  0.8267 -0.3536 -0.3151
17205TIP3    H273031   2.337   0.530   2.265  1.0460 -0.6091  0.0108
17206TIP3   OH273032   4.767   5.479   2.875  0.1690 -0.5685 -0.0759
17206TIP3    H173033   4.838   5.524   2.831 -1.1316  1.2869 -0.3929
17206TIP3    H273034   4.717   5.438   2.805 -0.5107  0.3120 -0.1201
17207TIP3   OH273035   2.987   3.356  16.441  0.7260 -0.2955  0.2136
17207TIP3    H173036   2.989   3.429  16.380  0.0767  0.7455  1.4063
17207TIP3    H273037   3.070   3.311  16.426  0.5665 -0.1025 -1.4469
17208TIP3   OH273038   4.320   6.504   0.053  0.0370 -0.3742  0.0164
17208TIP3    H173039   4.271   6.493   0.135 -1.2104 -0.0317 -0.6612
17208TIP3    H273040   4.387   6.570   0.074 -1.9518  1.7531  0.1010
17209TIP3   OH273041   2.319   4.058  17.083  0.2822  0.2271 -0.0162
17209TIP3    H173042   2.402   4.093  17.050  0.9579  0.3665  1.7425
17209TIP3    H273043   2.267   4.135  17.105 -0.7000  0.1667 -1.8478
17210TIP3   OH273044   3.868   3.286   5.225  0.3519 -0.4151 -0.3663
17210TIP3    H173045   3.795   3.348   5.233  0.5752 -0.2302  0.3505
17210TIP3    H273046   3.935   3.333   5.177  0.9978  0.3666  1.2305
17211TIP3   OH273047   0.605   6.065   2.256 -0.6005  0.3827 -0.1519
17211TIP3    H173048   0.538   5.996   2.260  0.7687 -0.9770 -0.0142
17211TIP3    H273049   0.562   6.142   2.292 -2.5945 -0.0285 -1.4596
17212TIP3   OH273050   0.889   2.076  15.367 -0.0974  0.4059 -0.0670
17212TIP3    H173051   0.895   2.151  15.308  0.9271 -0.8713 -1.6975
17212TIP3    H273052   0.824   2.018  15.326  1.7203 -1.1896 -0.8561
17213TIP3   OH273053   6.635   1.143  14.672 -1.2121 -0.8316 -0.4666
17213TIP3    H173054   6.565   1.207  14.659 -0.5303 -0.1714 -0.9656
17213TIP3    H273055   6.605   1.089  14.746 -1.5204  0.4751  0.3997
17214TIP3   OH273056   6.439   2.063   2.640  0.1131  0.1926 -0.5605
17214TIP3    H173057   6.401   2.147   2.665  1.2950  0.0425  2.0084
17214TIP3    H273058   6.527   2.086   2.607  0.4787 -0.0216  0.2491
17215TIP3   OH273059   3.191   0.811  15.882 -0.0789 -0.3799  0.3514
17215TIP3    H173060   3.095   0.815  15.888 -0.0508  1.5937  0.0735
17215TIP3    H273061   3.215   0.739  15.940 -1.6424  0.2263  1.8594
17216TIP3   OH273062   2.483   1.776  13.044 -0.4867 -0.0645  0.1462
17216TIP3    H173063   2.415   1.733  12.992  0.4981 -1.3645 -0.1408
17216TIP3    H273064   2.561   1.771  12.988  0.0650  0.5469  0.8484
17217TIP3   OH273065   1.304   1.506   3.953  0.0652 -0.2601  0.1368
17217TIP3    H173066   1.369   1.440   3.928  0.7406  0.0358  1.0608
17217TIP3    H273067   1.298   1.500   4.048 -0.7869  0.1731  0.1236
17218TIP3   OH273068   5.294   5.414  13.193  0.0450 -0.1037 -0.1525
17218TIP3    H173069   5.360   5.401  13.261  0.8768  2.5892 -0.3471
17218TIP3    H273070   5.330   5.483  13.138 -2.2663  0.3387 -1.2070
17219TIP3   OH273071   0.333   6.439  11.534 -0.4027  0.3288 -0.2253
17219TIP3    H173072   0.286   6.493  11.471 -0.1385 -1.3149 -1.9142
17219TIP3    H273073   0.267   6.382  11.572 -0.5040  1.0909  0.7806
17220TIP3   OH273074   2.082   3.599   4.272 -0.5488  0.0935 -0.3219
17220TIP3    H173075   2.169   3.620   4.238 -1.0510  1.7705 -0.6765
17220TIP3    H273076   2.039   3.553   4.201 -0.2877  0.1387 -0.5113
17221TIP3   OH273077   4.791   4.983  17.126 -0.3922  0.2821  0.5168
17221TIP3    H173078   4.772   4.898  17.088 -0.9484  0.5636  0.1399
17221TIP3    H273079   4.706   5.013  17.160 -0.1931  0.6607  0.6872
17222TIP3   OH273080   6.053   6.736  11.278  1.1684  0.4756  0.0563
17222TIP3    H173081   6.060   6.824  11.240  1.2150  0.6677  0.5055
17222TIP3    H273082   5.963   6.731  11.308  1.9730  1.6157  2.9977
17223TIP3   OH273083   1.227   0.544  16.573  0.1634  0.3491  0.2328
17223TIP3    H173084   1.180   0.607  16.627 -1.4155 -1.2083  0.7797
17223TIP3    H273085   1.318   0.552  16.600 -0.6697 -1.1177  4.0388
17224TIP3   OH273086   0.337   3.042  17.068 -0.5254 -0.0290  0.0385
17224TIP3    H173087   0.403   3.054  17.137 -0.6863 -1.8488  0.5633
17224TIP3    H273088   0.345   3.120  17.014  1.6276  0.1070  0.4632
17225TIP3   OH273089   5.994   0.201   4.381  0.0986  0.4966 -0.0457
17225TIP3    H173090   5.916   0.148   4.395  0.8950 -0.6632  0.1824
17225TIP3    H273091   5.991   0.225   4.288  1.0099 -2.1904 -0.8664
17226TIP3   OH273092   4.265   5.807  14.449 -0.1960 -0.1971  0.1368
17226TIP3    H173093   4.295   5.716  14.454 -1.2056 -0.4748  1.8035
17226TIP3    H273094   4.173   5.801  14.425 -0.1520  0.4064 -0.1901
17227TIP3   OH273095   4.992   0.844   3.799 -0.0073  0.0830  0.3583
17227TIP3    H173096   4.906   0.880   3.776 -0.3307 -0.2936  0.9583
17227TIP3    H273097   5.043   0.852   3.718  0.1735  2.5516  0.6121
17228TIP3   OH273098   3.259   0.348   1.840 -0.0009  0.2656 -0.2500
17228TIP3    H173099   3.225   0.346   1.929  2.6198 -1.1068  0.8369
17228TIP3    H273100   3.248   0.438   1.812  1.3820  1.3931  2.4725
17229TIP3   OH273101   1.291   5.677   5.480  0.7476 -0.1511  0.0677
17229TIP3    H173102   1.330   5.642   5.400 -0.9091 -2.0485 -0.0001
17229TIP3    H273103   1.290   5.772   5.467  2.4318 -0.2665 -1.2132
17230TIP3   OH273104   2.260   1.934  11.865 -0.7201 -0.2957 -0.5950
17230TIP3    H173105   2.322   1.867  11.834 -0.7139 -0.4212 -0.3109
17230TIP3    H273106   2.307   2.017  11.854 -0.0852 -0.4784  0.6375
17231TIP3   OH273107   1.934   6.588   1.633  0.0908  0.2204  0.3208
17231TIP3    H173108   1.961   6.680   1.635 -0.4190  0.3865 -0.0641
17231TIP3    H273109   1.838   6.591   1.641  0.2322 -0.4181  2.7908
17232TIP3   OH273110   4.280   2.825  13.407  0.2914  0.0044 -0.4048
17232TIP3    H173111   4.223   2.846  13.333 -0.5105 -2.3979 -0.5556
17232TIP3    H273112   4.356   2.882  13.396 -0.4743  0.7490 -2.2306
17233TIP3   OH273113   1.803   5.293  13.992 -0.1450 -0.3555 -0.3705
17233TIP3    H173114   1.794   5.209  13.948 -1.3145 -0.7535  0.5769
17233TIP3    H273115   1.716   5.312  14.027  0.5779  0.2184  1.2427
17234TIP3   OH273116   6.676   0.063  11.765 -0.8072 -0.3961 -0.3062
17234TIP3    H173117   6.701   0.004  11.836 -0.2577 -1.2435 -1.1741
17234TIP3    H273118   6.716   0.147  11.788 -0.2509 -0.7835  0.1661
17235TIP3   OH273119   4.301   5.065  17.160 -0.2982 -0.2149  0.4754
17235TIP3    H173120   4.294   5.063  17.065  2.2574  1.7563  0.1383
17235TIP3    H273121   4.338   4.979  17.183  2.4206  0.5109 -0.7852
17236TIP3   OH273122   4.418   5.191   0.355  0.7041 -0.4544 -0.3757
17236TIP3    H173123   4.362   5.123   0.393 -1.7711  0.7091 -1.7220
17236TIP3    H273124   4.377   5.274   0.380  2.0393  0.4757 -1.1154
17237TIP3   OH273125   1.424   4.173   2.167 -0.0823 -0.4124  0.6689
17237TIP3    H173126   1.436   4.079   2.155 -1.3642 -0.7138  1.4816
17237TIP3    H273127   1.442   4.212   2.081 -1.5778 -1.6305 -0.2371
17238TIP3   OH273128   6.346   3.117  11.956  0.0771 -0.4664  0.1350
17238TIP3    H173129   6.293   3.065  11.895  0.1411  0.6966 -0.9495
17238TIP3    H273130   6.307   3.204  11.954 -0.3084 -0.5164  2.2684
17239TIP3   OH273131   1.504   2.849   2.995 -0.1500  0.1800 -0.4346
17239TIP3    H173132   1.554   2.868   2.916  0.2894 -4.1119 -1.4655
17239TIP3    H273133   1.423   2.809   2.963 -0.7817 -0.0070  1.2865
17240TIP3   OH273134   5.029   0.774   3.236 -0.2267  0.7710  0.0819
17240TIP3    H173135   4.963   0.733   3.180  0.4833 -0.5415  0.1573
17240TIP3    H273136   5.095   0.807   3.175 -0.2614  0.8005  0.0611
17241TIP3   OH273137   0.958   0.232  14.500  0.0303  0.2663 -0.0893
17241TIP3    H173138   1.053   0.218  14.503 -0.1774 -1.1187  2.3778
17241TIP3    H273139   0.947   0.324  14.521  0.8167  0.0125  1.6566
17242TIP3   OH273140   3.078   6.006   5.420 -0.6543  0.1925 -0.2349
17242TIP3    H173141   3.062   6.047   5.335 -0.6453 -0.0334 -0.3473
17242TIP3    H273142   3.172   6.017   5.435 -0.7133  0.5187 -0.1031
17243TIP3   OH273143   1.299   1.256  13.813 -0.1571  0.0471  0.0325
17243TIP3    H173144   1.243   1.274  13.737 -0.7939  0.2301  0.5404
17243TIP3    H273145   1.300   1.160  13.819 -1.3823  0.0570  0.7141
17244TIP3   OH273146   0.222   2.402  12.859  0.2664 -0.1774  0.0739
17244TIP3    H173147   0.147   2.345  12.842 -1.4189  1.3971  1.8273
17244TIP3    H273148   0.196   2.488  12.827  0.6695  0.7259  2.0074
17245TIP3   OH273149   2.066   0.235  13.033 -0.6569 -0.2252 -0.5526
17245TIP3    H173150   2.150   0.194  13.015 -1.1170 -1.2945 -0.3423
17245TIP3    H273151   2.001   0.177  12.993 -1.4925 -1.0058  1.7776
17246TIP3   OH273152   3.287   5.147  14.607 -0.0222 -0.1449 -0.2159
17246TIP3    H173153   3.256   5.210  14.672 -0.9391  0.3235 -1.0661
17246TIP3    H273154   3.292   5.197  14.525 -0.8317 -1.1605 -0.9236
17247TIP3   OH273155   6.387   0.071  11.738  0.2754 -0.3063  0.3242
17247TIP3    H173156   6.481   0.063  11.727  0.3421  0.8971 -0.1661
17247TIP3    H273157   6.364   0.002  11.801  1.3115 -1.2770 -0.3188
17248TIP3   OH273158   0.353   0.789  15.779  0.5116 -0.4915 -0.7448
17248TIP3    H173159   0.280   0.778  15.717 -0.6013  3.0671 -0.3319
17248TIP3    H273160   0.431   0.794  15.724 -0.3351  1.5358 -1.8902
17249TIP3   OH273161   0.999   2.299   0.843  0.2554  0.4915 -0.8285
17249TIP3    H173162   0.947   2.360   0.896  0.1973  0.5651 -0.9695
17249TIP3    H273163   1.045   2.245   0.907  0.5404  0.8828 -0.6965
17250TIP3   OH273164   4.300   2.774  17.297 -0.2504 -0.1129 -0.3844
17250TIP3    H173165   4.262   2.739  17.216 -1.2603 -1.1414  0.4927
17250TIP3    H273166   4.314   2.697  17.352  0.5447  0.5587  0.3775
17251TIP3   OH273167   2.093   3.644   1.658  0.2044  0.3455  0.0082
17251TIP3    H173168   2.065   3.700   1.730 -2.1083 -0.8951  0.2022
17251TIP3    H273169   2.035   3.667   1.586  0.2037 -0.7312 -0.3599
17252TIP3   OH273170   4.796   6.256  13.777 -0.0246 -0.9387  0.3146
17252TIP3    H173171   4.791   6.348  13.753 -1.4797 -0.3925  2.4039
17252TIP3    H273172   4.871   6.250  13.837  0.5020 -1.2661 -0.3705
17253TIP3   OH273173   5.776   6.681   5.711  0.0217  0.0863 -0.1423
17253TIP3    H173174   5.756   6.716   5.798 -1.3993  0.5917 -0.6520
17253TIP3    H273175   5.712   6.721   5.653  2.0722  1.1804 -1.7765
17254TIP3   OH273176   2.438   4.334  14.786 -0.6649  0.8980 -0.3282
17254TIP3    H173177   2.488   4.348  14.706 -2.9013 -1.1209 -2.2328
17254TIP3    H273178   2.362   4.284  14.758 -0.3593 -2.1065  3.4445
17255TIP3   OH273179   5.226   6.124   4.378 -0.4455 -0.7333  0.3453
17255TIP3    H173180   5.277   6.155   4.453 -1.6156 -0.4845  1.0569
17255TIP3    H273181   5.244   6.187   4.309 -2.3501  1.3156  1.5934
17256TIP3   OH273182   6.071   2.233  11.630  0.0837  0.1248 -0.0334
17256TIP3    H173183   6.076   2.155  11.575  0.3401 -0.1395  0.3579
17256TIP3    H273184   6.147   2.285  11.606  0.6022 -0.3343  0.5759
17257TIP3   OH273185   6.644   4.139  14.713  0.4987  0.6574  0.0298
17257TIP3    H173186   6.616   4.117  14.802  0.6839  1.3640  0.2735
17257TIP3    H273187   6.737   4.163  14.722  0.3377  1.4200 -0.2204
17258TIP3   OH273188   0.169   3.851  11.381 -0.0009  0.4051  0.2500
17258TIP3    H173189   0.194   3.943  11.379 -2.9749  1.3301 -0.2819
17258TIP3    H273190   0.091   3.849  11.437 -0.3196 -1.6886 -0.1855
17259TIP3   OH273191   3.062   2.380   4.054  0.3802  0.3045 -0.0697
17259TIP3    H173192   3.152   2.405   4.035  0.7687 -1.1479 -0.2182
17259TIP3    H273193   3.068   2.293   4.093 -0.7274  1.3769  2.7806
17260TIP3   OH273194   2.228   2.689  16.346 -0.0084 -0.0267 -0.0763
17260TIP3    H173195   2.240   2.779  16.316  0.6861 -0.5720 -1.5180
17260TIP3    H273196   2.267   2.687  16.434  2.4887  0.4542 -1.1013
17261TIP3   OH273197   3.357   6.177   1.629 -0.3489 -0.0292 -0.5089
17261TIP3    H173198   3.403   6.251   1.590  0.8226 -0.4536  0.0202
17261TIP3    H273199   3.277   6.215   1.666  0.6042  1.1259  0.4589
17262TIP3   OH273200   6.005   4.308   3.861  0.9944  0.5128 -0.8687
17262TIP3    H173201   6.039   4.233   3.909 -1.4951  0.9865  1.9649
17262TIP3    H273202   5.925   4.276   3.819 -0.1928  1.5337  0.5190
17263TIP3   OH273203   6.723   2.206   5.022 -0.0340 -0.5000  0.5835
17263TIP3    H173204   6.705   2.247   4.937 -0.3173 -1.8047 -0.0166
17263TIP3    H273205   6.651   2.143   5.034 -0.5538  0.3451  2.2713
17264TIP3   OH273206   5.209   2.583   3.458 -0.0789 -0.2045  0.0948
17264TIP3    H173207   5.137   2.554   3.402  0.0013 -0.5615  0.1761
17264TIP3    H273208   5.287   2.573   3.403  0.1757 -1.8373  0.6952
17265TIP3   OH273209   3.494   3.840  16.998 -0.0465  0.1881  0.6640
17265TIP3    H173210   3.460   3.878  17.080 -1.3905 -0.4443  0.4238
17265TIP3    H273211   3.528   3.755  17.024 -0.0061  0.1971  0.6410
17266TIP3   OH273212   0.536   3.435  15.687  0.3948 -0.2872 -0.0493
17266TIP3    H173213   0.474   3.501  15.718  0.4147 -0.2646 -0.0575
17266TIP3    H273214   0.483   3.356  15.674  0.3983 -0.3135  0.1000
17267TIP3   OH273215   2.256   3.877   4.369 -0.3281 -0.2161 -0.2724
17267TIP3    H173216   2.346   3.873   4.400 -0.5089  0.7304  0.4368
17267TIP3    H273217   2.206   3.833   4.438 -0.6250  1.0822  0.3865
17268TIP3   OH273218   5.566   1.265  15.212  0.8981  0.3088  0.1891
17268TIP3    H173219   5.496   1.251  15.275 -0.6920 -1.3907 -1.7955
17268TIP3    H273220   5.602   1.177  15.196  0.8791  0.5899 -1.6065
17269TIP3   OH273221   4.776   6.066  11.585  0.0475  0.0128  0.2297
17269TIP3    H173222   4.744   6.113  11.662  0.6336 -0.8510  1.0201
17269TIP3    H273223   4.870   6.057  11.599 -0.1944 -2.4024  0.7033
17270TIP3   OH273224   5.120   2.822  11.839 -0.6716 -0.6487 -0.0752
17270TIP3    H173225   5.178   2.824  11.764 -0.3306  0.6342  0.2004
17270TIP3    H273226   5.035   2.850  11.804 -0.3540  0.6212  0.1257
17271TIP3   OH273227   6.088   0.057   0.436 -0.4187  0.7076  0.3039
17271TIP3    H173228   5.995   0.074   0.419 -1.0244 -1.2359  1.3705
17271TIP3    H273229   6.116   0.002   0.363 -0.6267 -0.2212  0.9057
17272TIP3   OH273230   6.516   6.510   3.485 -0.4385  0.0609  0.1879
17272TIP3    H173231   6.451   6.578   3.465  1.5656  2.2901  0.6887
17272TIP3    H273232   6.478   6.462   3.559 -1.6217  1.1694  0.3422
17273TIP3   OH273233   4.566   2.374   2.153  0.0565 -0.2920 -0.6521
17273TIP3    H173234   4.493   2.383   2.214  0.5853 -0.5470  0.0360
17273TIP3    H273235   4.603   2.288   2.173  0.5302 -0.1771 -1.0106
17274TIP3   OH273236   4.378   3.449  16.227  0.1817 -0.2747 -0.6274
17274TIP3    H173237   4.340   3.432  16.141  0.1864 -0.0706 -0.6714
17274TIP3    H273238   4.318   3.407  16.289  0.0711 -0.2509 -0.7195
17275TIP3   OH273239   4.457   6.518   1.228  0.3038  0.4346 -0.0689
17275TIP3    H173240   4.465   6.470   1.146 -0.1885  2.5766 -1.4617
17275TIP3    H273241   4.524   6.587   1.221 -0.0241  0.9017  1.1590
17276TIP3   OH273242   2.212   3.047  14.325  0.2713  0.0052 -0.3916
17276TIP3    H173243   2.184   2.956  14.322  0.2264 -0.2284  3.0281
17276TIP3    H273244   2.136   3.095  14.358  0.7806  1.0167 -0.6390
17277TIP3   OH273245   0.171   2.083   1.840  0.6934 -0.2190 -0.1389
17277TIP3    H173246   0.104   2.103   1.905  0.6565 -1.0309  0.0824
17277TIP3    H273247   0.123   2.066   1.759  0.5781 -1.3513  0.1524
17278TIP3   OH273248   5.353   5.021   5.597 -0.3687  0.1743 -0.7237
17278TIP3    H173249   5.432   5.039   5.546  0.8446 -1.4141  0.4930
17278TIP3    H273250   5.296   5.096   5.581  1.7645  1.8462 -0.9122
17279TIP3   OH273251   6.072   1.898  16.580  0.1412  0.1283  0.5470
17279TIP3    H173252   6.053   1.845  16.503  0.6457  1.2929 -0.4087
17279TIP3    H273253   6.158   1.867  16.609  0.9906  1.2052 -0.7310
17280TIP3   OH273254   0.891   4.561   4.466 -0.1774 -0.2846 -0.0397
17280TIP3    H173255   0.873   4.654   4.454 -0.5460 -0.3021  0.3461
17280TIP3    H273256   0.984   4.552   4.446 -0.3120  0.0251 -0.8621
17281TIP3   OH273257   2.433   1.836   0.436 -0.1214 -0.1568  0.0383
17281TIP3    H173258   2.363   1.771   0.432 -0.4533  0.0607  1.8721
17281TIP3    H273259   2.469   1.828   0.524 -0.1745  2.1330  0.3213
17282TIP3   OH273260   6.559   4.090   5.004 -0.3218 -0.0810  0.0995
17282TIP3    H173261   6.514   4.149   5.063 -0.3655  0.2378 -0.2476
17282TIP3    H273262   6.502   4.014   4.997 -0.4488  0.0019  0.2474
17283TIP3   OH273263   3.830   3.571   1.913  0.2762 -0.1107  0.2603
17283TIP3    H173264   3.859   3.553   2.002 -2.7427 -2.0872  1.0231
17283TIP3    H273265   3.765   3.641   1.922 -1.0080 -1.1997 -0.1037
17284TIP3   OH273266   5.058   6.043   3.679  0.0821 -0.0159  0.0264
17284TIP3    H173267   5.036   6.014   3.768  2.0431 -0.0978  0.5317
17284TIP3    H273268   5.058   6.139   3.685  2.1979  0.0001  0.7169
17285TIP3   OH273269   6.661   3.564  15.137  0.3976  0.1972 -0.1906
17285TIP3    H173270   6.744   3.607  15.116  0.7329 -0.1983  0.3282
17285TIP3    H273271   6.686   3.476  15.167 -0.1398  0.3719  0.8127
17286TIP3   OH273272   3.319   0.863  17.344 -0.1593  0.1005  0.4118
17286TIP3    H173273   3.329   0.815  17.261 -0.2165 -2.0528  1.5805
17286TIP3    H273274   3.225   0.878  17.351 -0.1903 -0.0067  0.2342
17287TIP3   OH273275   5.373   4.214   4.162 -0.3243 -0.2899 -0.5825
17287TIP3    H173276   5.353   4.174   4.246  0.6959  2.1900  0.9473
17287TIP3    H273277   5.288   4.222   4.118 -0.9555 -1.0318  0.4767
17288TIP3   OH273278   1.281   1.382   2.928  0.6414 -0.0890 -0.1842
17288TIP3    H173279   1.307   1.337   3.008 -1.9580 -0.2794  0.6605
17288TIP3    H273280   1.277   1.475   2.953 -2.0102 -0.3293  0.5649
17289TIP3   OH273281   3.624   5.892  15.069 -0.5411 -0.2569  0.8644
17289TIP3    H173282   3.583   5.808  15.089 -1.3329 -0.1962 -0.4065
17289TIP3    H273283   3.646   5.887  14.976 -0.3946  0.8510  0.8195
17290TIP3   OH273284   4.412   5.101  14.595  0.2357  0.0526  0.5118
17290TIP3    H173285   4.480   5.131  14.655  0.8125  0.0390 -0.1201
17290TIP3    H273286   4.429   5.007  14.584  1.6427  0.4723 -1.5143
17291TIP3   OH273287   4.616   2.645  11.651  0.3355  0.3907 -0.1406
17291TIP3    H173288   4.532   2.670  11.614 -0.2975 -0.9126  0.3475
17291TIP3    H273289   4.641   2.566  11.604 -0.6653 -1.5318  2.3209
17292TIP3   OH273290   0.734   5.966   1.736 -0.0279  0.0014  0.0711
17292TIP3    H173291   0.772   6.050   1.710 -0.4237 -0.4161 -2.0090
17292TIP3    H273292   0.776   5.946   1.820  1.5678  1.3070 -0.3619
17293TIP3   OH273293   1.896   1.039   4.475  0.1707 -0.1133  0.1057
17293TIP3    H173294   1.963   0.993   4.526  0.2172  1.2589  1.3436
17293TIP3    H273295   1.843   0.969   4.436  1.7695 -1.2206 -0.1822
17294TIP3   OH273296   3.222   3.153  15.287  0.6934  0.0092  0.0846
17294TIP3    H173297   3.258   3.228  15.334 -2.1506  1.4351  0.1904
17294TIP3    H273298   3.130   3.151  15.311  0.7340 -4.0367  0.6513
17295TIP3   OH273299   1.965   2.124  14.886  0.3315 -0.4549 -0.1487
17295TIP3    H173300   1.944   2.211  14.921 -1.1175 -1.5304  1.9112
17295TIP3    H273301   1.901   2.111  14.816  0.7510  0.2552 -0.6672
17296TIP3   OH273302   1.630   3.322   4.680  0.0337  0.2032 -0.0674
17296TIP3    H173303   1.657   3.392   4.621 -0.2562  1.0061  0.7402
17296TIP3    H273304   1.671   3.243   4.643  2.0949  1.0958  0.1410
17297TIP3   OH273305   1.195   3.501  16.034 -0.3306  0.2307  0.0558
17297TIP3    H173306   1.271   3.474  15.983  0.9799  0.0636  2.0180
17297TIP3    H273307   1.204   3.455  16.117 -2.7447  0.0027  0.2684
17298TIP3   OH273308   6.703   4.238  12.124 -0.6685 -0.3215  0.5733
17298TIP3    H173309   6.784   4.287  12.137 -2.0204  2.2433  0.0741
17298TIP3    H273310   6.689   4.240  12.029 -0.7892 -1.7334  0.5382
17299TIP3   OH273311   1.993   6.562  12.788 -0.3650  0.0980  0.3094
17299TIP3    H173312   2.077   6.609  12.788  0.8482 -1.8972  1.5364
17299TIP3    H273313   1.961   6.568  12.698  1.0207  1.0474 -0.1432
17300TIP3   OH273314   4.396   5.354   5.983  0.0099  0.2701  0.0132
17300TIP3    H173315   4.439   5.429   6.024 -1.0486  0.8759  0.0573
17300TIP3    H273316   4.306   5.384   5.966 -0.1888 -0.7008 -0.7539
17301TIP3   OH273317   4.765   4.279  15.494  0.0005 -0.1253  0.0301
17301TIP3    H173318   4.835   4.331  15.533 -1.9279  2.5227  0.2124
17301TIP3    H273319   4.790   4.270  15.402  0.1068  1.6955 -0.1469
17302TIP3   OH273320   0.907   2.361  14.916 -0.6160  0.2486  0.1437
17302TIP3    H173321   0.876   2.450  14.935 -1.9505 -0.2171  0.2334
17302TIP3    H273322   0.863   2.338  14.834 -1.0098 -0.6825  0.6123
17303TIP3   OH273323   3.201   5.605  14.151  0.4582 -0.2170  0.5017
17303TIP3    H173324   3.112   5.628  14.122  0.2350  0.3906  1.6384
17303TIP3    H273325   3.196   5.511  14.170  0.0219 -0.1606  0.6807
17304TIP3   OH273326   0.215   1.163   5.983  0.1402  0.1489  0.5104
17304TIP3    H173327   0.204   1.068   5.986 -0.3136  0.0374 -2.2469
17304TIP3    H273328   0.307   1.175   5.959  0.4442  0.4757  1.7614
17305TIP3   OH273329   5.817   5.732  13.366 -0.2114  0.2044 -0.5357
17305TIP3    H173330   5.878   5.724  13.439  0.2316  2.2920 -0.6111
17305TIP3    H273331   5.842   5.813  13.323 -0.6566 -0.8024 -2.8554
17306TIP3   OH273332   1.142   4.322   0.880 -0.8501 -0.9409  0.3656
17306TIP3    H173333   1.135   4.362   0.966  0.8759  1.9060 -0.6620
17306TIP3    H273334   1.205   4.250   0.892  0.7516  0.5226  1.2309
17307TIP3   OH273335   0.224   2.284  15.093 -0.3414 -0.8589  0.3104
17307TIP3    H173336   0.146   2.335  15.114 -0.7316 -1.3570  0.0918
17307TIP3    H273337   0.282   2.297  15.168 -0.0905  0.5578 -0.0978
17308TIP3   OH273338   4.143   2.841   0.966  0.0954 -0.0730 -0.5662
17308TIP3    H173339   4.123   2.934   0.972  1.7422  0.6005 -3.4005
17308TIP3    H273340   4.210   2.825   1.032 -1.1472  0.3846  0.8463
17309TIP3   OH273341   0.666   1.423   5.713 -0.3910 -0.1163  0.0811
17309TIP3    H173342   0.699   1.461   5.631 -1.4556 -0.7475 -0.6581
17309TIP3    H273343   0.577   1.456   5.720  0.1661  1.1501  1.7897
17310TIP3   OH273344   6.049   3.779   1.931 -0.4056  0.3612 -0.0960
17310TIP3    H173345   6.144   3.785   1.943 -0.1448 -2.0576 -0.4514
17310TIP3    H273346   6.012   3.833   2.001  1.2146  1.4143 -0.0093
17311TIP3   OH273347   3.990   4.025  13.939  0.2254 -0.1557 -0.2315
17311TIP3    H173348   3.987   4.120  13.927 -1.0253 -0.0954  0.3906
17311TIP3    H273349   4.071   4.010  13.987 -0.5135  0.8413  1.4314
17312TIP3   OH273350   0.450   2.928  13.852  0.1989 -0.1242 -0.1716
17312TIP3    H173351   0.512   2.950  13.922 -0.1409 -0.6950  0.3179
17312TIP3    H273352   0.486   2.971  13.774  1.0343 -0.1740  0.1728
17313TIP3   OH273353   0.133   1.437   6.080  0.6762 -0.6325  0.4479
17313TIP3    H173354   0.103   1.443   6.170 -0.1877 -1.3126  0.2135
17313TIP3    H273355   0.126   1.345   6.058  0.5059 -0.4205 -0.4426
17314TIP3   OH273356   4.389   2.072  11.299 -0.2384 -0.4057  0.0294
17314TIP3    H173357   4.359   1.981  11.301 -0.9853 -0.1753 -0.4905
17314TIP3    H273358   4.353   2.107  11.217  0.6845  0.1424 -0.1571
17315TIP3   OH273359   4.425   5.555   6.409  0.4580 -0.2072 -0.2096
17315TIP3    H173360   4.355   5.532   6.470 -0.0294 -0.2412 -0.7720
17315TIP3    H273361   4.395   5.637   6.369  1.0865  0.1720  0.0772
17316TIP3   OH273362   2.270   4.249  14.231 -0.3521 -0.5762 -0.2740
17316TIP3    H173363   2.333   4.186  14.195  1.7306  0.1782  1.7534
17316TIP3    H273364   2.251   4.215  14.319  0.6827  1.4571  0.7900
17317TIP3   OH273365   3.512   6.349  17.175  0.0541  0.0064  0.1105
17317TIP3    H173366   3.582   6.405  17.141  0.7105 -0.9002 -0.0487
17317TIP3    H273367   3.432   6.385  17.137  0.5152  0.5628 -0.3513
17318TIP3   OH273368   4.625   3.842   0.061 -0.5147  0.2643  1.3256
17318TIP3    H173369   4.582   3.757   0.071  1.3508 -1.0742 -0.9711
17318TIP3    H273370   4.574   3.887  -0.006  1.4683 -1.3866 -1.5159
17319TIP3   OH273371   1.808   5.003  13.057  0.1057 -0.6843 -0.1025
17319TIP3    H173372   1.773   5.018  13.145 -0.4892 -1.2734 -0.2285
17319TIP3    H273373   1.734   5.020  12.999  1.1971  2.5737 -0.7605
17320TIP3   OH273374   0.606   2.610   6.635 -0.0075 -0.6885 -0.2395
17320TIP3    H173375   0.540   2.542   6.644 -0.2997 -0.6716 -1.9278
17320TIP3    H273376   0.556   2.692   6.637 -0.2078 -0.7015 -2.3811
17321TIP3   OH273377   4.518   0.052  15.261 -0.7472  0.3459 -0.6455
17321TIP3    H173378   4.599   0.013  15.295 -1.8938 -0.8485  0.8682
17321TIP3    H273379   4.493  -0.006  15.189 -2.3395 -1.7943  1.4712
17322TIP3   OH273380   6.092   2.172  12.236  0.1126 -0.9928  0.0076
17322TIP3    H173381   6.094   2.226  12.157 -1.0280 -0.8000  0.1016
17322TIP3    H273382   6.165   2.111  12.225 -0.1115 -1.0467 -1.2565
17323TIP3   OH273383   2.631   5.987   4.373 -0.2192  0.2302  0.0311
17323TIP3    H173384   2.548   5.973   4.418 -0.1063 -0.3472  0.0618
17323TIP3    H273385   2.623   5.936   4.292  0.2964 -0.2282  0.2633
17324TIP3   OH273386   4.020   5.642   0.536 -0.2556  0.0896 -0.4208
17324TIP3    H173387   4.065   5.689   0.467 -1.1731  1.2422 -0.2611
17324TIP3    H273388   4.002   5.708   0.603 -2.1550 -0.3058 -0.4758
17325TIP3   OH273389   2.884   2.768   2.242  0.3729 -0.1004 -0.1925
17325TIP3    H173390   2.830   2.757   2.320  0.5421  0.7103  0.0437
17325TIP3    H273391   2.845   2.842   2.195  1.1375  0.3518 -0.1317
17326TIP3   OH273392   4.201   6.591   2.647 -0.1603  0.3570  0.1103
17326TIP3    H173393   4.155   6.646   2.710  0.6643 -0.6930  1.7123
17326TIP3    H273394   4.131   6.548   2.598 -0.8575  0.4240  1.0073
17327TIP3   OH273395   2.118   1.189   1.738 -0.5061  0.1512  0.0053
17327TIP3    H173396   2.132   1.184   1.833  0.4610 -0.6927 -0.1673
17327TIP3    H273397   2.023   1.194   1.728 -0.7381 -1.6988  0.9509
17328TIP3   OH273398   5.968   4.958  15.269 -0.4302  0.1991 -0.2462
17328TIP3    H173399   5.976   5.025  15.337  0.5797  0.7996 -0.9399
17328TIP3    H273400   5.877   4.929  15.276 -0.7376  1.2379  0.4352
17329TIP3   OH273401   6.263   1.900   5.643  0.4534 -0.1232 -0.2386
17329TIP3    H173402   6.277   1.811   5.676  0.1696 -0.2146 -0.3676
17329TIP3    H273403   6.350   1.928   5.613  0.1476 -1.1666 -2.2189
17330TIP3   OH273404   3.334   2.516  11.199 -0.0445  0.0773 -0.0639
17330TIP3    H173405   3.421   2.535  11.236 -0.6986  2.4031  0.4312
17330TIP3    H273406   3.353   2.482  11.111  1.3908 -1.6169  0.8260
17331TIP3   OH273407   6.653   5.184   5.942  0.3214 -0.2179  0.4432
17331TIP3    H173408   6.701   5.174   6.024  0.7586 -2.5246 -0.0324
17331TIP3    H273409   6.600   5.105   5.936 -1.6462  1.0822 -0.3111
17332TIP3   OH273410   1.715   1.550  13.618 -0.6506  0.4219 -0.2495
17332TIP3    H173411   1.769   1.590  13.550 -0.1275  1.6817  0.8510
17332TIP3    H273412   1.723   1.456  13.603  1.4066  0.5829 -0.4866
17333TIP3   OH273413   5.662   1.749  15.567  0.0994  0.3263 -0.5853
17333TIP3    H173414   5.755   1.755  15.590 -0.3297  0.9141  1.1540
17333TIP3    H273415   5.617   1.747  15.651 -1.5157  0.6208 -1.4064
17334TIP3   OH273416   6.109   3.840   3.318 -0.0789 -0.1263 -0.1710
17334TIP3    H173417   6.125   3.894   3.395  1.5124 -1.1130  0.2437
17334TIP3    H273418   6.167   3.877   3.250 -0.0942 -0.3883 -0.3294
17335TIP3   OH273419   4.098   5.963   3.100 -0.1804 -0.0755 -0.6994
17335TIP3    H173420   4.158   6.037   3.094  0.0706 -0.2476 -0.3405
17335TIP3    H273421   4.089   5.946   3.194 -1.1938  0.2746 -0.7206
17336TIP3   OH273422   6.082   3.427   3.018 -0.6572  0.2845  0.4603
17336TIP3    H173423   6.047   3.338   3.013 -0.8497  0.3649  0.3421
17336TIP3    H273424   6.134   3.428   3.098  1.8535 -0.8302 -1.0176
17337TIP3   OH273425   1.171   2.055   1.669  0.1274 -0.5545 -0.2826
17337TIP3    H173426   1.098   2.036   1.727 -0.8470  3.5919  0.1596
17337TIP3    H273427   1.132   2.101   1.595  2.1543  2.1152  0.1368
17338TIP3   OH273428   2.226   6.570  15.220 -0.3664  0.0424  0.1831
17338TIP3    H173429   2.258   6.660  15.217 -0.1196 -0.0622 -1.8886
17338TIP3    H273430   2.146   6.572  15.168 -1.2811 -0.6365  1.5075
17339TIP3   OH273431   3.404   3.808  12.273  0.1957 -0.3901  0.1722
17339TIP3    H173432   3.429   3.861  12.348 -2.5749 -1.5604  2.0745
17339TIP3    H273433   3.421   3.864  12.197 -1.7679  2.9784  1.9734
17340TIP3   OH273434   3.452   0.806   3.292 -0.0015  0.2144 -0.1375
17340TIP3    H173435   3.403   0.812   3.210 -1.1714  2.3154  0.6190
17340TIP3    H273436   3.422   0.725   3.333 -0.2297 -0.2873 -1.2631
17341TIP3   OH273437   1.094   4.760  12.884 -0.4411 -0.3961  0.4896
17341TIP3    H173438   1.123   4.805  12.964 -2.8771  0.7958  0.7936
17341TIP3    H273439   1.094   4.829  12.817  0.2721 -1.0708 -0.2133
17342TIP3   OH273440   3.728   0.904  14.400  0.4518  0.3761  0.0759
17342TIP3    H173441   3.814   0.944  14.409  1.0868 -0.6375 -1.2151
17342TIP3    H273442   3.744   0.810  14.402 -0.6832  0.1658  0.3194
17343TIP3   OH273443   3.858   6.229   4.745  0.1050 -0.3424 -0.2472
17343TIP3    H173444   3.778   6.275   4.720  1.2406  0.1695 -3.5531
17343TIP3    H273445   3.852   6.145   4.700  1.2136 -0.4482 -0.2253
17344TIP3   OH273446   5.944   1.423   3.208  0.0390 -0.2229 -0.1075
17344TIP3    H173447   5.934   1.470   3.291  1.1667 -0.6878  0.3030
17344TIP3    H273448   5.890   1.473   3.146  0.5871  1.1537  0.4903
17345TIP3   OH273449   2.313   4.968  11.854  0.1205 -0.4073  0.4633
17345TIP3    H173450   2.406   4.955  11.874  0.2954 -1.0937 -0.7003
17345TIP3    H273451   2.287   4.888  11.808  0.4796  1.9027 -4.4552
17346TIP3   OH273452   4.257   0.225  11.245  0.4594  0.2065 -0.2372
17346TIP3    H173453   4.197   0.296  11.269 -0.2841  0.0995 -1.6615
17346TIP3    H273454   4.312   0.212  11.322  0.4600  2.1731  0.1379
17347TIP3   OH273455   6.066   5.375  15.641  0.6548 -0.7439  0.6399
17347TIP3    H173456   5.988   5.414  15.680 -0.5370 -2.2783 -0.1290
17347TIP3    H273457   6.123   5.357  15.716 -0.6653 -1.6007  1.4825
17348TIP3   OH273458   5.894   6.621  13.344 -0.0830  0.2428 -0.3475
17348TIP3    H173459   5.862   6.679  13.413  0.4432  0.4168 -0.2373
17348TIP3    H273460   5.852   6.537  13.361  0.7288  0.0315  0.7375
17349TIP3   OH273461   1.769   2.325   0.674  0.4520  0.1144 -0.6773
17349TIP3    H173462   1.711   2.254   0.645  0.2413 -0.2441  0.5689
17349TIP3    H273463   1.746   2.399   0.619 -0.4717 -0.3221 -0.8919
17350TIP3   OH273464   6.638   3.583  14.286  0.5049  0.6055 -0.5658
17350TIP3    H173465   6.692   3.504  14.276 -0.1719  0.1715 -0.8246
17350TIP3    H273466   6.553   3.551  14.316  0.3204  1.2714 -0.3601
17351TIP3   OH273467   6.607   1.650   4.348 -0.5138  0.1554 -0.2994
17351TIP3    H173468   6.641   1.714   4.285  2.3318 -0.9853 -0.0593
17351TIP3    H273469   6.580   1.703   4.423  0.4577  1.1969 -0.6483
17352TIP3   OH273470   6.314   1.110  15.168  0.0823  0.1832  0.0436
17352TIP3    H173471   6.395   1.058  15.169  0.0116 -0.0953 -2.2401
17352TIP3    H273472   6.252   1.057  15.118 -0.3379  1.9320 -1.4055
17353TIP3   OH273473   5.925   2.719   0.244  0.3019  0.2696  0.0513
17353TIP3    H173474   6.012   2.701   0.279  0.2477  0.4255  0.2605
17353TIP3    H273475   5.869   2.652   0.283  0.4799 -0.3531 -0.7231
17354TIP3   OH273476   4.899   4.268   3.770 -0.1088  0.3122 -0.2655
17354TIP3    H173477   4.981   4.315   3.750 -0.0752  0.7291  0.7593
17354TIP3    H273478   4.919   4.176   3.753  0.4973  0.4394 -0.2597
17355TIP3   OH273479   5.626   0.623   2.170 -0.0481 -0.7697  0.3895
17355TIP3    H173480   5.674   0.542   2.190 -0.1000 -0.9303 -0.1018
17355TIP3    H273481   5.690   0.693   2.182  0.0972 -0.9182  0.4812
17356TIP3   OH273482   5.008   6.614   3.491  0.0686  0.2312 -0.0567
17356TIP3    H173483   5.039   6.542   3.435  0.3277  0.1053  0.2479
17356TIP3    H273484   5.069   6.614   3.565 -0.1244  0.5609  0.0998
17357TIP3   OH273485   6.527   0.226   6.548  0.0672  0.0120  0.4579
17357TIP3    H173486   6.528   0.314   6.587 -1.1135  1.4673 -2.5176
17357TIP3    H273487   6.596   0.229   6.481 -0.8347 -0.8618 -0.5443
17358TIP3   OH273488   3.052   5.440  12.716  0.2264  0.1843 -0.1672
17358TIP3    H173489   3.107   5.402  12.648 -0.2281 -0.3597 -0.2451
17358TIP3    H273490   3.102   5.513  12.751  0.5931  0.2755 -0.8763
17359TIP3   OH273491   4.498   2.729  14.135 -0.1652 -0.0420  0.1940
17359TIP3    H173492   4.406   2.740  14.157 -0.8663 -2.6500 -1.0711
17359TIP3    H273493   4.528   2.818  14.113 -2.5279  0.7704 -0.0236
17360TIP3   OH273494   4.462   0.348  15.858  0.4616 -0.2085 -0.4432
17360TIP3    H173495   4.388   0.386  15.906  0.0433 -1.0916 -0.3736
17360TIP3    H273496   4.469   0.402  15.779  0.8112  0.9259  0.3245
17361TIP3   OH273497   3.135   0.268   5.058 -0.2241 -0.2412 -0.0478
17361TIP3    H173498   3.056   0.252   5.005 -0.0072 -1.1620 -0.0981
17361TIP3    H273499   3.124   0.214   5.136 -0.5891  1.1903  0.9359
17362TIP3   OH273500   4.720   6.105  17.154 -0.5903  0.0102  0.5077
17362TIP3    H173501   4.685   6.194  17.160 -2.2791 -0.5481 -0.4459
17362TIP3    H273502   4.790   6.103  17.219 -0.7849  1.9061  0.8468
17363TIP3   OH273503   4.903   5.856   6.005  0.4828 -0.0476  0.3957
17363TIP3    H173504   4.922   5.854   6.098  0.8271 -0.4710  0.3199
17363TIP3    H273505   4.941   5.938   5.974  1.3543 -0.4353  0.4220
17364TIP3   OH273506   5.140   4.535  16.177  0.4902  0.2041  0.4260
17364TIP3    H173507   5.220   4.562  16.221  1.0272  0.8170 -0.8984
17364TIP3    H273508   5.155   4.554  16.085 -1.3235  0.6921  0.1909
17365TIP3   OH273509   5.071   4.716   1.361  0.0070  0.2455  0.4581
17365TIP3    H173510   5.126   4.790   1.385  0.7045  0.4172 -1.4508
17365TIP3    H273511   5.085   4.651   1.430 -0.7515  1.9098  2.2628
17366TIP3   OH273512   4.192   2.267  16.779  0.1533  0.0087  0.0567
17366TIP3    H173513   4.278   2.231  16.801  0.0714 -1.0630 -1.3054
17366TIP3    H273514   4.134   2.191  16.772 -0.0883  0.3401 -2.5591
17367TIP3   OH273515   1.238   0.667   1.621 -0.1500  0.7141 -0.3704
17367TIP3    H173516   1.244   0.706   1.533 -0.1199  1.5928  0.0064
17367TIP3    H273517   1.227   0.742   1.679 -1.3891  0.0602  0.2688
17368TIP3   OH273518   0.851   1.217  15.951  0.3934  0.1711  0.4615
17368TIP3    H173519   0.786   1.148  15.968  0.8053 -0.2714  0.2806
17368TIP3    H273520   0.897   1.187  15.873  1.3891  0.0423  1.0742
17369TIP3   OH273521   4.469   2.473  16.865 -0.1592  0.0093 -0.0806
17369TIP3    H173522   4.497   2.418  16.793 -0.5634 -1.2618  0.7064
17369TIP3    H273523   4.384   2.508  16.837  0.2964  0.5817 -0.7569
17370TIP3   OH273524   3.802   1.194   1.682  0.1091 -0.0978  0.0789
17370TIP3    H173525   3.893   1.167   1.668  0.3467  1.1389 -0.9236
17370TIP3    H273526   3.798   1.283   1.647 -1.8484 -0.6487 -1.2509
17371TIP3   OH273527   0.683   5.224  16.845  0.0461 -0.5465  0.0831
17371TIP3    H173528   0.624   5.195  16.915  0.8705 -1.4762  0.4127
17371TIP3    H273529   0.642   5.303  16.810 -0.4234 -0.0992  1.5693
17372TIP3   OH273530   0.752   0.734   2.031  0.4164 -0.4006 -0.4255
17372TIP3    H173531   0.658   0.740   2.047  0.5843  1.8251  0.0810
17372TIP3    H273532   0.760   0.715   1.938 -0.5368 -0.1946 -0.5519
17373TIP3   OH273533   0.512   6.692  16.299 -0.7043  0.0304  0.5740
17373TIP3    H173534   0.485   6.652  16.382  1.6240 -2.9437  0.0552
17373TIP3    H273535   0.604   6.717  16.313 -0.6254  0.5984 -0.7600
17374TIP3   OH273536   5.987   5.612   4.275  0.1203  0.2838  0.1344
17374TIP3    H173537   5.963   5.577   4.361  2.2586 -0.4024  0.5085
17374TIP3    H273538   6.076   5.581   4.261 -0.3215  0.0422 -2.5343
17375TIP3   OH273539   5.212   0.205  12.550  0.7251  0.1574 -0.3227
17375TIP3    H173540   5.213   0.110  12.536  0.8845  0.3793 -1.9701
17375TIP3    H273541   5.260   0.241  12.476  0.6371  1.5355  0.2676
17376TIP3   OH273542   1.757   1.054  13.149 -0.5132  0.2774 -0.0605
17376TIP3    H173543   1.777   1.043  13.242 -0.1919 -0.1021 -0.1695
17376TIP3    H273544   1.842   1.053  13.106 -0.7076 -0.3930 -0.4415
17377TIP3   OH273545   4.436   4.051   0.940  0.2721 -0.4094  0.2992
17377TIP3    H173546   4.388   4.030   1.021 -1.2327  2.2100  0.1931
17377TIP3    H273547   4.528   4.036   0.963 -0.0480  0.7559  2.7249
17378TIP3   OH273548   4.757   6.688   3.373 -0.0666 -0.2128 -0.6885
17378TIP3    H173549   4.818   6.727   3.436  0.0204  0.1218 -0.9821
17378TIP3    H273550   4.680   6.665   3.426  0.0396 -0.0110 -0.4451
17379TIP3   OH273551   5.680   1.492  14.612 -0.5846 -0.0226  0.5606
17379TIP3    H173552   5.750   1.519  14.552 -1.2431  0.1518 -0.1409
17379TIP3    H273553   5.726   1.445  14.682  0.4066  1.4049  0.9141
17380TIP3   OH273554   4.157   1.617   1.340 -0.6839 -0.1300  0.1612
17380TIP3    H173555   4.133   1.549   1.403 -1.4210 -0.3512 -0.3558
17380TIP3    H273556   4.213   1.572   1.277 -1.2133 -0.2814 -0.2097
17381TIP3   OH273557   3.356   0.923   1.213  0.1666  0.2165  0.0406
17381TIP3    H173558   3.320   1.009   1.234  0.7622  0.1347  1.5625
17381TIP3    H273559   3.450   0.933   1.227  0.1397 -0.9204  1.1773
17382TIP3   OH273560   6.311   2.521  13.457 -0.1839 -0.0195 -0.3963
17382TIP3    H173561   6.275   2.456  13.396  1.9838 -0.1303 -1.6598
17382TIP3    H273562   6.234   2.557  13.501 -1.5089 -3.2212  0.1816
17383TIP3   OH273563   5.978   1.513  15.193  0.3590 -0.2198 -0.7028
17383TIP3    H173564   6.063   1.486  15.157  0.8335 -0.6170  0.6403
17383TIP3    H273565   5.942   1.433  15.231  0.2216  0.3192  0.3315
17384TIP3   OH273566   1.580   1.284  11.708  0.3217  0.4527  0.6513
17384TIP3    H173567   1.514   1.338  11.664 -0.1120 -0.4256  0.1904
17384TIP3    H273568   1.541   1.263  11.793  0.2318  0.3734  0.5908
17385TIP3   OH273569   2.872   0.879   0.456  0.4545  0.2343  0.0868
17385TIP3    H173570   2.962   0.856   0.432  0.4697  0.7690 -0.3798
17385TIP3    H273571   2.823   0.797   0.445  0.7673  0.0844 -0.2246
17386TIP3   OH273572   5.927   2.944   3.804 -0.5031  0.2913  0.0046
17386TIP3    H173573   5.897   2.984   3.722 -0.5384  1.4653  0.5722
17386TIP3    H273574   6.009   2.990   3.824 -1.1551  0.9334  1.2965
17387TIP3   OH273575   5.828   4.759  12.031  0.4762 -0.4953  0.2505
17387TIP3    H173576   5.877   4.841  12.022 -1.8546  0.8932 -0.6450
17387TIP3    H273577   5.833   4.720  11.943 -1.0437  0.3266 -0.2382
17388TIP3   OH273578   1.465   4.275   1.922 -0.0196 -0.5034 -0.0610
17388TIP3    H173579   1.560   4.284   1.910  0.0176  1.1888  1.1166
17388TIP3    H273580   1.429   4.285   1.834  0.9025 -1.7541 -0.6159
17389TIP3   OH273581   0.218   0.725   3.699 -0.1068 -0.2352  0.0844
17389TIP3    H173582   0.257   0.772   3.773 -0.2740  0.4945 -0.2843
17389TIP3    H273583   0.160   0.789   3.658  1.0068 -0.1986 -1.5053
17390TIP3   OH273584   5.160   3.169   4.660  0.5541 -0.1539 -0.2386
17390TIP3    H173585   5.185   3.226   4.588  0.4446  0.8131  0.4677
17390TIP3    H273586   5.164   3.080   4.624 -1.3357  0.4028 -1.9914
17391TIP3   OH273587   0.501   6.244   2.457  0.4014 -0.0925 -0.4806
17391TIP3    H173588   0.502   6.331   2.498  1.1599 -0.2931 -0.0627
17391TIP3    H273589   0.527   6.184   2.527 -0.8412 -0.7527 -0.5744
17392TIP3   OH273590   5.885   1.486   1.844 -0.8307 -0.1282 -0.5416
17392TIP3    H173591   5.949   1.420   1.820 -0.4938 -0.2234  0.5613
17392TIP3    H273592   5.802   1.454   1.809 -0.3614 -0.2328 -1.5746
17393TIP3   OH273593   5.828   3.929  11.207 -0.5425  1.2280  0.1879
17393TIP3    H173594   5.816   3.853  11.150  2.0839 -0.1935  1.3429
17393TIP3    H273595   5.855   3.999  11.148  0.5257  0.2293 -0.5621
17394TIP3   OH273596   1.823   6.560   4.836  0.3711  0.1646  0.5937
17394TIP3    H173597   1.909   6.594   4.861  1.0063 -0.0778 -1.1832
17394TIP3    H273598   1.790   6.622   4.771  0.0602 -0.7804 -0.1664
17395TIP3   OH273599   1.399   3.923   5.538  0.1422 -0.3245 -0.1889
17395TIP3    H173600   1.379   3.845   5.590 -1.3200 -0.0253 -0.2513
17395TIP3    H273601   1.377   3.996   5.596 -1.5734  0.0126 -1.2119
17396TIP3   OH273602   2.723   1.886  14.058  0.2051  0.2287  0.3610
17396TIP3    H173603   2.671   1.844  14.126  1.4033 -1.0424  0.5426
17396TIP3    H273604   2.789   1.820  14.035  0.1533  0.8193 -1.6627
17397TIP3   OH273605   4.153   4.601  17.154  0.0631  0.2408 -0.5221
17397TIP3    H173606   4.199   4.518  17.162 -0.7861 -0.1520  0.4337
17397TIP3    H273607   4.211   4.655  17.099  1.4609 -0.3752  0.2919
17398TIP3   OH273608   6.321   4.868  15.703 -0.0718  0.0070 -0.2194
17398TIP3    H173609   6.344   4.955  15.671 -3.6801  1.2333  0.1027
17398TIP3    H273610   6.283   4.883  15.789  0.5947 -2.1450  0.5369
17399TIP3   OH273611   1.252   2.713   1.169 -0.2703 -0.4863 -0.3275
17399TIP3    H173612   1.340   2.684   1.146  0.3668  0.7946  0.3512
17399TIP3    H273613   1.234   2.672   1.254  0.0323 -0.0607 -0.0558
17400TIP3   OH273614   0.185   0.162  12.529 -0.1947  0.6012 -0.4896
17400TIP3    H173615   0.263   0.156  12.475  1.1791  0.7585  1.3783
17400TIP3    H273616   0.122   0.103  12.488  1.3053 -0.4172 -1.3983
17401TIP3   OH273617   4.405   6.177  11.668 -0.3073  0.2819  0.0947
17401TIP3    H173618   4.395   6.085  11.693 -0.2237  0.3352  0.3376
17401TIP3    H273619   4.480   6.207  11.720  0.1933  0.2674 -0.6059
17402TIP3   OH273620   5.659   0.629  15.004 -0.3509  0.3413  0.1245
17402TIP3    H173621   5.673   0.555  14.944  0.1307  1.6598 -1.4621
17402TIP3    H273622   5.605   0.592  15.074  3.1801 -2.6023  1.6242
17403TIP3   OH273623   5.875   1.701  14.898  0.5212 -0.2419 -0.3497
17403TIP3    H173624   5.960   1.702  14.943  0.7425  3.0578 -0.6314
17403TIP3    H273625   5.897   1.701  14.805  0.2288  0.5371 -0.4235
17404TIP3   OH273626   5.496   2.212   5.109  0.2608  0.3772 -0.1074
17404TIP3    H173627   5.526   2.282   5.168  0.5175 -0.6209  0.9925
17404TIP3    H273628   5.403   2.203   5.126  0.3098  0.1764  0.0649
17405TIP3   OH273629   1.508   0.148   0.654 -0.1188  0.2279 -0.5432
17405TIP3    H173630   1.440   0.216   0.648  0.6862  0.9237 -2.5995
17405TIP3    H273631   1.566   0.178   0.723  0.6914  2.1351 -1.9719
17406TIP3   OH273632   3.130   2.425   2.022  0.3258 -0.6075  0.2232
17406TIP3    H173633   3.177   2.398   2.101  1.5967  3.0569  0.9056
17406TIP3    H273634   3.049   2.464   2.055 -0.0860 -0.9052 -0.4337
17407TIP3   OH273635   0.417   0.920  12.119  0.5694 -0.0119 -0.4161
17407TIP3    H173636   0.421   0.901  12.025  0.9965 -0.5860 -0.2843
17407TIP3    H273637   0.442   1.013  12.125 -1.1396  0.5364 -1.0179
17408TIP3   OH273638   2.220   5.355   3.351  0.4423 -0.2080  0.1560
17408TIP3    H173639   2.270   5.386   3.427 -0.0832  1.0336  0.0114
17408TIP3    H273640   2.162   5.427   3.329 -0.0814 -0.9131 -0.8607
17409TIP3   OH273641   4.197   3.951   0.854 -0.5573  0.4413  0.3752
17409TIP3    H173642   4.279   3.989   0.888  0.5714 -0.2115 -1.4969
17409TIP3    H273643   4.132   3.972   0.921  1.1578  0.8581  2.0001
17410TIP3   OH273644   1.585   3.875   1.190 -0.4515  0.2519 -0.6365
17410TIP3    H173645   1.520   3.814   1.225 -1.0474  0.2069 -1.7465
17410TIP3    H273646   1.630   3.910   1.266 -2.9734  1.6446  0.3320
17411TIP3   OH273647   0.162   5.249  12.423  0.4572  0.4416 -0.4004
17411TIP3    H173648   0.099   5.231  12.493  1.2882  0.9760  0.5154
17411TIP3    H273649   0.163   5.169  12.370  0.0283 -0.0860  0.3737
17412TIP3   OH273650   5.340   6.156  13.073  0.1787  0.5134  0.4026
17412TIP3    H173651   5.262   6.204  13.042 -0.6286 -0.8434  0.2416
17412TIP3    H273652   5.307   6.069  13.095  1.1015  0.7828  3.2173
17413TIP3   OH273653   4.526   1.730   3.429  0.2562 -0.2328  0.0992
17413TIP3    H173654   4.496   1.656   3.377 -1.5583  0.1270  0.5826
17413TIP3    H273655   4.581   1.691   3.497 -0.1594 -1.0550 -0.0255
17414TIP3   OH273656   5.279   4.115   4.389  0.1947 -0.6352  0.6742
17414TIP3    H173657   5.199   4.135   4.437 -0.5283 -0.7814 -0.4235
17414TIP3    H273658   5.325   4.050   4.443 -0.4429 -0.5756  1.2951
17415TIP3   OH273659   3.546   4.358   2.691 -0.2202  0.0861 -0.3852
17415TIP3    H173660   3.628   4.310   2.680 -0.9235 -1.0893 -0.7055
17415TIP3    H273661   3.540   4.376   2.784 -0.0230 -0.6297 -0.2266
17416TIP3   OH273662   5.564   3.229   5.946 -0.7115  0.7646 -0.3180
17416TIP3    H173663   5.592   3.138   5.944 -2.4257  0.0921  1.9264
17416TIP3    H273664   5.634   3.275   5.991 -0.8604  0.0728  0.6540
17417TIP3   OH273665   2.456   2.402   1.458  0.2399 -0.0430 -0.2361
17417TIP3    H173666   2.441   2.491   1.491  0.8536 -0.1803  0.4297
17417TIP3    H273667   2.549   2.387   1.470 -0.4496 -2.3864  3.8533
17418TIP3   OH273668   0.052   5.335   3.084  0.0662 -0.1310 -0.3711
17418TIP3    H173669  -0.043   5.340   3.076 -0.2243 -1.1027  1.7391
17418TIP3    H273670   0.074   5.401   3.150  0.7366 -0.6217 -0.0956
17419TIP3   OH273671   6.400   4.207  13.226 -0.5283 -0.1426 -0.1629
17419TIP3    H173672   6.413   4.273  13.157  1.3290 -0.0880  0.1734
17419TIP3    H273673   6.306   4.204  13.239 -0.9202  0.0468 -2.5195
17420TIP3   OH273674   6.531   5.502   3.976  0.0008 -0.1082 -0.4825
17420TIP3    H173675   6.555   5.590   4.006 -1.8557  0.2414  0.1580
17420TIP3    H273676   6.495   5.460   4.055 -0.5015 -0.8988 -1.1231
17421TIP3   OH273677   5.954   5.839  12.654 -0.8691 -0.3457  0.8227
17421TIP3    H173678   5.936   5.759  12.702 -0.3655 -0.5933  0.6051
17421TIP3    H273679   5.869   5.882  12.646 -1.0902 -0.7113  1.2020
17422TIP3   OH273680   1.005   4.999   6.275 -0.5590 -0.6715  0.0625
17422TIP3    H173681   1.086   5.025   6.232 -0.5213 -0.6795  0.1279
17422TIP3    H273682   1.033   4.964   6.360 -0.7346  0.5235  0.6246
17423TIP3   OH273683   4.387   4.628   6.512  0.2614  0.3114  0.3031
17423TIP3    H173684   4.369   4.720   6.492 -0.5151  0.1226  0.0830
17423TIP3    H273685   4.447   4.600   6.443  0.7103  0.7227  0.5242
17424TIP3   OH273686   1.505   4.015   4.634 -0.1737 -0.3367  0.2026
17424TIP3    H173687   1.443   4.019   4.707  2.9452 -2.8106  3.3709
17424TIP3    H273688   1.470   3.948   4.576 -1.1479 -0.7026  1.1825
17425TIP3   OH273689   3.416   6.480   0.101  0.4144  0.4891 -0.2109
17425TIP3    H173690   3.447   6.569   0.117 -2.7123  1.5236  0.7697
17425TIP3    H273691   3.349   6.490   0.033 -0.4744 -0.9829  0.4122
17426TIP3   OH273692   4.426   3.404  14.650  0.1223  0.4435  0.4168
17426TIP3    H173693   4.332   3.388  14.647 -0.1225  1.8266 -0.0578
17426TIP3    H273694   4.436   3.495  14.620  1.7493 -0.2220 -1.2472
17427TIP3   OH273695   3.983   4.123   4.198 -0.0196 -0.0139  0.4891
17427TIP3    H173696   3.907   4.118   4.140  0.7058  1.3746 -0.6441
17427TIP3    H273697   4.039   4.050   4.170 -0.1324  0.0446  0.0975
17428TIP3   OH273698   5.211   5.465  16.847 -0.1584 -0.3661  0.4582
17428TIP3    H173699   5.155   5.387  16.843 -1.0710  0.2802 -2.4625
17428TIP3    H273700   5.151   5.538  16.828  1.2770  0.6009 -0.6007
17429TIP3   OH273701   2.487   0.650  14.385  0.1352  0.5669  0.2642
17429TIP3    H173702   2.525   0.654  14.297  1.0640  0.2208  0.6412
17429TIP3    H273703   2.562   0.639  14.443 -0.5572 -0.3591  1.0096
17430TIP3   OH273704   3.833   5.983   4.628 -0.3715 -0.2432  0.0804
17430TIP3    H173705   3.810   5.921   4.559  0.6719 -0.2817 -0.2519
17430TIP3    H273706   3.901   5.939   4.680  0.7927  0.7886 -0.4894
17431TIP3   OH273707   5.688   1.162   0.359 -0.6254 -0.3197  0.0638
17431TIP3    H173708   5.616   1.206   0.405  0.3017  0.2516  1.0116
17431TIP3    H273709   5.754   1.148   0.427 -0.0873 -1.3996 -0.6581
17432TIP3   OH273710   0.156   1.193  10.846  0.5781 -0.0471  0.2821
17432TIP3    H173711   0.238   1.168  10.889 -0.2223 -1.4496  1.0747
17432TIP3    H273712   0.142   1.284  10.873  0.4520 -0.6693  2.5459
17433TIP3   OH273713   1.062   3.803   5.431  0.1652  0.7973  0.3350
17433TIP3    H173714   1.108   3.883   5.456  1.9614  0.0696 -0.5249
17433TIP3    H273715   1.098   3.735   5.488  0.2800  0.1767 -0.4702
17434TIP3   OH273716   5.004   1.104  13.660  0.6080 -0.1495  0.2688
17434TIP3    H173717   4.914   1.085  13.635  1.0017 -1.8130 -0.0130
17434TIP3    H273718   5.009   1.199  13.661 -1.0697 -0.0289  0.0047
17435TIP3   OH273719   1.393   6.095   2.283  0.0902  0.2526  0.7916
17435TIP3    H173720   1.380   6.041   2.205  0.3294 -0.6541  1.3675
17435TIP3    H273721   1.344   6.175   2.265  0.5318  0.2533 -0.4839
17436TIP3   OH273722   2.461   1.585  13.958 -0.6877  0.0651  0.4289
17436TIP3    H173723   2.422   1.498  13.961 -1.5257  0.4508  1.1142
17436TIP3    H273724   2.543   1.577  14.007 -0.5839 -0.4108  0.1838
17437TIP3   OH273725   0.679   5.449   2.741  0.0450  0.4562  0.1665
17437TIP3    H173726   0.722   5.510   2.681 -0.4124  0.0671 -0.5729
17437TIP3    H273727   0.663   5.501   2.820  1.7305  0.6399  0.4135
17438TIP3   OH273728   2.971   4.575  15.677 -0.8913  0.0700 -0.7931
17438TIP3    H173729   3.006   4.664  15.674  0.3207 -0.4046 -1.5725
17438TIP3    H273730   2.889   4.583  15.725 -0.6701  1.5609 -0.6171
17439TIP3   OH273731   1.347   5.368  14.857 -0.0260  0.0439  0.2763
17439TIP3    H173732   1.272   5.310  14.868  0.5748 -0.5858  1.2745
17439TIP3    H273733   1.420   5.309  14.835  0.3655  0.5386  0.2262
17440TIP3   OH273734   1.284   3.132   3.629 -0.2903 -0.6835 -0.5572
17440TIP3    H173735   1.266   3.038   3.626 -0.4059 -0.7135  0.6412
17440TIP3    H273736   1.198   3.173   3.619 -0.4116 -0.7421  0.1558
17441TIP3   OH273737   3.667   3.886   3.430 -0.0955 -0.2700  0.4584
17441TIP3    H173738   3.617   3.856   3.506 -0.4195 -3.8544 -0.9707
17441TIP3    H273739   3.752   3.843   3.440  0.8681  1.4860  0.1494
17442TIP3   OH273740   4.424   3.035  11.920  0.4764 -0.2945 -0.0505
17442TIP3    H173741   4.329   3.031  11.931  0.3488 -1.6330 -1.3956
17442TIP3    H273742   4.449   2.948  11.889  2.2398 -0.1636  0.8442
17443TIP3   OH273743   2.874   0.069  16.299  0.5363 -0.2327  0.1259
17443TIP3    H173744   2.953   0.016  16.300 -0.2872 -1.4864  1.7007
17443TIP3    H273745   2.878   0.121  16.379 -0.4059 -0.5806  0.4134
17444TIP3   OH273746   4.436   3.702  11.131 -0.4059 -0.2326  0.3232
17444TIP3    H173747   4.422   3.665  11.218 -0.0340 -1.8669 -0.2792
17444TIP3    H273748   4.372   3.657  11.076 -1.7259  1.8957 -0.0243
17445TIP3   OH273749   5.405   4.728  11.756  0.1212  0.0508 -0.2053
17445TIP3    H173750   5.321   4.768  11.732  1.3937  2.2374 -1.3646
17445TIP3    H273751   5.423   4.762  11.844 -0.1605 -0.3853  0.0266
17446TIP3   OH273752   6.289   2.872   1.295 -0.0892  0.2394  0.0462
17446TIP3    H173753   6.307   2.929   1.221  0.5158 -0.1179 -0.0900
17446TIP3    H273754   6.223   2.918   1.346  1.5740  1.8747  0.8564
17447TIP3   OH273755   5.429   3.268   0.081 -0.0140 -0.4819 -0.6151
17447TIP3    H173756   5.458   3.242  -0.006 -0.3265  1.6666 -1.4236
17447TIP3    H273757   5.509   3.269   0.134  0.6221  0.6591 -1.5577
17448TIP3   OH273758   5.845   3.583   0.950  0.0546  0.0206  0.3592
17448TIP3    H173759   5.819   3.584   1.042  0.7630  0.7209  0.5648
17448TIP3    H273760   5.938   3.558   0.952 -0.0751 -0.5264 -0.2106
17449TIP3   OH273761   0.901   6.709   2.432 -0.1892  0.1601  0.3652
17449TIP3    H173762   0.962   6.662   2.374  0.3871  0.7310  0.4932
17449TIP3    H273763   0.838   6.749   2.373 -0.1390 -0.0107  0.1927
17450TIP3   OH273764   0.790   1.194  16.838  0.0172  0.3866 -0.2419
17450TIP3    H173765   0.851   1.265  16.816  0.4203 -0.1946 -1.0343
17450TIP3    H273766   0.704   1.235  16.836  0.3193  1.0749  0.2854
17451TIP3   OH273767   3.722   0.607   2.854  0.1337  0.1083  0.4064
17451TIP3    H173768   3.699   0.518   2.826  0.4918  0.1619 -0.0722
17451TIP3    H273769   3.804   0.596   2.903  1.1613  0.3709 -1.1710
17452TIP3   OH273770   1.217   0.651   4.775 -0.0226 -0.1098 -0.8467
17452TIP3    H173771   1.192   0.599   4.851  1.9565  0.0717 -0.0141
17452TIP3    H273772   1.134   0.674   4.734 -1.3333  1.3205  2.2648
17453TIP3   OH273773   4.405   1.589   5.301 -0.1386 -0.6437 -0.6957
17453TIP3    H173774   4.344   1.525   5.263  0.7248 -1.8445 -0.1138
17453TIP3    H273775   4.357   1.626   5.376 -1.0347  0.1912 -1.6398
17454TIP3   OH273776   3.505   2.324   2.987 -0.2866 -0.3477  0.3306
17454TIP3    H173777   3.450   2.292   2.916 -2.5938 -0.0882  1.8643
17454TIP3    H273778   3.514   2.250   3.046  0.8459 -0.3107  0.2210
17455TIP3   OH273779   0.374   1.056  15.801 -0.6176 -0.2371 -0.1458
17455TIP3    H173780   0.364   1.099  15.716  0.3746 -0.8148 -0.5688
17455TIP3    H273781   0.376   0.963  15.780  1.6776 -0.3322  0.2500
17456TIP3   OH273782   0.427   1.237  12.714  0.3472 -0.1196 -0.0829
17456TIP3    H173783   0.400   1.241  12.622  0.7179  1.2565 -0.1436
17456TIP3    H273784   0.349   1.205  12.760 -1.1641  2.8130 -0.4004
17457TIP3   OH273785   4.293   4.182  15.446  0.2429  0.1714  0.0068
17457TIP3    H173786   4.309   4.118  15.377 -0.8049  0.2260 -0.3155
17457TIP3    H273787   4.204   4.163  15.475 -0.7715  2.5324 -1.2806
17458TIP3   OH273788   6.038   3.957   5.655  0.3567 -0.4353 -0.2915
17458TIP3    H173789   6.132   3.941   5.656  0.0541 -2.8575  2.1662
17458TIP3    H273790   5.999   3.873   5.632 -1.2300  0.1843 -0.0266
17459TIP3   OH273791   0.340   3.016   4.980 -0.1651  0.6100 -0.1190
17459TIP3    H173792   0.421   3.052   4.945 -0.2121  0.1648 -0.7084
17459TIP3    H273793   0.351   2.921   4.971 -1.6803  0.5712 -2.4111
17460TIP3   OH273794   1.484   6.201   3.065  0.4244 -0.0086  0.2963
17460TIP3    H173795   1.520   6.192   2.977 -1.6603 -1.6291 -0.4801
17460TIP3    H273796   1.559   6.190   3.123  1.6935  0.1254 -1.2551
17461TIP3   OH273797   1.171   6.151   5.015 -0.2367 -0.0664  0.4620
17461TIP3    H173798   1.118   6.094   5.070 -0.0266 -0.9991 -0.2837
17461TIP3    H273799   1.184   6.230   5.068 -0.1248 -0.8938  1.7125
17462TIP3   OH273800   3.165   0.111  14.726  0.0934  0.5340  0.1127
17462TIP3    H173801   3.129   0.157  14.802 -1.2050  1.9326 -1.2844
17462TIP3    H273802   3.255   0.141  14.720  0.0952  0.6927  0.8792
17463TIP3   OH273803   5.201   5.084  14.425 -0.7005  0.0818 -0.1570
17463TIP3    H173804   5.239   5.136  14.496  0.6638 -0.3183 -0.5663
17463TIP3    H273805   5.257   5.007  14.420 -0.6184  0.2319 -1.8420
17464TIP3   OH273806   6.338   4.328  11.945 -0.7284 -0.3850 -0.3171
17464TIP3    H173807   6.292   4.407  11.918  1.0018  0.9902  0.6156
17464TIP3    H273808   6.349   4.278  11.863  1.0648  1.9045 -1.5804
17465TIP3   OH273809   0.450   3.350   1.525  0.1644 -0.3989  0.4521
17465TIP3    H173810   0.487   3.300   1.452  0.3873  0.5330 -0.0963
17465TIP3    H273811   0.410   3.427   1.483  0.0665  0.0158  1.2920
17466TIP3   OH273812   1.579   2.098  14.467  0.4550  0.4261  0.3613
17466TIP3    H173813   1.627   2.097  14.384  2.3902 -0.1233  1.4266
17466TIP3    H273814   1.530   2.180  14.466  0.2335  0.2986 -1.4218
17467TIP3   OH273815   4.652   2.055  11.422  0.2943  0.1348  0.1898
17467TIP3    H173816   4.707   1.984  11.388 -1.0217 -1.6653  1.5837
17467TIP3    H273817   4.573   2.053  11.367  0.9686  1.7977 -0.9260
17468TIP3   OH273818   0.595   6.713  16.662  0.7402  0.2666  0.6692
17468TIP3    H173819   0.686   6.718  16.692  0.6045 -1.0263  1.3229
17468TIP3    H273820   0.579   6.799  16.621  2.0532  0.7312  1.0857
17469TIP3   OH273821   5.753   1.527  16.163 -0.0308 -0.4402  0.0886
17469TIP3    H173822   5.804   1.542  16.084  0.7544 -0.6497  0.5456
17469TIP3    H273823   5.662   1.544  16.137 -0.0801 -2.7191 -1.4672
17470TIP3   OH273824   0.371   2.576  13.125 -0.0441 -0.5496 -0.5738
17470TIP3    H173825   0.305   2.624  13.075  0.0539 -0.1443 -0.3160
17470TIP3    H273826   0.453   2.595  13.081  0.1228  0.2866  0.0877
17471TIP3   OH273827   2.346   0.974   2.329 -0.0178  0.0557 -0.4429
17471TIP3    H173828   2.410   0.942   2.393 -0.9122  1.6422  1.3305
17471TIP3    H273829   2.348   0.909   2.259  1.3003 -1.5502  1.0000
17472TIP3   OH273830   4.277   1.141  13.525 -0.0068  0.5794  0.1118
17472TIP3    H173831   4.361   1.098  13.542  0.2834  1.3544  0.6476
17472TIP3    H273832   4.291   1.189  13.444  0.1691  0.9691  0.3719
17473TIP3   OH273833   1.498   3.478   3.651  0.2902  0.3602  0.4332
17473TIP3    H173834   1.550   3.557   3.664 -0.3526  0.7096  0.9692
17473TIP3    H273835   1.408   3.506   3.668 -0.1729 -0.0655 -1.1443
17474TIP3   OH273836   4.732   1.213  13.982 -0.4578 -0.5747 -0.5154
17474TIP3    H173837   4.657   1.199  13.925  0.5662 -0.8732 -1.8356
17474TIP3    H273838   4.801   1.244  13.924  0.0617  1.0174  0.8922
17475TIP3   OH273839   1.459   0.745  12.265  0.7464  0.8065 -0.2132
17475TIP3    H173840   1.453   0.736  12.169  0.9282 -4.1682 -0.0569
17475TIP3    H273841   1.548   0.776  12.280  0.2398  3.1494 -1.5875
17476TIP3   OH273842   3.966   6.432  16.075  0.0699  0.8310 -0.0625
17476TIP3    H173843   3.916   6.386  16.142  1.1461  1.2442  1.0690
17476TIP3    H273844   3.906   6.499  16.042  0.0219  1.7339  1.7128
17477TIP3   OH273845   5.030   1.417  15.321  0.4248  0.0552 -0.4133
17477TIP3    H173846   5.063   1.425  15.411  0.8818 -0.0235 -0.5696
17477TIP3    H273847   5.104   1.444  15.267  0.6916 -1.3726 -0.8189
17478TIP3   OH273848   2.363   3.177  14.941 -0.1785 -0.3650 -0.3794
17478TIP3    H173849   2.397   3.232  14.870  0.1726  0.0355  0.0921
17478TIP3    H273850   2.431   3.179  15.008  0.0231 -1.7234 -0.5266
17479TIP3   OH273851   2.208   4.261  13.806 -0.4556 -0.1033  0.3083
17479TIP3    H173852   2.179   4.200  13.739 -2.9223  1.5794 -0.2815
17479TIP3    H273853   2.143   4.253  13.876  0.9780 -0.4139  1.6537
17480TIP3   OH273854   5.176   6.247  12.574  0.2315  0.0164  0.1688
17480TIP3    H173855   5.255   6.297  12.556  1.7272 -1.6038  1.9324
17480TIP3    H273856   5.167   6.188  12.498  1.6799 -0.9226  0.6917
17481TIP3   OH273857   3.859   1.103   2.069 -0.1081  0.1971  0.3711
17481TIP3    H173858   3.893   1.186   2.034 -2.3136  1.7258  1.5802
17481TIP3    H273859   3.786   1.081   2.011 -0.6224  0.0594  1.0566
17482TIP3   OH273860   5.810   1.601   4.939  0.1390  0.1680  0.1189
17482TIP3    H173861   5.715   1.616   4.938  0.0554 -0.3508  0.3335
17482TIP3    H273862   5.846   1.677   4.893 -0.4402 -0.0913 -0.7884
17483TIP3   OH273863   0.024   0.529  15.254  0.4301  0.4574 -0.1050
17483TIP3    H173864  -0.071   0.533  15.267  0.1613  1.9455 -2.0974
17483TIP3    H273865   0.056   0.478  15.329 -2.0520 -1.2344 -0.0812
17484TIP3   OH273866   6.544   6.355   0.279 -0.1864  0.6720  0.3073
17484TIP3    H173867   6.496   6.437   0.264 -1.0928 -0.0325 -0.7604
17484TIP3    H273868   6.510   6.294   0.214 -0.3669 -0.9338  1.8272
17485TIP3   OH273869   3.696   5.116   0.366  0.2936 -0.6946  0.0128
17485TIP3    H173870   3.656   5.030   0.358 -0.0217 -0.3931 -2.3478
17485TIP3    H273871   3.736   5.132   0.281  1.8296  0.7930  0.9590
17486TIP3   OH273872   4.794   5.922   2.380  0.1944 -0.0004  0.0253
17486TIP3    H173873   4.715   5.969   2.353  0.6568  0.9437  0.2982
17486TIP3    H273874   4.861   5.989   2.390  0.2860 -0.3981  2.6720
17487TIP3   OH273875   3.719   4.742  14.368 -0.0533  0.2594  0.0710
17487TIP3    H173876   3.676   4.659  14.389 -1.8817  0.8188 -1.2032
17487TIP3    H273877   3.659   4.810  14.399  1.0032  1.1172  0.3066
17488TIP3   OH273878   5.274   0.744  17.281 -0.5613  0.2184 -0.1283
17488TIP3    H173879   5.269   0.699  17.197 -1.2814 -2.2777  1.1452
17488TIP3    H273880   5.203   0.707  17.332  3.0051 -2.6685  3.4411
17489TIP3   OH273881   3.396   6.338  11.418 -0.2761  0.5781  0.0504
17489TIP3    H173882   3.385   6.268  11.354 -1.3610  0.7984 -0.0180
17489TIP3    H273883   3.456   6.302  11.483 -0.0461 -0.0527 -0.4986
17490TIP3   OH273884   5.840   6.004   2.606 -0.4179  1.0064 -0.7483
17490TIP3    H173885   5.857   6.074   2.543 -2.2891  1.7810 -0.4719
17490TIP3    H273886   5.895   6.025   2.681  0.8812  0.7825 -1.6147
17491TIP3   OH273887   0.857   1.608   4.071  0.0904 -0.1794  0.4753
17491TIP3    H173888   0.790   1.665   4.110 -0.6166 -1.0687  0.5738
17491TIP3    H273889   0.816   1.571   3.993  0.6192 -0.4002  0.2934
17492TIP3   OH273890   2.710   2.420  12.590  0.0603 -0.2558 -0.6357
17492TIP3    H173891   2.742   2.377  12.669 -3.1237 -2.0933 -0.1985
17492TIP3    H273892   2.691   2.509  12.617 -0.3034 -0.6580  0.5048
17493TIP3   OH273893   3.139   0.834  12.681  0.2826 -0.1160  0.7277
17493TIP3    H173894   3.224   0.878  12.678  1.2398 -1.9623 -1.8924
17493TIP3    H273895   3.146   0.772  12.754  1.2237 -0.3230  0.4628
17494TIP3   OH273896   1.072   2.527  14.318 -0.1273 -0.0183 -0.5302
17494TIP3    H173897   1.002   2.578  14.277  0.7927  1.1905 -0.6264
17494TIP3    H273898   1.065   2.548  14.412 -1.9032 -2.3874 -0.0231
17495TIP3   OH273899   3.162   0.923  11.030 -0.0087  0.0528  0.6725
17495TIP3    H173900   3.221   0.954  11.099  0.1410  0.7318  0.2405
17495TIP3    H273901   3.197   0.960  10.949 -0.3313 -0.5287  0.2576
17496TIP3   OH273902   0.351   3.615   4.852 -0.3206  0.1836 -0.2717
17496TIP3    H173903   0.300   3.554   4.798  1.5700 -0.1951 -1.7600
17496TIP3    H273904   0.325   3.702   4.821  1.5985 -0.0278 -2.8180
17497TIP3   OH273905   1.276   5.218  15.983  0.2983  0.2506  0.4419
17497TIP3    H173906   1.217   5.202  15.909  3.7182 -0.0913 -2.4900
17497TIP3    H273907   1.276   5.313  15.994 -0.1104  0.3158 -0.1134
17498TIP3   OH273908   4.948   1.444  11.531  0.3114  0.7819 -0.5827
17498TIP3    H173909   4.906   1.389  11.597  1.7544 -0.7261 -0.8447
17498TIP3    H273910   4.892   1.435  11.454  0.4775 -0.2973 -0.5987
17499TIP3   OH273911   5.587   1.446   3.047  0.0757  0.2462  0.3544
17499TIP3    H173912   5.530   1.369   3.050  0.3617  0.0627  2.7424
17499TIP3    H273913   5.548   1.508   3.108  1.1116  1.0989  0.1915
17500TIP3   OH273914   2.885   2.219   4.335 -0.1899 -0.0806 -0.3648
17500TIP3    H173915   2.974   2.226   4.368 -0.2397  0.1501 -0.2830
17500TIP3    H273916   2.881   2.130   4.298 -0.6340 -0.9967  1.7381
17501TIP3   OH273917   0.888   5.491  15.070  0.4444  0.2835  0.0332
17501TIP3    H173918   0.980   5.477  15.092  0.4763  0.3185 -0.0761
17501TIP3    H273919   0.889   5.562  15.006  0.3658  0.0801 -0.1949
17502TIP3   OH273920   6.286   0.084  13.384 -0.4087  0.1560 -0.1044
17502TIP3    H173921   6.253   0.048  13.467  0.0157 -0.7752 -0.3271
17502TIP3    H273922   6.307   0.007  13.331  1.0241  0.7242 -0.4064
17503TIP3   OH273923   6.479   1.219  12.436  0.2091 -0.6026  0.5668
17503TIP3    H173924   6.385   1.235  12.444  0.5403  0.4276  3.1850
17503TIP3    H273925   6.515   1.304  12.413  0.5443 -0.9477 -0.2081
17504TIP3   OH273926   2.041   3.871  13.171  0.0874  0.1571 -0.0454
17504TIP3    H173927   2.120   3.822  13.193  0.2057  0.4406  0.1686
17504TIP3    H273928   2.067   3.927  13.098  0.8106  2.0760  1.5850
17505TIP3   OH273929   0.098   6.206  12.559  0.2221 -0.0679  0.2598
17505TIP3    H173930   0.133   6.237  12.642  1.3161  0.0105 -0.2144
17505TIP3    H273931   0.164   6.145  12.526 -0.7531 -1.0184  0.0006
17506TIP3   OH273932   4.681   1.125   4.478 -0.1342  0.7622  0.1805
17506TIP3    H173933   4.609   1.178   4.444 -0.7784  0.0709  0.4418
17506TIP3    H273934   4.736   1.187   4.526 -1.3922  1.0413  1.3046
17507TIP3   OH273935   6.708   4.580  15.407 -0.3604 -0.4289 -0.6057
17507TIP3    H173936   6.673   4.585  15.496  0.7348 -0.6554 -0.1477
17507TIP3    H273937   6.631   4.565  15.353 -1.2144  1.0222  0.1432
17508TIP3   OH273938   0.579   5.752   4.468 -0.1070  0.2404 -0.1397
17508TIP3    H173939   0.616   5.691   4.404 -0.9110  0.5461 -0.9134
17508TIP3    H273940   0.499   5.710   4.499  0.9894 -0.5655  1.7727
17509TIP3   OH273941   4.847   5.955  11.301  0.0967  0.1569  0.4134
17509TIP3    H173942   4.777   5.993  11.247 -0.4592 -0.3281  0.7839
17509TIP3    H273943   4.818   5.966  11.391  0.3952 -0.2507  0.5650
17510TIP3   OH273944   3.521   4.102   3.229 -0.0641 -0.5594  0.1831
17510TIP3    H173945   3.437   4.076   3.267  0.1104 -0.4075  0.6893
17510TIP3    H273946   3.580   4.030   3.250 -0.3515 -1.2488 -1.2566
17511TIP3   OH273947   2.964   4.915   4.265  0.3779 -0.3083 -0.6135
17511TIP3    H173948   2.951   4.975   4.191  2.3082  0.1455 -0.6321
17511TIP3    H273949   3.054   4.886   4.257  0.4088 -0.8117  1.1655
17512TIP3   OH273950   5.112   6.085   3.221 -0.1543 -0.1502 -0.3035
17512TIP3    H173951   5.122   6.163   3.277  1.5763 -0.3808 -0.2430
17512TIP3    H273952   5.153   6.015   3.270 -1.2338 -1.0201 -0.6034
17513TIP3   OH273953   5.337   2.449   6.354 -0.1062 -0.1561 -0.0067
17513TIP3    H173954   5.370   2.495   6.432  0.6032  1.8929 -1.4107
17513TIP3    H273955   5.391   2.370   6.348  1.7653  1.0341  0.0918
17514TIP3   OH273956   5.756   0.114   4.632  0.7812 -0.1901  0.1933
17514TIP3    H173957   5.709   0.197   4.629  0.3928 -0.4185 -0.0778
17514TIP3    H273958   5.703   0.054   4.579  0.7950 -0.7453  0.7941
17515TIP3   OH273959   6.127   5.000  14.422 -0.1133 -0.1966 -0.0162
17515TIP3    H173960   6.183   5.031  14.351 -0.1696 -0.5469 -0.2156
17515TIP3    H273961   6.040   4.992  14.383 -0.2131 -0.0665  0.1805
17516TIP3   OH273962   4.474   6.406   5.149 -1.3246 -0.4509 -0.0054
17516TIP3    H173963   4.464   6.457   5.230 -1.6623 -1.0706  0.3482
17516TIP3    H273964   4.558   6.435   5.114 -1.2231 -0.0905  0.5109
17517TIP3   OH273965   0.858   6.327   2.417 -0.1321 -0.3712  0.1497
17517TIP3    H173966   0.837   6.316   2.324  2.5148  0.8672 -0.6741
17517TIP3    H273967   0.799   6.396   2.446 -0.5410 -0.3081 -0.7859
17518TIP3   OH273968   3.245   3.371   0.691  0.0917  0.0125 -0.0853
17518TIP3    H173969   3.189   3.294   0.685 -0.6792  0.6125 -0.8272
17518TIP3    H273970   3.192   3.436   0.738  0.5719  0.2391  0.1506
17519TIP3   OH273971   3.495   2.326  14.693 -0.3724 -0.0683  0.4276
17519TIP3    H173972   3.507   2.421  14.696 -1.6223  0.3137 -2.6838
17519TIP3    H273973   3.584   2.291  14.683 -0.0292  0.9173 -0.0741
17520TIP3   OH273974   3.682   0.660  14.152 -0.6003  0.2543 -0.0992
17520TIP3    H173975   3.723   0.607  14.220  1.1549  1.0814 -0.4395
17520TIP3    H273976   3.629   0.724  14.199 -2.9678 -1.8744  0.3106
17521TIP3   OH273977   3.322   5.152   5.725  0.4749 -0.3342  0.0437
17521TIP3    H173978   3.350   5.179   5.813 -1.6798  1.3013  0.3245
17521TIP3    H273979   3.370   5.210   5.666  0.3510  0.0493  0.3089
17522TIP3   OH273980   0.203   4.163  17.119 -0.4882 -0.0628 -0.1561
17522TIP3    H173981   0.200   4.259  17.110  0.2420  0.0030  0.3106
17522TIP3    H273982   0.200   4.148  17.213 -0.1919 -0.4902 -0.2174
17523TIP3   OH273983   1.661   0.945  12.131  0.3977  0.0374 -0.2746
17523TIP3    H173984   1.677   0.907  12.217 -0.1219 -2.3220 -1.1302
17523TIP3    H273985   1.743   0.989  12.108 -0.4701  3.5755  2.6827
17524TIP3   OH273986   5.620   4.430  12.077 -0.2907 -0.0907 -0.1946
17524TIP3    H173987   5.547   4.446  12.018  0.3136 -0.1898 -0.9860
17524TIP3    H273988   5.582   4.381  12.150 -1.4687  1.7620  0.5398
17525TIP3   OH273989   2.931   1.441  12.501  0.5205 -0.4206  0.1146
17525TIP3    H173990   2.875   1.459  12.425 -0.7377 -0.4261  1.0057
17525TIP3    H273991   3.007   1.498  12.489 -0.5364  0.9666 -0.2046
17526TIP3   OH273992   3.969   6.451  12.682  0.0535  0.6768  0.7201
17526TIP3    H173993   4.010   6.367  12.665  0.4745  0.8054  1.0774
17526TIP3    H273994   3.876   6.431  12.696 -0.1098  0.4520 -0.6345
17527TIP3   OH273995   1.326   2.158  13.453  0.1192 -0.3591 -0.7091
17527TIP3    H173996   1.306   2.221  13.523 -2.4407 -2.3252  0.4865
17527TIP3    H273997   1.383   2.093  13.494 -3.3649 -2.9026  0.5516
17528TIP3   OH273998   3.503   4.196   0.913 -0.4858 -0.4877  0.7567
17528TIP3    H173999   3.533   4.240   0.992  0.7036  0.4192 -0.1584
17528TIP3    H274000   3.566   4.222   0.845 -3.6730  2.1762 -1.5153
17529TIP3   OH274001   0.870   1.631  10.855  0.0388  0.2431  0.0258
17529TIP3    H174002   0.780   1.661  10.844 -0.1355  0.1085  0.9922
17529TIP3    H274003   0.862   1.540  10.883  0.4822  0.1609 -0.1068
17530TIP3   OH274004   2.667   1.256   1.593 -0.0816 -0.4165  0.3226
17530TIP3    H174005   2.616   1.218   1.521 -1.4670  1.2596  0.3417
17530TIP3    H274006   2.659   1.193   1.664 -1.4612 -0.6060  0.0374
17531TIP3   OH274007   4.095   2.070   3.518  0.4087  0.4731 -0.1708
17531TIP3    H174008   4.102   2.155   3.561  0.8879  0.2544  0.1981
17531TIP3    H274009   4.180   2.028   3.534 -0.4400 -0.8068  1.2489
17532TIP3   OH274010   3.793   5.657   5.008  0.6136 -1.0246 -0.0640
17532TIP3    H174011   3.716   5.668   5.065  0.1328 -0.9690 -0.7158
17532TIP3    H274012   3.798   5.738   4.958  0.4815 -1.4347 -0.7583
17533TIP3   OH274013   4.089   5.707   4.478  0.4886 -0.8435  0.2876
17533TIP3    H174014   4.142   5.628   4.493 -0.0671 -1.3910 -0.5334
17533TIP3    H274015   4.054   5.729   4.564  1.1550 -1.1215  0.6376
17534TIP3   OH274016   5.120   6.259  12.003  0.3043 -0.2322 -0.2672
17534TIP3    H174017   5.152   6.244  12.092 -0.3197  2.1310  0.4342
17534TIP3    H274018   5.139   6.351  11.985  0.2684 -0.5993 -2.5463
17535TIP3   OH274019   0.354   0.157  14.456 -0.5622  0.0286 -0.5654
17535TIP3    H174020   0.383   0.066  14.464 -2.1545 -0.6386 -1.7949
17535TIP3    H274021   0.414   0.206  14.512  1.5296 -1.5069 -1.3017
17536TIP3   OH274022   0.063   6.179  14.565  0.3944  0.0376  0.1635
17536TIP3    H174023   0.012   6.259  14.560 -0.7636 -0.5781  1.4649
17536TIP3    H274024   0.071   6.149  14.474 -0.3542  0.8858 -0.1854
17537TIP3   OH274025   0.527   4.980  14.815  0.7753  0.2966 -0.3420
17537TIP3    H174026   0.533   5.076  14.807  1.5862  0.3691  0.8398
17537TIP3    H274027   0.618   4.952  14.824  0.5546 -0.6216 -0.8581
17538TIP3   OH274028   5.465   1.351   6.199  0.7100  0.6792 -0.4397
17538TIP3    H174029   5.420   1.435   6.194 -0.7288 -0.0590 -0.5354
17538TIP3    H274030   5.436   1.314   6.283  0.7287 -0.0289 -0.7387
17539TIP3   OH274031   2.100   5.243  12.058 -0.5810  0.2265 -0.0755
17539TIP3    H174032   2.100   5.147  12.053 -2.5177  0.1974 -0.1650
17539TIP3    H274033   2.148   5.270  11.980  0.3018 -0.6525  0.1326
17540TIP3   OH274034   1.860   6.087   1.446 -0.2232  0.1766  0.3928
17540TIP3    H174035   1.954   6.089   1.429 -0.4350 -0.5458 -0.9938
17540TIP3    H274036   1.850   6.131   1.531  1.3431  0.3378  0.5212
17541TIP3   OH274037   0.461   1.139   2.936 -0.1213 -0.0194 -0.6063
17541TIP3    H174038   0.369   1.161   2.949 -0.1159  0.3780 -1.1930
17541TIP3    H274039   0.475   1.061   2.989 -1.4113 -1.4781 -2.2860
17542TIP3   OH274040   1.249   3.122  12.378 -0.6445 -0.2430 -0.0342
17542TIP3    H174041   1.244   3.199  12.434 -0.2841  0.2708 -0.7020
17542TIP3    H274042   1.169   3.125  12.326 -0.7336 -0.4443  0.0884
17543TIP3   OH274043   5.407   6.747   3.868 -0.7993 -0.2312  0.1028
17543TIP3    H174044   5.391   6.841   3.880  1.2943  0.1154  0.7999
17543TIP3    H274045   5.380   6.708   3.951  1.7936  0.3623  1.3399
17544TIP3   OH274046   4.073   3.244   3.522 -0.1357 -0.6110  0.2876
17544TIP3    H174047   4.166   3.252   3.499  0.1873 -0.0876  1.7135
17544TIP3    H274048   4.054   3.323   3.573 -1.3672 -0.7196  0.0199
17545TIP3   OH274049   5.324   4.428   2.488  0.5097  0.7128 -0.1270
17545TIP3    H174050   5.267   4.379   2.429  1.1971  0.4584 -0.5976
17545TIP3    H274051   5.285   4.415   2.575  2.1230 -3.0211  0.2211
17546TIP3   OH274052   6.303   1.928   3.431  0.5492 -0.2278  0.1079
17546TIP3    H174053   6.274   1.889   3.513  0.2667 -1.5849 -0.6061
17546TIP3    H274054   6.371   1.868   3.399 -0.0665 -0.2879 -1.1473
17547TIP3   OH274055   0.941   0.436   5.594 -0.0330 -0.0612  0.0285
17547TIP3    H174056   0.898   0.485   5.525 -2.1547 -1.6059  0.1508
17547TIP3    H274057   0.897   0.351   5.594  1.7831 -1.0762  1.4631
17548TIP3   OH274058   2.023   6.510   3.532 -0.4402 -0.3515 -0.0804
17548TIP3    H174059   2.087   6.493   3.463 -1.4598  1.1006 -1.4591
17548TIP3    H274060   2.056   6.587   3.577 -0.4042 -0.5761  0.2870
17549TIP3   OH274061   3.349   4.013  12.077  0.2284  0.1328  0.0717
17549TIP3    H174062   3.332   4.083  12.140  0.8440  0.0577  0.3215
17549TIP3    H274063   3.439   4.027  12.049  0.3002 -0.4568 -0.0028
17550TIP3   OH274064   6.293   1.570  13.451  0.3841 -0.4537  0.3779
17550TIP3    H174065   6.237   1.566  13.374  1.1088 -1.5727 -0.1166
17550TIP3    H274066   6.322   1.661  13.455  0.3374 -0.3817 -0.6732
17551TIP3   OH274067   6.587   5.515  13.954 -0.1195 -0.1913 -0.8957
17551TIP3    H174068   6.567   5.463  14.032  0.6992 -1.2320 -1.3538
17551TIP3    H274069   6.677   5.492  13.932  0.9370  2.7284 -0.1423
17552TIP3   OH274070   6.263   5.460   3.581  0.5352  0.3474 -0.1687
17552TIP3    H174071   6.216   5.477   3.663  2.3546  1.3072  0.7347
17552TIP3    H274072   6.333   5.400   3.606  1.2765  0.8591 -0.9687
17553TIP3   OH274073   2.885   0.767  10.598 -0.0945 -0.7661 -0.4532
17553TIP3    H174074   2.896   0.857  10.565  0.1482  0.2568  2.1882
17553TIP3    H274075   2.961   0.720  10.564 -0.0581  0.0796 -1.6230
17554TIP3   OH274076   4.631   2.095  14.936  0.0754 -0.1329  0.0307
17554TIP3    H174077   4.721   2.101  14.970 -0.5091 -0.2748  1.6697
17554TIP3    H274078   4.641   2.046  14.854  1.2676 -2.1588  1.2843
17555TIP3   OH274079   5.630   4.637  10.540  0.6137 -0.5887 -0.0822
17555TIP3    H174080   5.587   4.721  10.558  0.4421 -0.7806  0.3929
17555TIP3    H274081   5.559   4.573  10.538  0.6407 -0.6120 -1.2579
17556TIP3   OH274082   3.066   3.210  12.087  0.3269 -0.6711  0.4579
17556TIP3    H174083   2.997   3.268  12.117  0.9757  0.4967 -0.2457
17556TIP3    H274084   3.068   3.139  12.151 -0.2267  0.2809  1.5534
17557TIP3   OH274085   0.649   3.528  17.116 -0.0540 -0.3545 -0.0407
17557TIP3    H174086   0.596   3.593  17.162  1.9710  2.1956 -1.1051
17557TIP3    H274087   0.711   3.496  17.181  0.6520  0.7642 -0.1554
17558TIP3   OH274088   0.674   2.665  17.200  0.1425  0.2572  0.0283
17558TIP3    H174089   0.591   2.707  17.223  0.2760 -0.6235  2.5055
17558TIP3    H274090   0.648   2.585  17.154 -0.3025  0.7179 -0.5419
17559TIP3   OH274091   4.055   0.157   0.160 -0.6698 -0.1304 -0.3002
17559TIP3    H174092   4.004   0.222   0.208  0.3305 -0.8324  1.8511
17559TIP3    H274093   4.108   0.208   0.099 -2.1557  0.7865 -0.8812
17560TIP3   OH274094   4.098   2.886   4.577  0.0384 -0.4550 -0.3942
17560TIP3    H174095   4.146   2.835   4.511 -0.3935 -0.7083 -0.5148
17560TIP3    H274096   4.078   2.969   4.533  1.6751  0.2648  0.1515
17561TIP3   OH274097   4.202   1.043   5.211  0.4741  0.0698  0.0875
17561TIP3    H174098   4.176   1.031   5.303 -0.0496 -1.7019 -0.2538
17561TIP3    H274099   4.261   0.969   5.194  0.5182  0.3566 -1.0303
17562TIP3   OH274100   4.865   0.958   0.396  0.5233  0.1364 -0.1131
17562TIP3    H174101   4.804   0.963   0.322  1.8705 -0.9221 -1.3644
17562TIP3    H274102   4.948   0.987   0.359  1.3405 -0.9292  0.8414
17563TIP3   OH274103   4.863   2.671   0.368 -0.0901 -0.0626  0.4965
17563TIP3    H174104   4.826   2.633   0.289 -0.4407 -0.3196  0.7824
17563TIP3    H274105   4.788   2.685   0.426  0.3855 -1.7275  1.5699
17564TIP3   OH274106   0.347   6.551   1.290 -0.2028 -0.4292  0.2295
17564TIP3    H174107   0.314   6.573   1.377 -0.1247 -0.4434  0.2630
17564TIP3    H274108   0.378   6.634   1.254  2.7832 -0.8625  1.4874
17565TIP3   OH274109   2.869   0.922  12.680  0.2387  0.8041  0.6099
17565TIP3    H174110   2.964   0.913  12.686  0.1006  0.2291  2.6042
17565TIP3    H274111   2.857   1.004  12.632  1.6448 -0.8978 -2.9872
17566TIP3   OH274112   3.645   1.862   5.432  0.4862 -0.0453  1.0732
17566TIP3    H174113   3.554   1.865   5.459  0.5400  0.2318  1.2346
17566TIP3    H274114   3.663   1.770   5.416  0.2224 -0.1177  1.1934
17567TIP3   OH274115   5.068   0.478   4.507 -0.5219 -0.0710 -0.0427
17567TIP3    H174116   5.156   0.513   4.522 -0.4907 -0.5711  1.0053
17567TIP3    H274117   5.024   0.547   4.457  0.8016 -0.2893 -1.6408
17568TIP3   OH274118   4.900   1.105   0.080 -0.1625  0.1577 -0.0900
17568TIP3    H174119   4.959   1.144   0.015  0.1685  0.6667  0.4880
17568TIP3    H274120   4.813   1.116   0.044 -0.1681  2.2186  0.3749
17569TIP3   OH274121   5.784   0.425   2.050  0.1593  0.2170 -0.8892
17569TIP3    H174122   5.729   0.466   1.983  1.1336  0.9061 -1.2760
17569TIP3    H274123   5.864   0.401   2.004  0.2480 -0.6748 -0.2970
17570TIP3   OH274124   3.124   4.538   1.485  0.4687 -0.2392  0.3518
17570TIP3    H174125   3.128   4.569   1.395 -1.5280  0.0813  0.3427
17570TIP3    H274126   3.066   4.598   1.530 -0.1387 -1.5285  1.3722
17571TIP3   OH274127   4.747   0.589  13.773 -0.3140  0.4456 -0.0533
17571TIP3    H174128   4.749   0.583  13.868 -0.1686  0.0501 -0.0800
17571TIP3    H274129   4.838   0.573  13.746 -0.0340  2.0400 -0.1788
17572TIP3   OH274130   2.214   5.618  11.283  0.1290 -0.2118 -0.0414
17572TIP3    H174131   2.231   5.597  11.191  0.1434 -0.4527  0.0161
17572TIP3    H274132   2.151   5.552  11.312 -0.2800  0.1775 -0.0202
17573TIP3   OH274133   4.471   4.756   3.148 -0.0371  0.1371  0.3350
17573TIP3    H174134   4.522   4.833   3.121 -0.9985  0.7109  0.0942
17573TIP3    H274135   4.432   4.782   3.232 -1.0093  0.2395 -0.1282
17574TIP3   OH274136   6.458   0.687   0.150  0.2206  0.5906  0.0484
17574TIP3    H174137   6.543   0.683   0.195 -0.2545  1.7518  1.1087
17574TIP3    H274138   6.480   0.696   0.057  1.2322 -0.1850  0.1939
17575TIP3   OH274139   5.185   2.297  11.617  0.2882  0.3302 -0.1977
17575TIP3    H174140   5.192   2.369  11.680  1.0600 -0.4280  0.6163
17575TIP3    H274141   5.202   2.218  11.669  2.5519 -0.2141 -1.6101
17576TIP3   OH274142   1.116   3.636   1.818 -0.0114  0.0254  0.0553
17576TIP3    H174143   1.038   3.682   1.849 -0.7047 -2.1064  1.6418
17576TIP3    H274144   1.087   3.586   1.742 -0.2827 -0.9330  0.7711
17577TIP3   OH274145   2.964   5.933   3.855  0.1623  0.1319  0.1196
17577TIP3    H174146   2.921   6.014   3.883 -2.0965 -0.8934 -0.0929
17577TIP3    H274147   2.981   5.886   3.937  0.2262  0.2538  0.1760
17578TIP3   OH274148   2.860   5.924  11.781  0.0817  0.4309 -0.6905
17578TIP3    H174149   2.813   6.002  11.812 -0.4017 -0.2778  0.4185
17578TIP3    H274150   2.818   5.902  11.698 -0.9282  0.3701 -0.1784
17579TIP3   OH274151   1.525   0.954  13.952 -0.2896 -0.2165  0.1141
17579TIP3    H174152   1.584   0.949  13.877 -3.6053  1.4037 -2.8513
17579TIP3    H274153   1.524   1.047  13.976  0.7839 -0.7115  2.3758
17580TIP3   OH274154   0.973   6.618  11.557 -0.3334  0.0693 -0.1116
17580TIP3    H174155   0.957   6.708  11.585  0.3322  0.8485 -2.0671
17580TIP3    H274156   0.964   6.620  11.462  1.1259 -1.6044 -0.3471
17581TIP3   OH274157   3.521   0.353   0.186  0.0501  0.1287  0.2917
17581TIP3    H174158   3.526   0.292   0.260  0.9746  0.1634  0.2709
17581TIP3    H274159   3.594   0.413   0.200 -0.7292  1.1250  0.2067
17582TIP3   OH274160   6.109   0.846  14.272  0.6243  0.3209 -0.0357
17582TIP3    H174161   6.194   0.819  14.308  0.8695 -0.1640 -0.9418
17582TIP3    H274162   6.110   0.813  14.182 -1.6725 -2.2280  0.7379
17583TIP3   OH274163   0.957   3.793  13.899  0.0730 -0.1153  0.1111
17583TIP3    H174164   0.870   3.832  13.909  0.9392  1.5797  1.6439
17583TIP3    H274165   1.017   3.868  13.892  1.4549 -1.2352 -0.5981
17584TIP3   OH274166   4.236   2.662   5.419  0.5029  0.0429  0.6309
17584TIP3    H174167   4.218   2.664   5.325 -0.2410  0.9907  0.7782
17584TIP3    H274168   4.325   2.629   5.425 -0.0158 -1.6469 -0.3121
17585TIP3   OH274169   2.140   4.963   3.660  0.1948  0.4712  0.4100
17585TIP3    H174170   2.112   5.034   3.603  0.4026 -0.3039 -0.7026
17585TIP3    H274171   2.216   4.925   3.615  1.7372  1.1730  2.2905
17586TIP3   OH274172   5.727   0.397   6.015 -0.1133 -0.0364  0.9330
17586TIP3    H174173   5.713   0.489   6.038 -0.5431 -0.2935  1.7505
17586TIP3    H274174   5.703   0.349   6.094 -0.3873 -0.8810  0.3540
17587TIP3   OH274175   2.642   3.375  15.385  0.4534 -0.7057  0.0295
17587TIP3    H174176   2.709   3.356  15.451 -0.9888  0.8716  2.0787
17587TIP3    H274177   2.560   3.372  15.433 -0.7627 -0.2998 -1.9114
17588TIP3   OH274178   1.575   1.639  12.393 -0.1873 -0.3067  0.5369
17588TIP3    H174179   1.663   1.610  12.416 -0.8257 -1.0146  2.1727
17588TIP3    H274180   1.519   1.607  12.463 -2.0501 -1.3368 -1.3008
17589TIP3   OH274181   5.091   3.722  17.328 -0.1230 -0.6728 -0.1269
17589TIP3    H174182   5.031   3.789  17.363 -0.0099 -0.9447  0.5987
17589TIP3    H274183   5.080   3.647  17.386  0.1347 -1.1126 -0.6330
17590TIP3   OH274184   6.273   4.178  15.138 -0.2502  0.1543  0.1784
17590TIP3    H174185   6.325   4.104  15.169 -1.8754 -0.3657  1.8786
17590TIP3    H274186   6.214   4.140  15.072  1.3136  0.7043 -1.6081
17591TIP3   OH274187   3.978   4.850  11.715 -0.3035  0.0476 -0.5947
17591TIP3    H174188   3.999   4.795  11.791  0.6981  0.8188 -0.2855
17591TIP3    H274189   3.938   4.790  11.653  1.2105 -1.1735 -0.4746
17592TIP3   OH274190   1.463   1.114   5.523 -0.2021 -0.1352 -0.3097
17592TIP3    H174191   1.439   1.097   5.614  1.2830  0.9580  0.3393
17592TIP3    H274192   1.552   1.148   5.528 -0.8089  1.9069 -1.9799
17593TIP3   OH274193   2.799   5.207   4.483  0.2975  0.4073 -0.0027
17593TIP3    H174194   2.854   5.256   4.422 -0.9035  0.6728 -0.9211
17593TIP3    H274195   2.859   5.149   4.530  1.2291  0.0316 -1.6016
17594TIP3   OH274196   4.740   4.077  10.942  0.1544  0.2115 -0.1858
17594TIP3    H174197   4.740   4.012  10.872  0.2070 -0.4086  0.3782
17594TIP3    H274198   4.826   4.066  10.984  0.6691  1.4840 -0.8378
17595TIP3   OH274199   1.629   5.649   5.648  0.7227 -0.1736 -0.1440
17595TIP3    H174200   1.655   5.662   5.739 -0.2612  0.2893  0.0863
17595TIP3    H274201   1.688   5.581   5.615 -0.3912 -2.0496  1.5170
17596TIP3   OH274202   4.439   3.677   5.112  0.0775 -0.5519  0.2907
17596TIP3    H174203   4.365   3.620   5.091 -0.0005 -1.3458  2.4205
17596TIP3    H274204   4.514   3.634   5.071 -0.2673 -1.1540  0.2695
17597TIP3   OH274205   6.531   1.308  16.208  0.5728 -0.7394 -0.6335
17597TIP3    H174206   6.482   1.391  16.213 -0.1564 -1.2016  0.3096
17597TIP3    H274207   6.594   1.322  16.138  2.0463  1.4652  0.9911
17598TIP3   OH274208   4.051   2.962  16.437 -0.0350 -0.2934  0.2545
17598TIP3    H174209   3.972   2.934  16.484 -1.3428  2.4819 -0.0904
17598TIP3    H274210   4.120   2.961  16.504 -0.7699 -0.9275  1.0382
17599TIP3   OH274211   6.059   0.053  12.334 -0.0351 -0.2464  0.5213
17599TIP3    H174212   6.115   0.101  12.396 -2.3777  3.0725  0.3499
17599TIP3    H274213   6.076   0.094  12.250 -1.6608 -0.1296  0.2255
17600TIP3   OH274214   4.838   1.526   6.655 -0.0071 -0.1132 -0.2741
17600TIP3    H174215   4.790   1.553   6.733  1.9258  2.8044  0.0788
17600TIP3    H274216   4.791   1.568   6.583 -0.0893 -0.2990 -0.3273
17601TIP3   OH274217   5.381   6.649   6.819  0.3213  0.3927  0.5881
17601TIP3    H174218   5.301   6.678   6.776  0.0008 -0.8309  0.3129
17601TIP3    H274219   5.426   6.597   6.752  1.4217  1.1779  0.6903
17602TIP3   OH274220   2.417   3.125  16.171 -0.0241 -0.2634  0.4301
17602TIP3    H174221   2.463   3.209  16.165  2.0569 -1.3318  0.6395
17602TIP3    H274222   2.344   3.133  16.109  1.2242  1.0275 -0.9344
17603TIP3   OH274223   4.309   0.733   0.182  0.0814  0.0561 -0.1054
17603TIP3    H174224   4.229   0.785   0.190  0.5137  0.5393  1.3344
17603TIP3    H274225   4.376   0.796   0.156  0.4805  0.1249  1.0518
17604TIP3   OH274226   2.902   4.491   5.927 -1.0283  0.1528  0.1552
17604TIP3    H174227   2.875   4.497   6.019  1.0961  1.4272  0.7602
17604TIP3    H274228   2.913   4.581   5.899 -0.0468 -0.2541 -0.8427
17605TIP3   OH274229   4.200   6.319  14.069  0.2456  0.3841  0.4136
17605TIP3    H174230   4.137   6.319  13.997 -0.9032 -1.5932  1.3448
17605TIP3    H274231   4.272   6.374  14.038 -1.3121  1.6136 -1.2266
17606TIP3   OH274232   2.829   1.039  11.694 -0.5370 -0.1663 -0.0320
17606TIP3    H174233   2.882   0.998  11.625 -0.4203  0.1099 -0.1090
17606TIP3    H274234   2.882   1.114  11.723 -1.7237  1.2940 -1.4571
17607TIP3   OH274235   0.122   4.348  12.971 -0.3915  0.1213 -0.7114
17607TIP3    H174236   0.215   4.330  12.985  0.0827  1.4447 -1.7846
17607TIP3    H274237   0.079   4.324  13.053  1.0789  0.5914  0.2373
17608TIP3   OH274238   1.854   2.297   3.392 -0.1675 -0.0079 -0.1942
17608TIP3    H174239   1.937   2.337   3.419  0.7828 -1.8033 -0.2971
17608TIP3    H274240   1.867   2.204   3.406 -1.4237 -0.5447 -2.1882
17609TIP3   OH274241   0.255   5.016  11.250 -0.4126  0.1453  0.4096
17609TIP3    H174242   0.234   5.069  11.173 -1.8020  0.1149  0.7522
17609TIP3    H274243   0.171   4.990  11.286  0.2284 -0.8482  1.2656
17610TIP3   OH274244   3.676   2.172   2.370  0.4991  0.7280  0.5927
17610TIP3    H174245   3.647   2.239   2.308  2.0796 -0.1255 -1.1332
17610TIP3    H274246   3.652   2.208   2.456  0.3704  3.0368 -0.3314
17611TIP3   OH274247   5.501   1.494   1.799 -0.5587  0.5705  0.5236
17611TIP3    H174248   5.497   1.518   1.892 -0.4443  1.1876  0.3782
17611TIP3    H274249   5.521   1.577   1.754  1.0418 -0.0177  0.0938
17612TIP3   OH274250   0.356   5.090  15.302  0.1701 -0.1313 -0.4434
17612TIP3    H174251   0.330   5.006  15.340  2.1924 -0.0769  1.2400
17612TIP3    H274252   0.388   5.068  15.215 -1.6157 -0.7142 -0.9936
17613TIP3   OH274253   6.197   6.328   5.199  0.1506  0.5155  0.6739
17613TIP3    H174254   6.237   6.276   5.269  2.3336  0.5650 -0.4558
17613TIP3    H274255   6.130   6.380   5.244  0.8931 -0.0577  2.5795
17614TIP3   OH274256   3.413   6.320   5.653 -0.4938  0.0981  0.2480
17614TIP3    H174257   3.427   6.227   5.672  1.4925  0.7705  2.4905
17614TIP3    H274258   3.477   6.340   5.585  0.6182  0.2567  1.3045
17615TIP3   OH274259   2.716   2.113  16.292 -0.1460 -0.1468  0.6026
17615TIP3    H174260   2.647   2.165  16.333  1.3458  1.5735  1.0544
17615TIP3    H274261   2.792   2.125  16.348  1.3488  0.4469 -1.4283
17616TIP3   OH274262   4.797   4.537  14.113  0.2651 -0.2822 -0.5591
17616TIP3    H174263   4.866   4.589  14.071 -1.7313  0.7495 -2.8110
17616TIP3    H274264   4.738   4.514  14.041 -1.3224 -1.8402  1.1349
17617TIP3   OH274265   2.294   3.115  12.599  0.0618  0.4333  0.5431
17617TIP3    H174266   2.304   3.210  12.585 -0.8296  0.4689  0.0582
17617TIP3    H274267   2.207   3.095  12.565  0.2995 -0.5962  0.5090
17618TIP3   OH274268   6.453   5.749   3.374 -0.6132  0.0680 -0.4536
17618TIP3    H174269   6.369   5.729   3.414 -0.5409  0.7879  0.0897
17618TIP3    H274270   6.509   5.774   3.448  0.4976 -1.6986 -0.6208
17619TIP3   OH274271   4.620   1.886   1.076 -0.1690  0.2115  0.1043
17619TIP3    H174272   4.597   1.955   1.138  0.3723 -0.1621  0.7243
17619TIP3    H274273   4.609   1.804   1.124  0.5107 -0.0712 -0.2008
17620TIP3   OH274274   5.973   0.041   3.118  0.0077 -0.2970  0.2435
17620TIP3    H174275   5.888   0.006   3.093 -0.1937 -0.6263  1.3514
17620TIP3    H274276   5.960   0.079   3.204  0.5857  1.2147 -0.3064
17621TIP3   OH274277   6.064   3.866  12.925  0.4195 -0.1041  0.1846
17621TIP3    H174278   6.103   3.834  12.844  1.2022 -0.0576  0.5368
17621TIP3    H274279   5.970   3.861  12.909  0.5576  0.8423 -1.0922
17622TIP3   OH274280   0.094   1.974   1.592  0.1325  0.4431  0.2918
17622TIP3    H174281   0.061   1.904   1.648 -1.2899  0.7125 -0.1577
17622TIP3    H274282   0.099   1.934   1.505  1.1365  0.3837  0.3592
17623TIP3   OH274283   4.105   2.415  11.659 -0.4092 -0.0427 -0.1821
17623TIP3    H174284   4.122   2.324  11.682 -0.0171  0.2942  0.9449
17623TIP3    H274285   4.147   2.427  11.573  0.4557 -0.6422  0.1457
17624TIP3   OH274286   3.924   3.828  10.799 -0.4052 -0.1783 -0.9351
17624TIP3    H174287   3.834   3.859  10.794  0.1587  1.5339 -1.1388
17624TIP3    H274288   3.943   3.794  10.711  0.0504  2.2263 -1.8345
17625TIP3   OH274289   2.804   1.158   5.563 -0.2625 -0.1864 -0.0446
17625TIP3    H174290   2.888   1.116   5.577 -0.3195 -0.6035 -0.8595
17625TIP3    H274291   2.810   1.195   5.475 -0.5868  0.6346  0.2621
17626TIP3   OH274292   4.700   1.321   4.128 -0.0369  0.1941 -0.5733
17626TIP3    H174293   4.732   1.234   4.153 -1.2665 -0.2541 -0.4872
17626TIP3    H274294   4.614   1.305   4.089 -0.5090  1.4186 -0.0958
17627TIP3   OH274295   2.236   2.852   5.900  0.2490 -0.3563  0.2333
17627TIP3    H174296   2.293   2.915   5.945  0.4784 -1.1243  1.0461
17627TIP3    H274297   2.285   2.770   5.902 -0.9164 -1.0591  1.0274
17628TIP3   OH274298   4.351   5.804   1.840  0.0541 -0.6595  0.3815
17628TIP3    H174299   4.358   5.796   1.744  0.7466 -0.0501  0.3791
17628TIP3    H274300   4.439   5.789   1.872  0.4258  1.8563  0.7154
17629TIP3   OH274301   2.214   2.674  17.191  0.4449 -0.0257 -0.4646
17629TIP3    H174302   2.266   2.653  17.269  0.6580 -0.9054 -0.8344
17629TIP3    H274303   2.125   2.650  17.215  0.4538  0.0378 -0.3674
17630TIP3   OH274304   5.186   4.236  16.182  0.2571  0.1726  0.1441
17630TIP3    H174305   5.172   4.169  16.249 -1.9017 -0.3165 -0.7175
17630TIP3    H274306   5.177   4.319  16.229  0.0126 -0.1617  0.6922
17631TIP3   OH274307   5.812   6.417  12.427 -0.2940 -0.3091  0.3340
17631TIP3    H174308   5.792   6.324  12.423 -0.2481 -0.2780 -1.0819
17631TIP3    H274309   5.726   6.460  12.433 -0.5181 -0.3456 -1.8885
17632TIP3   OH274310   3.502   4.762   2.091 -0.1345 -0.1233 -0.3313
17632TIP3    H174311   3.544   4.699   2.033  0.2075  1.4598 -1.8825
17632TIP3    H274312   3.438   4.710   2.141 -0.2640 -1.5843 -1.9408
17633TIP3   OH274313   5.877   0.982   3.767 -0.1911 -0.7575  0.2374
17633TIP3    H174314   5.819   1.032   3.824  0.5979  1.3948 -0.7370
17633TIP3    H274315   5.928   0.927   3.827  1.2879  2.0969  1.8276
17634TIP3   OH274316   4.260   1.916   5.153 -0.3931 -0.3655 -0.0498
17634TIP3    H174317   4.233   1.993   5.204  1.0965  1.0630 -1.3024
17634TIP3    H274318   4.197   1.848   5.177 -2.3609  1.5060  0.4196
17635TIP3   OH274319   0.625   0.058   4.558 -0.1267 -0.0073  0.3910
17635TIP3    H174320   0.546   0.067   4.504 -0.4211 -1.8650  0.4553
17635TIP3    H274321   0.592   0.024   4.641  0.4843  1.5650  1.3109
17636TIP3   OH274322   1.953   0.310   4.161 -0.0981 -0.1286  1.1325
17636TIP3    H174323   1.882   0.344   4.216 -0.2024 -1.7449  2.0673
17636TIP3    H274324   2.025   0.295   4.222 -0.3360 -2.3116  0.9524
17637TIP3   OH274325   0.045   2.572  12.175  0.3176  0.2244  0.2270
17637TIP3    H174326   0.029   2.484  12.207  1.8165 -0.3742 -0.5658
17637TIP3    H274327   0.140   2.582  12.180  0.5167  0.5833 -2.7020
17638TIP3   OH274328   2.516   5.116   3.283 -0.4848 -0.0922 -0.3661
17638TIP3    H174329   2.564   5.158   3.354 -1.3679  0.1368  0.1070
17638TIP3    H274330   2.522   5.022   3.303 -1.4322  0.0073  0.4999
17639TIP3   OH274331   6.655   2.165   5.411  0.1797  0.1679  0.0074
17639TIP3    H174332   6.738   2.206   5.437  0.4301 -0.0206 -0.4739
17639TIP3    H274333   6.611   2.232   5.358 -0.0945  0.3625  0.4779
17640TIP3   OH274334   1.049   4.555   3.170  0.2191  0.1452  0.3305
17640TIP3    H174335   0.971   4.502   3.152  2.3383 -3.1676 -0.1088
17640TIP3    H274336   1.078   4.585   3.083 -0.8743  1.9958  0.5616
17641TIP3   OH274337   2.590   3.462   4.511  0.4333  0.6120 -0.7779
17641TIP3    H174338   2.604   3.451   4.605  0.1022  1.8791 -0.5715
17641TIP3    H274339   2.501   3.495   4.503  0.7277  1.2579 -1.4885
17642TIP3   OH274340   4.130   0.858   2.055 -0.4935  0.2220 -0.1862
17642TIP3    H174341   4.155   0.913   2.128 -1.9247 -0.0625  0.5635
17642TIP3    H274342   4.052   0.900   2.019 -1.1365 -0.8528 -0.1071
17643TIP3   OH274343   5.143   6.283   2.943  0.6417 -0.2511  0.4417
17643TIP3    H174344   5.067   6.238   2.979 -2.0778  2.8852 -0.8985
17643TIP3    H274345   5.186   6.322   3.019  0.0900 -0.8501  1.0734
17644TIP3   OH274346   4.716   1.850  14.157 -0.3412 -0.1468  0.8151
17644TIP3    H174347   4.793   1.883  14.110  0.1584 -0.1212  1.6256
17644TIP3    H274348   4.698   1.917  14.222 -0.7827 -0.3629  0.9150
17645TIP3   OH274349   3.730   2.251  16.853  0.3725 -0.2492 -0.0769
17645TIP3    H174350   3.789   2.275  16.782 -1.2210  1.0207 -1.0579
17645TIP3    H274351   3.703   2.162  16.833  2.2277 -1.0204  0.6360
17646TIP3   OH274352   0.608   1.176  15.394 -0.4261 -0.3573 -0.3809
17646TIP3    H174353   0.667   1.138  15.459 -0.1599 -0.0951 -0.4670
17646TIP3    H274354   0.550   1.234  15.444 -0.9874 -1.0497 -0.2154
17647TIP3   OH274355   5.182   5.076  16.760 -0.7809 -0.3058 -0.1829
17647TIP3    H174356   5.232   5.104  16.837 -1.0123 -0.9119  0.1960
17647TIP3    H274357   5.095   5.113  16.774 -1.1561 -1.3856  0.4390
17648TIP3   OH274358   5.121   0.397  15.002 -0.2231  0.0391  0.3043
17648TIP3    H174359   5.067   0.348  15.064  0.4496 -0.2628  0.6551
17648TIP3    H274360   5.161   0.466  15.055 -1.1841  1.0051 -0.1892
17649TIP3   OH274361   6.620   5.547  16.860 -0.1069 -0.4561 -0.2349
17649TIP3    H174362   6.550   5.587  16.809  0.4003  0.4482 -0.2383
17649TIP3    H274363   6.684   5.519  16.795 -0.6814 -1.7819 -0.2775
17650TIP3   OH274364   4.382   6.507  12.238  0.0392  0.1467 -0.0796
17650TIP3    H174365   4.302   6.552  12.267  0.3778  1.8314 -1.5416
17650TIP3    H274366   4.450   6.574  12.245  1.0724 -0.8846 -0.0848
17651TIP3   OH274367   6.536   1.743  11.662 -0.3719 -0.3058 -0.4044
17651TIP3    H174368   6.614   1.798  11.659 -0.0322 -0.8353 -1.7379
17651TIP3    H274369   6.483   1.780  11.733  1.9121 -1.0632  1.8622
17652TIP3   OH274370   6.439   6.543   0.836 -0.8856  0.0885 -0.3009
17652TIP3    H174371   6.502   6.496   0.780  0.1548  1.9914 -0.8060
17652TIP3    H274372   6.410   6.617   0.782 -0.8640  1.2271  1.2016
17653TIP3   OH274373   2.718   3.190   5.836 -0.7571 -0.4989 -0.6241
17653TIP3    H174374   2.700   3.265   5.779 -1.4402 -0.5446 -0.4754
17653TIP3    H274375   2.663   3.205   5.913  1.6267  0.6102  0.9667
17654TIP3   OH274376   6.354   6.245  11.214  0.3361  0.2658  0.0819
17654TIP3    H174377   6.300   6.239  11.135  0.8236  0.2856 -0.2549
17654TIP3    H274378   6.376   6.154  11.235 -0.6000  0.1830  0.7630
17655TIP3   OH274379   1.108   3.105   6.170  0.1262  0.0355 -0.4904
17655TIP3    H174380   1.061   3.184   6.197  0.3629 -0.3691  1.2125
17655TIP3    H274381   1.194   3.112   6.212  0.6902 -0.4168 -1.5452
17656TIP3   OH274382   0.831   1.756  15.307 -0.0671  0.2375  0.2976
17656TIP3    H174383   0.868   1.774  15.393 -0.1812  1.5078  0.1014
17656TIP3    H274384   0.790   1.670  15.316 -0.4056  0.5128  1.6267
17657TIP3   OH274385   6.077   0.614   3.626 -0.2685  0.3224  0.3566
17657TIP3    H174386   6.120   0.532   3.602 -0.1526  0.2437  0.8098
17657TIP3    H274387   6.137   0.656   3.688 -0.5091  0.5593  0.4353
17658TIP3   OH274388   3.388   0.561   3.433  0.7298 -0.4523 -0.5172
17658TIP3    H174389   3.301   0.569   3.473  0.2495  1.3607 -1.7443
17658TIP3    H274390   3.379   0.489   3.370  0.8152 -1.7641  0.9247
17659TIP3   OH274391   1.933   1.819   2.379  0.2997  0.1390  0.7992
17659TIP3    H174392   1.959   1.884   2.444  0.7922  0.4863  0.2645
17659TIP3    H274393   1.843   1.843   2.355  0.3994  0.4800  0.7709
17660TIP3   OH274394   4.469   2.886   2.559 -0.5413  0.3010  0.1231
17660TIP3    H174395   4.447   2.820   2.625 -0.4701  0.7023  0.5534
17660TIP3    H274396   4.392   2.888   2.502 -0.8041  0.2855  0.4691
17661TIP3   OH274397   1.244   4.556  16.986 -0.4012 -0.3638  0.1500
17661TIP3    H174398   1.253   4.573  17.080 -0.3044 -1.0654  0.2750
17661TIP3    H274399   1.177   4.618  16.957 -1.8778 -1.4386  1.0778
17662TIP3   OH274400   2.958   4.352  15.515  0.5932  0.3673 -0.2539
17662TIP3    H174401   3.035   4.376  15.463  0.4818  0.6646 -0.2831
17662TIP3    H274402   2.940   4.430  15.567 -1.1184  1.1784 -1.9501
17663TIP3   OH274403   6.188   2.688  11.519 -0.2184 -0.2503 -0.0728
17663TIP3    H174404   6.184   2.782  11.503  0.6747 -0.0034  1.0350
17663TIP3    H274405   6.168   2.678  11.612 -1.5624 -1.2876 -0.4442
17664TIP3   OH274406   6.541   2.593  16.085 -0.4792 -0.2276 -0.0612
17664TIP3    H174407   6.546   2.668  16.025  0.2732  0.2840  0.6167
17664TIP3    H274408   6.548   2.516  16.029 -1.4979  0.1920 -0.7981
17665TIP3   OH274409   6.404   1.467  13.679 -0.2540 -0.4600  0.3164
17665TIP3    H174410   6.351   1.495  13.605 -0.5604  0.2658  0.8102
17665TIP3    H274411   6.342   1.424  13.738 -0.0694 -0.7273  0.3201
17666TIP3   OH274412   2.670   4.587   2.554  0.0888  0.1437  0.4244
17666TIP3    H174413   2.619   4.621   2.628 -1.1193 -0.4607 -0.0985
17666TIP3    H274414   2.637   4.499   2.541  0.3505  0.2082 -0.7843
17667TIP3   OH274415   1.035   5.049   0.464  0.1381 -0.2304 -0.5834
17667TIP3    H174416   0.966   5.109   0.494  0.2486 -1.2775  2.0757
17667TIP3    H274417   0.993   4.996   0.396 -1.4281 -0.2008  0.3022
17668TIP3   OH274418   1.806   4.165  14.779 -0.4615  0.0080  0.1903
17668TIP3    H174419   1.766   4.174  14.693 -0.0894 -0.2525 -0.0137
17668TIP3    H274420   1.883   4.110  14.764  0.5594  1.3402  0.3933
17669TIP3   OH274421   2.328   0.165  13.069 -0.6365  0.1203  0.7364
17669TIP3    H174422   2.417   0.160  13.034 -1.0048 -0.3489 -0.1537
17669TIP3    H274423   2.317   0.257  13.093  0.3685  0.0305  1.6162
17670TIP3   OH274424   3.936   4.810   2.221  0.2818 -0.3305 -0.1716
17670TIP3    H174425   3.915   4.756   2.298 -1.9539  1.5626  0.6811
17670TIP3    H274426   3.889   4.892   2.236 -0.3883  0.0782 -3.6715
17671TIP3   OH274427   4.188   3.275   6.086 -0.3025  0.2655  0.2011
17671TIP3    H174428   4.254   3.329   6.043  0.3789 -1.1047 -0.5455
17671TIP3    H274429   4.207   3.284   6.179  0.0503  0.9789  0.0661
17672TIP3   OH274430   5.771   2.577   0.726 -0.4428 -0.2707 -0.3882
17672TIP3    H174431   5.830   2.602   0.797  0.4660  1.4153 -1.6701
17672TIP3    H274432   5.683   2.590   0.763 -0.0292 -1.0903  0.9561
17673TIP3   OH274433   1.958   0.099  14.051  0.0192  0.1310  0.6008
17673TIP3    H174434   2.041   0.091  14.097  1.4144  0.0702 -1.7630
17673TIP3    H274435   1.892   0.083  14.118  1.8853  0.1712  2.5660
17674TIP3   OH274436   6.079   6.742   2.272  0.4377 -0.3346  0.0173
17674TIP3    H174437   6.102   6.815   2.214  0.3336  0.6140  1.1284
17674TIP3    H274438   5.983   6.737   2.268  0.4445 -0.4140 -0.0543
17675TIP3   OH274439   0.239   2.930  14.857 -0.2804  0.2428 -0.6955
17675TIP3    H174440   0.275   3.015  14.835 -3.1126  1.7738  0.0375
17675TIP3    H274441   0.202   2.897  14.775 -0.9058  0.6457 -0.5766
17676TIP3   OH274442   6.568   4.333   4.586 -0.4105 -0.0752  0.0885
17676TIP3    H174443   6.618   4.347   4.505 -1.1116 -0.9397 -0.5088
17676TIP3    H274444   6.591   4.408   4.641  2.7199 -1.1257  0.4408
17677TIP3   OH274445   4.230   4.688  16.913  0.0282  0.3159 -0.3576
17677TIP3    H174446   4.165   4.711  16.847  1.0755 -1.3615 -2.0886
17677TIP3    H274447   4.314   4.701  16.869  0.7844 -0.2906  0.8625
17678TIP3   OH274448   1.514   2.606  11.715 -0.2682  0.0358 -0.4295
17678TIP3    H174449   1.542   2.651  11.635  1.0429  0.3352  0.1659
17678TIP3    H274450   1.422   2.586  11.700 -0.3512  1.1124 -1.5439
17679TIP3   OH274451   0.658   1.027   1.522  0.0478 -0.7899  0.3091
17679TIP3    H174452   0.638   0.969   1.596 -0.3609 -1.2291 -0.1366
17679TIP3    H274453   0.685   0.968   1.452 -2.4086 -0.6445 -0.8365
17680TIP3   OH274454   2.983   4.395   0.259 -0.2546  0.2452  0.3692
17680TIP3    H174455   3.036   4.465   0.221 -0.4538 -0.1047 -0.6013
17680TIP3    H274456   2.905   4.392   0.204  0.3356 -1.5974 -0.4648
17681TIP3   OH274457   0.074   0.617   2.815  0.3293  0.3617 -0.0224
17681TIP3    H174458   0.107   0.688   2.869  1.0102 -0.0027  0.0456
17681TIP3    H274459   0.132   0.615   2.739  0.7572 -0.5771  0.3171
17682TIP3   OH274460   5.773   2.612  13.106  0.1566 -0.3411  0.1913
17682TIP3    H174461   5.850   2.558  13.086 -0.4580 -0.5946 -1.5953
17682TIP3    H274462   5.792   2.697  13.065 -0.0112 -0.0078  0.7852
17683TIP3   OH274463   3.738   2.669  15.535 -0.0918 -0.5922 -0.0254
17683TIP3    H174464   3.678   2.613  15.485 -0.5114  2.0529 -2.8130
17683TIP3    H274465   3.823   2.654  15.495 -0.1786  0.5323 -0.6904
17684TIP3   OH274466   2.987   2.326  15.959  0.2550 -0.4637  0.4033
17684TIP3    H174467   2.965   2.350  15.869  0.9121  0.7617  0.5459
17684TIP3    H274468   2.910   2.278  15.990  0.6133 -2.2760 -1.2784
17685TIP3   OH274469   4.446   6.382  13.368 -0.1525 -1.2219 -0.6050
17685TIP3    H174470   4.488   6.364  13.284 -1.2637 -2.0220 -1.0096
17685TIP3    H274471   4.467   6.305  13.422  1.5120 -0.2080  0.2632
17686TIP3   OH274472   6.421   0.106   2.015  0.7263 -0.2931 -0.0976
17686TIP3    H174473   6.460   0.077   1.933 -1.5541 -0.4880 -1.1806
17686TIP3    H274474   6.496   0.119   2.074  2.2527 -2.6743 -1.3652
17687TIP3   OH274475   3.721   4.580  16.415  0.0443  0.3822  0.3773
17687TIP3    H174476   3.642   4.575  16.360  0.6131  1.2226 -0.5571
17687TIP3    H274477   3.747   4.489  16.427 -0.3900  0.1501 -0.3312
17688TIP3   OH274478   4.675   2.631  15.683 -0.3820 -0.4772  0.1506
17688TIP3    H174479   4.616   2.647  15.609 -0.8041  0.8320  0.7341
17688TIP3    H274480   4.740   2.700  15.677 -2.3023  1.7986  2.8098
17689TIP3   OH274481   6.079   4.839  15.878  0.3734  0.5897  0.1634
17689TIP3    H174482   6.042   4.883  15.955  0.1487  0.7291 -0.0226
17689TIP3    H274483   6.003   4.812  15.827  0.5193  0.3646  0.0623
17690TIP3   OH274484   2.985   6.729  12.143 -0.1101  0.4771 -0.0163
17690TIP3    H174485   3.058   6.691  12.094 -0.4237 -0.2898  0.1058
17690TIP3    H274486   3.024   6.758  12.226 -0.3165 -1.9747  1.0196
17691TIP3   OH274487   4.095   2.402   3.275 -0.1610  0.1242 -0.0629
17691TIP3    H174488   4.133   2.382   3.189  0.6666 -3.2363  0.9368
17691TIP3    H274489   4.164   2.448   3.321  0.1369  0.1682 -0.5425
17692TIP3   OH274490   3.639   1.199   4.895  0.2763  0.1837 -0.3359
17692TIP3    H174491   3.619   1.279   4.945 -1.6078 -0.6535  0.3222
17692TIP3    H274492   3.733   1.184   4.911 -0.2418 -0.1046  3.1116
17693TIP3   OH274493   3.521   6.313  10.784 -0.1303  0.4308 -0.5409
17693TIP3    H174494   3.549   6.399  10.753 -2.7481  1.1095 -1.2764
17693TIP3    H274495   3.456   6.332  10.852  0.4782 -1.0048  0.4921
17694TIP3   OH274496   1.138   5.180  14.882  0.2957 -0.4243  0.4450
17694TIP3    H174497   1.084   5.235  14.826 -1.4293 -0.3471  2.0777
17694TIP3    H274498   1.137   5.094  14.841 -0.2073 -0.1634 -0.0892
17695TIP3   OH274499   4.140   4.799   2.773  0.3344  0.5875 -0.4822
17695TIP3    H174500   4.182   4.762   2.851 -0.2566 -0.8776 -0.8284
17695TIP3    H274501   4.081   4.866   2.808  0.5417  0.3938  0.2725
17696TIP3   OH274502   2.981   5.757  13.686  0.5584  0.1395  0.0495
17696TIP3    H174503   3.015   5.681  13.734 -0.9748 -0.8644 -0.3965
17696TIP3    H274504   3.053   5.785  13.630  1.8584  0.3542  1.7466
17697TIP3   OH274505   1.991   2.611  13.950  0.5958 -0.0016 -0.0204
17697TIP3    H174506   2.034   2.632  14.033  2.0833 -1.2685 -0.4410
17697TIP3    H274507   2.061   2.612  13.885 -0.0864 -1.5171 -0.8268
17698TIP3   OH274508   1.073   4.883   6.512  0.2325 -0.6464 -0.3747
17698TIP3    H174509   1.095   4.930   6.592  0.9335 -0.1401 -0.8521
17698TIP3    H274510   1.066   4.791   6.539 -3.0411 -0.1551  0.9537
17699TIP3   OH274511   5.338   0.725  16.018 -0.0674 -0.2833 -0.1243
17699TIP3    H174512   5.335   0.807  16.067 -0.0898 -0.3785  0.0332
17699TIP3    H274513   5.334   0.752  15.926 -0.1069 -0.1103 -0.0713
17700TIP3   OH274514   1.142   0.284  16.091  0.7436  0.3031  0.5042
17700TIP3    H174515   1.203   0.231  16.039 -0.1539 -1.1655  0.8861
17700TIP3    H274516   1.178   0.373  16.088  1.8178 -0.1465 -0.9095
17701TIP3   OH274517   1.785   5.837   4.775 -0.0747 -0.6942 -0.6029
17701TIP3    H174518   1.880   5.840   4.787 -0.2606  1.4608  0.9959
17701TIP3    H274519   1.749   5.832   4.864 -1.4460  1.5108 -0.9598
17702TIP3   OH274520   2.087   5.372  13.331 -0.0652  0.0123 -0.6064
17702TIP3    H174521   2.170   5.324  13.334 -0.6018 -0.9010  1.9813
17702TIP3    H274522   2.089   5.429  13.408 -1.5937  0.4167 -0.8325
17703TIP3   OH274523   3.621   4.344  12.936  0.0710 -0.0756 -0.0915
17703TIP3    H174524   3.683   4.351  13.008 -0.1278 -0.8770  0.1694
17703TIP3    H274525   3.553   4.286  12.969 -0.1874 -0.1919 -0.8134
17704TIP3   OH274526   4.570   2.080   0.627  0.0786 -0.6765  0.5189
17704TIP3    H174527   4.543   2.169   0.646 -0.2258 -1.1152  2.2613
17704TIP3    H274528   4.531   2.061   0.541  1.3004  1.2893 -0.5444
17705TIP3   OH274529   6.249   2.216  14.539  0.4070 -0.0179 -0.1225
17705TIP3    H174530   6.286   2.160  14.470  1.0550  0.5410 -0.2329
17705TIP3    H274531   6.313   2.286  14.551  0.2530 -0.0430  0.9789
17706TIP3   OH274532   1.768   3.216  15.766 -0.3104 -0.1112 -0.5070
17706TIP3    H174533   1.854   3.194  15.731 -0.5201 -0.7504 -0.6222
17706TIP3    H274534   1.783   3.295  15.818  0.2975 -0.0765 -0.7290
17707TIP3   OH274535   3.507   4.330  10.742  0.0759 -0.1430  0.2438
17707TIP3    H174536   3.466   4.409  10.707 -0.8309 -0.2583  1.0099
17707TIP3    H274537   3.517   4.348  10.836 -0.2388 -0.9697  0.4446
17708TIP3   OH274538   0.490   2.722  11.097 -0.3300  0.1855 -0.3143
17708TIP3    H174539   0.479   2.721  11.192 -0.2744 -0.6316 -0.3081
17708TIP3    H274540   0.445   2.802  11.069 -0.4470  0.3746  0.3835
17709TIP3   OH274541   5.518   1.377   1.459  0.1484 -0.0285  0.3972
17709TIP3    H174542   5.477   1.295   1.431 -0.9561  1.5341 -3.0216
17709TIP3    H274543   5.446   1.428   1.497  0.0562  0.6240 -0.6167
17710TIP3   OH274544   2.157   6.030   3.963 -0.1313 -0.5167 -0.1780
17710TIP3    H174545   2.226   6.049   4.027 -1.4248  0.4323  0.9814
17710TIP3    H274546   2.076   6.058   4.005 -0.9945  0.7314 -2.4394
17711TIP3   OH274547   6.726   0.845   6.990  0.2915 -0.6021  0.3898
17711TIP3    H174548   6.696   0.936   6.986  0.9753 -0.4116 -1.0963
17711TIP3    H274549   6.803   0.848   7.048  0.2462 -0.2507  0.4322
17712TIP3   OH274550   3.075   0.815  13.176  0.0558  0.6518 -0.1007
17712TIP3    H174551   3.009   0.756  13.212  0.2469  1.5206  1.8079
17712TIP3    H274552   3.155   0.793  13.223  0.5682  1.1741 -0.7094
17713TIP3   OH274553   1.539   5.274   0.018  0.1578 -0.4161  0.1785
17713TIP3    H174554   1.532   5.187  -0.023  0.8128  0.4956 -2.0232
17713TIP3    H274555   1.495   5.333  -0.044  0.7331  0.9850  1.0646
17714TIP3   OH274556   1.587   3.372  10.389 -0.0999 -0.2744  0.5099
17714TIP3    H174557   1.607   3.320  10.311  0.3917  0.1609  0.3408
17714TIP3    H274558   1.632   3.326  10.460  0.0251 -0.2827  0.4247
17715TIP3   OH274559   3.328   5.196  17.322 -0.6099  0.8597  0.0218
17715TIP3    H174560   3.285   5.282  17.319  1.9679  2.2687  0.7160
17715TIP3    H274561   3.373   5.194  17.406 -0.1918 -0.9963 -0.1958
17716TIP3   OH274562   1.064   3.116  15.540 -0.3563  0.6617 -0.2274
17716TIP3    H174563   1.153   3.087  15.559 -0.0568  2.4170  1.4057
17716TIP3    H274564   1.072   3.163  15.457 -0.0007 -0.1332 -0.6544
17717TIP3   OH274565   6.454   2.305  14.198 -0.3666 -0.0607  0.4671
17717TIP3    H174566   6.402   2.334  14.123 -0.1485 -3.5982 -1.2572
17717TIP3    H274567   6.539   2.282  14.160  1.1438  1.7765  2.5488
17718TIP3   OH274568   2.607   1.231  12.041  0.0468 -0.5395  0.6606
17718TIP3    H174569   2.690   1.273  12.020  0.1427 -1.2208 -0.4049
17718TIP3    H274570   2.609   1.148  11.993 -0.8918 -0.9503  1.2908
17719TIP3   OH274571   3.546   3.638   0.669  0.2874 -0.3515  0.0732
17719TIP3    H174572   3.491   3.717   0.666 -0.5191 -0.9272 -0.9464
17719TIP3    H274573   3.512   3.582   0.598  2.4775 -0.5513 -0.9044
17720TIP3   OH274574   1.258   6.619   1.027  0.1711 -0.3180  0.5814
17720TIP3    H174575   1.349   6.593   1.017  0.2223  0.2157 -0.5705
17720TIP3    H274576   1.213   6.539   1.057  0.9967 -0.6011  1.0789
17721TIP3   OH274577   5.785   0.078  12.632  0.3145  0.2006 -0.3723
17721TIP3    H174578   5.820   0.167  12.631  0.4095  0.1636 -1.3264
17721TIP3    H274579   5.775   0.057  12.725 -0.5138  1.5129 -0.1431
17722TIP3   OH274580   2.106   6.134  11.438  0.2231  0.0607 -0.0096
17722TIP3    H174581   2.066   6.180  11.364  0.3096 -0.2971 -0.2876
17722TIP3    H274582   2.033   6.100  11.489  0.1580 -0.9876 -0.7689
17723TIP3   OH274583   0.906   3.455   2.160 -0.4317  0.0587 -0.5320
17723TIP3    H174584   0.862   3.469   2.076 -1.0559  2.6684  0.1517
17723TIP3    H274585   0.998   3.478   2.143 -0.8175  1.9851 -0.2314
17724TIP3   OH274586   6.016   2.743  16.745 -0.1345  0.6340 -0.5470
17724TIP3    H174587   6.001   2.671  16.685  0.6294  0.2986 -0.3449
17724TIP3    H274588   6.104   2.775  16.724  0.5342 -0.0787  0.9726
17725TIP3   OH274589   5.307   1.789  14.728  0.3551 -0.3634  0.2633
17725TIP3    H174590   5.327   1.769  14.820  1.4552  0.1602  0.1651
17725TIP3    H274591   5.393   1.795  14.687  0.0318  2.2843 -0.1732
17726TIP3   OH274592   1.392   1.740  16.524  0.1695 -0.3639 -0.2345
17726TIP3    H174593   1.356   1.744  16.613  3.4529 -0.4712  1.2803
17726TIP3    H274594   1.403   1.832  16.499  1.3178 -0.2761  0.4967
17727TIP3   OH274595   4.650   3.501   6.432  0.1671 -0.3167  0.3201
17727TIP3    H174596   4.560   3.471   6.447  0.0982 -0.9280 -1.1376
17727TIP3    H274597   4.704   3.440   6.482 -0.0864 -1.8442 -1.1877
17728TIP3   OH274598   2.726   1.934  15.406  0.1706 -0.0167  0.5717
17728TIP3    H174599   2.659   2.001  15.421  1.0719  1.6003 -1.9683
17728TIP3    H274600   2.803   1.983  15.376  1.8581 -1.9914  1.4430
17729TIP3   OH274601   4.424   6.160   4.389 -0.3320  0.0842 -0.3279
17729TIP3    H174602   4.456   6.185   4.302  0.2441 -1.1278 -0.4907
17729TIP3    H274603   4.406   6.066   4.381  1.1221 -0.3789  1.2586
17730TIP3   OH274604   0.806   5.433  11.181 -0.2357 -0.2003  0.1546
17730TIP3    H174605   0.889   5.475  11.200  0.3263 -1.5446  0.7423
17730TIP3    H274606   0.789   5.455  11.089  0.9765 -0.2784 -0.0982
17731TIP3   OH274607   2.497   4.917  15.056 -0.3421  0.6058  0.8253
17731TIP3    H174608   2.477   4.990  15.115 -0.9189  0.2575  1.0649
17731TIP3    H274609   2.584   4.937  15.022 -1.2826  2.4476 -0.6673
17732TIP3   OH274610   5.715   0.892   5.622 -0.4188  0.1230 -0.8128
17732TIP3    H174611   5.758   0.894   5.708  0.1189  0.2037 -1.0821
17732TIP3    H274612   5.676   0.979   5.613 -1.1400 -0.1349 -0.3225
17733TIP3   OH274613   0.482   5.649   0.332 -0.2278 -0.0582 -0.4058
17733TIP3    H174614   0.457   5.632   0.422 -0.1356  2.8944  0.2723
17733TIP3    H274615   0.453   5.739   0.315  3.0657  0.8675 -2.0322
17734TIP3   OH274616   2.257   2.355   0.826 -0.0424 -0.2180  0.7629
17734TIP3    H174617   2.333   2.307   0.792  0.3559  1.1921 -0.4261
17734TIP3    H274618   2.188   2.289   0.831  0.0267 -0.6717 -2.3324
17735TIP3   OH274619   3.232   5.554  11.305 -0.3251 -0.0093 -0.4392
17735TIP3    H174620   3.188   5.639  11.303  0.0142  0.2273  0.8402
17735TIP3    H274621   3.163   5.490  11.291 -0.6297  0.4583 -1.1378
17736TIP3   OH274622   0.118   1.773  13.401 -0.3392 -0.3844 -0.2879
17736TIP3    H174623   0.071   1.791  13.483 -1.4668  1.4172 -1.2705
17736TIP3    H274624   0.191   1.834  13.402  0.6623 -1.5420  0.1179
17737TIP3   OH274625   0.984   5.053  15.637  0.2024 -0.2906  0.2266
17737TIP3    H174626   0.931   5.050  15.558 -0.6638 -0.1880  0.7864
17737TIP3    H274627   0.986   5.145  15.661  1.8514 -0.0947 -0.5723
17738TIP3   OH274628   3.506   2.840  11.150  0.3733 -0.0473  0.3998
17738TIP3    H174629   3.466   2.868  11.232  1.3602 -2.5523  1.8405
17738TIP3    H274630   3.596   2.817  11.174  1.0337  0.2453 -1.6353
17739TIP3   OH274631   1.999   3.004   0.767 -0.6410 -0.2648  0.3062
17739TIP3    H174632   1.920   3.016   0.819 -1.2509  0.8646 -0.8042
17739TIP3    H274633   2.008   3.087   0.718  1.2392 -0.3553  0.4198
17740TIP3   OH274634   0.860   1.436  16.118 -0.2615 -0.0559 -0.0969
17740TIP3    H174635   0.843   1.359  16.063  0.4889 -0.3835  0.1167
17740TIP3    H274636   0.928   1.484  16.071 -0.0087 -0.0532  0.2703
17741TIP3   OH274637   6.559   2.758  15.406 -0.7563 -0.4151 -0.6535
17741TIP3    H174638   6.516   2.804  15.333 -1.6247 -0.6827 -0.3264
17741TIP3    H274639   6.488   2.712  15.449 -0.4153  0.4731  0.9204
17742TIP3   OH274640   1.200   1.842   5.104  0.2336 -0.4103 -0.4040
17742TIP3    H174641   1.142   1.915   5.083 -0.9685 -0.6979  1.6971
17742TIP3    H274642   1.285   1.882   5.119 -0.5450  0.6807  1.3378
17743TIP3   OH274643   0.170   5.167   2.582  0.8297 -0.0697 -0.0346
17743TIP3    H174644   0.108   5.196   2.649 -0.8678 -1.5998 -0.8407
17743TIP3    H274645   0.139   5.210   2.502  0.3206 -1.4371 -0.5913
17744TIP3   OH274646   5.379   2.156   2.226  0.3341  0.1334 -0.3407
17744TIP3    H174647   5.339   2.231   2.181 -0.9023 -1.3666 -1.8588
17744TIP3    H274648   5.394   2.092   2.157 -1.2150 -2.1057  1.2564
17745TIP3   OH274649   3.401   3.959   0.308 -0.2917  0.2848 -0.3534
17745TIP3    H174650   3.445   3.987   0.389  2.0688 -0.1241 -1.4148
17745TIP3    H274651   3.416   3.865   0.305 -0.3450  0.3047 -1.2746
17746TIP3   OH274652   4.796   1.619  13.739 -0.1944 -0.0243  0.1807
17746TIP3    H174653   4.754   1.633  13.823 -0.2406 -0.9837  0.3284
17746TIP3    H274654   4.736   1.561  13.692 -0.4164  0.9032 -0.7106
17747TIP3   OH274655   5.735   5.205   5.052  0.4831  0.0201 -0.1864
17747TIP3    H174656   5.786   5.270   5.101  0.9069 -0.5396  0.1369
17747TIP3    H274657   5.703   5.145   5.119  0.5989 -0.4411 -0.5411
17748TIP3   OH274658   4.196   1.529   0.126  0.9064  0.1843  0.2692
17748TIP3    H174659   4.143   1.506   0.050  0.1713  0.8042  0.5717
17748TIP3    H274660   4.132   1.553   0.194  1.5612  0.4425  0.8133
17749TIP3   OH274661   0.408   3.925  10.649  0.0752  0.2246  0.2633
17749TIP3    H174662   0.373   3.873  10.577 -0.9210 -0.6322  1.3088
17749TIP3    H274663   0.448   3.860  10.708 -0.3022  0.7327  1.1059
17750TIP3   OH274664   2.443   4.324   6.299  0.6155  0.6229 -0.1306
17750TIP3    H174665   2.498   4.361   6.230 -2.8346  2.9754 -1.9180
17750TIP3    H274666   2.433   4.394   6.363 -1.4327  0.8728 -0.6426
17751TIP3   OH274667   2.225   0.600  12.581  0.2246 -0.6759 -0.2682
17751TIP3    H174668   2.220   0.568  12.491 -1.1438  0.9963 -0.8446
17751TIP3    H274669   2.265   0.687  12.573  0.1571 -0.5340  0.7558
17752TIP3   OH274670   3.099   4.332   0.480  0.0339  0.0709  0.4071
17752TIP3    H174671   3.117   4.426   0.484 -0.9619  0.2853  0.0840
17752TIP3    H274672   3.054   4.320   0.397  0.9805 -0.8509  0.0112
17753TIP3   OH274673   2.609   1.000  16.597 -0.5988 -0.2547  0.5561
17753TIP3    H174674   2.695   0.958  16.600 -0.8341 -0.8687 -0.5790
17753TIP3    H274675   2.627   1.089  16.567 -0.4297 -0.6370 -0.5102
17754TIP3   OH274676   2.535   0.217  13.520 -0.1529  0.1253  0.0784
17754TIP3    H174677   2.517   0.140  13.465 -0.3110 -0.2538  0.6466
17754TIP3    H274678   2.483   0.287  13.480  0.3370  0.0568 -0.7056
17755TIP3   OH274679   3.115   2.618  11.017 -0.1175  0.1311  0.1910
17755TIP3    H174680   3.157   2.637  11.102  1.0251  1.3879 -0.6087
17755TIP3    H274681   3.125   2.699  10.967 -0.6538 -0.6297 -1.1990
17756TIP3   OH274682   2.156   6.681   5.623 -0.0900  0.2032  0.0670
17756TIP3    H174683   2.181   6.768   5.652  0.5582 -0.2486  0.9069
17756TIP3    H274684   2.198   6.670   5.537 -0.2580  0.7398 -0.0871
17757TIP3   OH274685   5.577   1.978  17.296 -0.3408  0.1486 -0.4290
17757TIP3    H174686   5.638   1.982  17.222 -0.3898  0.8570 -0.4309
17757TIP3    H274687   5.544   2.067  17.305  0.6351  0.3940  1.2726
17758TIP3   OH274688   3.178   0.641  11.109 -0.1558  0.5292 -0.5975
17758TIP3    H174689   3.164   0.735  11.098  0.5555  0.5175 -1.7115
17758TIP3    H274690   3.220   0.634  11.195 -0.1116  1.2404 -0.5516
17759TIP3   OH274691   1.048   5.580  15.621 -0.2365 -0.0787 -0.2129
17759TIP3    H174692   1.035   5.523  15.697  0.2238 -0.7878 -0.6529
17759TIP3    H274693   1.039   5.669  15.656 -3.9150 -0.3791 -0.0434
17760TIP3   OH274694   6.485   3.954   3.078 -0.3343  0.6095 -0.3843
17760TIP3    H174695   6.391   3.945   3.060 -0.7700 -0.6007  2.0185
17760TIP3    H274696   6.519   3.865   3.069  0.8830  1.2144 -2.3495
17761TIP3   OH274697   2.214   1.038   1.519  0.0695 -0.4077  0.3431
17761TIP3    H174698   2.176   1.050   1.432  2.2131  0.1986 -0.5589
17761TIP3    H274699   2.158   1.090   1.577 -0.5600  0.3166 -0.8805
17762TIP3   OH274700   6.563   3.983   0.425 -0.1414  0.7003  0.1461
17762TIP3    H174701   6.526   3.894   0.420  0.0097  0.6214  0.4270
17762TIP3    H274702   6.505   4.036   0.371 -0.4310  0.4965  0.2577
17763TIP3   OH274703   3.592   0.375   2.683 -0.5330  0.2796  0.0088
17763TIP3    H174704   3.588   0.343   2.593 -1.3426  1.0461 -0.2423
17763TIP3    H274705   3.556   0.304   2.736 -1.7160  0.5068 -0.4719
17764TIP3   OH274706   1.244   6.356   3.025 -0.1463 -0.4383  0.3858
17764TIP3    H174707   1.310   6.302   3.068 -0.0035  0.0736  0.8218
17764TIP3    H274708   1.267   6.354   2.932 -0.0970 -1.0546  0.4067
17765TIP3   OH274709   2.838   4.389   1.675 -0.2573 -0.0943 -0.5151
17765TIP3    H174710   2.908   4.342   1.629 -0.5696  0.4165 -1.5390
17765TIP3    H274711   2.757   4.351   1.642 -0.4896 -0.7670  0.7605
17766TIP3   OH274712   3.714   5.442  10.952  0.3172 -0.3336  0.2300
17766TIP3    H174713   3.653   5.373  10.980  0.4524 -0.0712  1.2287
17766TIP3    H274714   3.720   5.500  11.028 -0.4284  1.2440 -0.8507
17767TIP3   OH274715   6.082   1.435   1.612  0.2455  0.0260 -0.5166
17767TIP3    H174716   5.990   1.428   1.587 -0.0359 -2.0821  0.9285
17767TIP3    H274717   6.111   1.518   1.572 -2.8877  2.0252  0.9803
17768TIP3   OH274718   6.426   2.990   3.289  0.2791 -0.3141 -0.7235
17768TIP3    H174719   6.439   2.918   3.228  2.7808 -1.6628  1.2329
17768TIP3    H274720   6.463   2.959   3.371  0.4364  2.8041  0.5145
17769TIP3   OH274721   4.637   4.567  16.307 -0.4671  0.6274 -0.1508
17769TIP3    H174722   4.732   4.556  16.303 -0.3641  0.2309  2.0599
17769TIP3    H274723   4.610   4.571  16.216  0.9826 -5.3342 -1.2470
17770TIP3   OH274724   2.102   5.100   5.496 -0.4631  0.4937  0.3785
17770TIP3    H174725   2.026   5.055   5.458  0.9847 -1.3695 -0.4821
17770TIP3    H274726   2.121   5.051   5.576  0.2943  0.4577  0.1822
17771TIP3   OH274727   5.095   3.898  14.344  0.4283 -0.3688  0.0329
17771TIP3    H174728   5.071   3.917  14.434  0.5661 -0.2489  0.0453
17771TIP3    H274729   5.067   3.808  14.330 -1.0513  0.1108 -0.3075
17772TIP3   OH274730   4.180   5.401   1.522 -0.8545 -0.1593 -0.2036
17772TIP3    H174731   4.119   5.330   1.504  0.5736 -1.3290 -0.6427
17772TIP3    H274732   4.143   5.445   1.598 -1.4279 -1.8116  0.5341
17773TIP3   OH274733   1.093   3.548   0.411  0.2100 -0.3291  0.3029
17773TIP3    H174734   1.149   3.576   0.339  1.3070 -1.4959  0.6711
17773TIP3    H274735   1.154   3.516   0.478 -0.8941 -1.8506  0.6326
17774TIP3   OH274736   5.373   6.137   0.814 -0.7250 -0.0065 -0.0991
17774TIP3    H174737   5.342   6.138   0.723 -1.0272  2.3132 -0.0304
17774TIP3    H274738   5.294   6.150   0.866 -0.2662  1.0517  0.3541
17775TIP3   OH274739   1.753   5.060   5.393 -0.0636 -0.4337 -0.3206
17775TIP3    H174740   1.707   5.143   5.409 -1.7949 -1.4451  0.2118
17775TIP3    H274741   1.813   5.080   5.321  0.5576  1.6132  0.6830
17776TIP3   OH274742   1.080   5.869  14.575 -0.2134 -0.2839 -0.1201
17776TIP3    H174743   0.997   5.830  14.548 -1.0709  0.5640  1.1448
17776TIP3    H274744   1.091   5.840  14.666 -0.7182  2.0428  0.7558
17777TIP3   OH274745   0.604   5.276   3.046 -0.2377  0.3177  0.1232
17777TIP3    H174746   0.602   5.195   3.096 -3.2854  1.4791  2.1914
17777TIP3    H274747   0.652   5.338   3.101 -0.6935  0.7260  0.0743
17778TIP3   OH274748   1.403   2.207   6.222  0.4805 -0.2070  0.0397
17778TIP3    H174749   1.437   2.296   6.224  0.8068 -0.2615 -1.5212
17778TIP3    H274750   1.476   2.153   6.255 -0.3183  0.2093  2.6815
17779TIP3   OH274751   5.345   3.165   0.385 -0.0208 -0.2517  0.5805
17779TIP3    H174752   5.384   3.080   0.363 -0.0527 -0.0789 -0.1966
17779TIP3    H274753   5.251   3.147   0.395  0.1896 -0.6192  2.1886
17780TIP3   OH274754   1.541   1.306   4.238  0.0604  0.2574  0.2337
17780TIP3    H174755   1.625   1.306   4.283  0.2575 -0.1096 -0.1201
17780TIP3    H274756   1.562   1.334   4.149 -0.3441  1.1101  0.3974
17781TIP3   OH274757   5.168   0.530  11.420  0.4002 -0.0092  0.1566
17781TIP3    H174758   5.212   0.556  11.339  1.2932  0.5923  0.8091
17781TIP3    H274759   5.091   0.586  11.425  1.2731  1.1982  0.5713
17782TIP3   OH274760   6.157   0.025  11.576 -0.4521  0.4320  0.4907
17782TIP3    H174761   6.143   0.088  11.505 -0.5206 -0.2877 -0.1491
17782TIP3    H274762   6.248   0.039  11.602 -0.0369 -0.1323 -0.5909
17783TIP3   OH274763   2.749   2.434  16.703 -0.2217  0.1200 -0.7157
17783TIP3    H174764   2.746   2.364  16.638  2.2626  1.1427 -2.0932
17783TIP3    H274765   2.765   2.389  16.786  0.2669 -1.0094 -1.3980
17784TIP3   OH274766   3.707   5.505   4.438  0.4967  0.2058 -0.2993
17784TIP3    H174767   3.776   5.442   4.418 -0.5264 -0.5058 -1.7691
17784TIP3    H274768   3.702   5.506   4.534  2.1764 -0.0969 -0.1785
17785TIP3   OH274769   6.188   1.967  15.239  0.2436 -0.5806  0.2716
17785TIP3    H174770   6.245   1.890  15.235  0.5198 -0.3349 -0.5236
17785TIP3    H274771   6.166   1.975  15.332  1.0746 -0.9860  0.5108
17786TIP3   OH274772   6.149   1.632  10.755 -0.1939 -0.0735  0.1478
17786TIP3    H174773   6.234   1.609  10.792 -1.0625  0.9188  2.9775
17786TIP3    H274774   6.088   1.571  10.795 -1.1297  0.6743 -0.1107
17787TIP3   OH274775   4.629   5.966  11.117 -0.3110  0.0147 -0.1835
17787TIP3    H174776   4.604   6.052  11.150 -2.0486 -1.1419  1.6949
17787TIP3    H274777   4.564   5.946  11.049 -1.4009 -0.7694  1.0437
17788TIP3   OH274778   5.284   5.904   5.778  0.0266  0.3348  0.4204
17788TIP3    H174779   5.289   5.935   5.869 -0.1897 -1.4724  1.0800
17788TIP3    H274780   5.212   5.841   5.777  0.2388  0.0787 -0.9332
17789TIP3   OH274781   1.258   1.916  15.583  0.1699 -0.5730  0.1424
17789TIP3    H174782   1.315   1.931  15.507 -0.0782  0.2955  0.1181
17789TIP3    H274783   1.288   1.833  15.618  1.0581 -0.4332 -0.2324
17790TIP3   OH274784   4.014   4.494   3.163  0.1179 -0.2647 -0.3778
17790TIP3    H174785   4.034   4.412   3.209 -2.3159 -1.1384 -0.7346
17790TIP3    H274786   3.936   4.527   3.207  1.3896  2.2810  0.1770
17791TIP3   OH274787   0.269   0.476   3.793 -0.0523  0.3643  0.5547
17791TIP3    H174788   0.316   0.508   3.870  0.4185  1.6119 -0.2300
17791TIP3    H274789   0.225   0.553   3.758 -0.4430 -0.2361 -0.3011
17792TIP3   OH274790   6.699   1.465  15.531 -0.4853 -0.3158  0.0490
17792TIP3    H174791   6.745   1.543  15.500  0.4712 -1.1263 -0.6314
17792TIP3    H274792   6.767   1.398  15.538 -1.3465 -1.1891  0.3055
17793TIP3   OH274793   1.008   1.343   0.406  0.2969 -0.5067  0.0155
17793TIP3    H174794   1.088   1.395   0.410 -0.2507  0.8512 -3.2653
17793TIP3    H274795   1.033   1.266   0.353 -0.0181 -1.3334  1.0321
17794TIP3   OH274796   1.545   0.607   1.595  0.4794  0.4561  0.0555
17794TIP3    H174797   1.470   0.605   1.654  1.5338  0.5577  1.4646
17794TIP3    H274798   1.579   0.697   1.603  1.1447  0.2172 -0.0253
17795TIP3   OH274799   3.382   1.622  15.484  0.1638  0.7803  0.3231
17795TIP3    H174800   3.336   1.539  15.492  1.2032  0.2604  1.2045
17795TIP3    H274801   3.317   1.682  15.448 -0.5742 -0.4275 -0.4560
17796TIP3   OH274802   4.700   4.992   0.801  0.5057 -1.0798 -0.2496
17796TIP3    H174803   4.688   4.903   0.768  0.9554 -0.8028 -1.2068
17796TIP3    H274804   4.629   5.042   0.761  1.5838 -0.5533 -1.5719
17797TIP3   OH274805   5.603   0.991  13.008 -0.3774  0.3807  0.1013
17797TIP3    H174806   5.676   1.021  13.062 -0.1763  0.4757 -0.2228
17797TIP3    H274807   5.607   1.046  12.930 -0.0207 -0.4739 -0.4921
17798TIP3   OH274808   6.020   5.011   4.083  0.0980 -0.0507 -0.3019
17798TIP3    H174809   6.098   5.066   4.078  0.0294  0.1214  0.3772
17798TIP3    H274810   6.049   4.930   4.124 -0.4873  0.8726  2.1176
17799TIP3   OH274811   0.186   3.250  12.608  0.2675 -0.4997 -0.0986
17799TIP3    H174812   0.187   3.332  12.560  1.2297 -0.0844  0.6028
17799TIP3    H274813   0.171   3.183  12.541  1.5259  0.0709 -0.9834
17800TIP3   OH274814   2.148   3.260   3.881 -0.0398 -0.2444 -0.8957
17800TIP3    H174815   2.147   3.167   3.905  2.2422 -0.6773 -2.1549
17800TIP3    H274816   2.068   3.272   3.829 -0.2446 -1.5885 -0.9405
17801TIP3   OH274817   0.357   5.201  17.275 -0.3510  0.2814 -0.4863
17801TIP3    H174818   0.398   5.118  17.297 -1.1430 -0.5657 -2.0796
17801TIP3    H274819   0.268   5.193  17.309  0.5530  2.0336  2.7841
17802TIP3   OH274820   6.483   1.246   4.546 -0.0944 -0.5295 -0.3775
17802TIP3    H174821   6.461   1.338   4.556  1.3743 -0.2608  0.6823
17802TIP3    H274822   6.529   1.223   4.627 -0.4652 -2.2024 -0.6069
17803TIP3   OH274823   5.439   3.639   0.061 -0.0001  0.2123 -0.6696
17803TIP3    H174824   5.443   3.660  -0.032 -0.5436  0.9873 -0.5227
17803TIP3    H274825   5.498   3.701   0.103 -1.0881  1.0339 -0.3114
17804TIP3   OH274826   5.455   1.333   5.673 -0.5826  0.7996 -0.6079
17804TIP3    H174827   5.451   1.336   5.769 -0.3481  2.6677 -0.6040
17804TIP3    H274828   5.470   1.241   5.652  0.8695  0.5474  1.2238
17805TIP3   OH274829   6.119   3.469  12.538 -0.0289  0.0291  0.1075
17805TIP3    H174830   6.052   3.506  12.481  0.1334  0.9429  0.4969
17805TIP3    H274831   6.185   3.436  12.477 -0.8239 -0.8922 -0.2782
17806TIP3   OH274832   3.398   0.165  14.932 -0.6199 -0.7660  0.2835
17806TIP3    H174833   3.452   0.121  14.999  2.2176  2.1632  0.1701
17806TIP3    H274834   3.403   0.108  14.856  2.4792 -0.6663  0.2986
17807TIP3   OH274835   4.933   5.098  12.059  0.3815  0.0414 -0.0308
17807TIP3    H174836   4.958   5.153  12.132  1.8832  0.1563 -0.6007
17807TIP3    H274837   4.936   5.156  11.983  0.0603 -0.3763 -0.3693
17808TIP3   OH274838   2.046   2.117  14.565 -0.1055 -0.1339 -0.1270
17808TIP3    H174839   2.094   2.161  14.494 -2.5887  0.2235 -1.7267
17808TIP3    H274840   1.994   2.187  14.605  0.7297 -0.4760  1.6383
17809TIP3   OH274841   3.786   5.667   2.743 -0.4706  0.1086  0.2744
17809TIP3    H174842   3.764   5.759   2.735  1.1377  0.7608  2.4056
17809TIP3    H274843   3.868   5.666   2.792 -0.3979 -2.4522  0.2347
17810TIP3   OH274844   6.200   1.946   2.643  0.2205  0.3531  0.3766
17810TIP3    H174845   6.255   2.024   2.645  0.0823  0.4453  0.5988
17810TIP3    H274846   6.120   1.972   2.688  0.3701 -0.0647  0.8917
17811TIP3   OH274847   5.817   3.130  12.198  0.5543 -0.4026 -0.5134
17811TIP3    H174848   5.850   3.055  12.248  0.3750 -0.1683 -0.0333
17811TIP3    H274849   5.866   3.128  12.116  0.9694 -0.6973 -0.2605
17812TIP3   OH274850   4.313   4.940   0.657 -0.4236 -0.5497  0.0715
17812TIP3    H174851   4.396   4.913   0.617 -0.3112 -0.2668  0.1112
17812TIP3    H274852   4.278   4.861   0.698 -0.0581 -0.6148  0.2562
17813TIP3   OH274853   2.391   1.535   5.275 -0.5246  0.3898 -0.1065
17813TIP3    H174854   2.423   1.540   5.185  0.3696  0.7967  0.2168
17813TIP3    H274855   2.441   1.464   5.315  0.3874  1.3604  0.5501
17814TIP3   OH274856   3.176   5.408  17.308  0.2934 -0.8599 -0.2742
17814TIP3    H174857   3.193   5.499  17.330 -0.3554 -1.1839  1.8379
17814TIP3    H274858   3.131   5.411  17.224  1.1596  0.6720 -0.7210
17815TIP3   OH274859   1.204   3.360   0.864 -0.3513 -0.4953  0.2713
17815TIP3    H174860   1.179   3.352   0.771 -0.5103  1.5364  0.1110
17815TIP3    H274861   1.129   3.322   0.911 -1.6393  1.0954 -0.3803
17816TIP3   OH274862   3.636   1.159  11.340  0.3771  0.4077  0.0983
17816TIP3    H174863   3.611   1.203  11.421 -0.5400 -1.2878  0.7869
17816TIP3    H274864   3.713   1.107  11.363  0.6153  0.5645 -0.3294
17817TIP3   OH274865   2.248   4.778   4.487  0.2018  0.1969  0.0199
17817TIP3    H174866   2.312   4.789   4.557 -0.5916  0.3473  0.7454
17817TIP3    H274867   2.252   4.685   4.466 -1.6990 -0.5480  2.4588
17818TIP3   OH274868   2.044   4.036  16.952  0.3115  0.3834  0.2664
17818TIP3    H174869   2.049   4.004  16.862  0.3094  0.8136  0.1081
17818TIP3    H274870   2.131   4.020  16.989  0.1120 -0.4060  0.4025
17819TIP3   OH274871   2.096   2.682  12.944  0.4341 -0.4634 -0.3032
17819TIP3    H174872   2.017   2.728  12.916 -0.2670 -1.8058 -0.6287
17819TIP3    H274873   2.111   2.712  13.033  0.0385  0.4278 -0.5293
17820TIP3   OH274874   5.178   4.072  14.707  0.1005 -0.0177  0.2105
17820TIP3    H174875   5.212   4.039  14.791  0.0169 -1.1038 -0.1643
17820TIP3    H274876   5.250   4.121  14.669  0.5006 -0.4078  0.4523
17821TIP3   OH274877   2.379   5.857  11.302 -0.1386  0.0430  0.1898
17821TIP3    H174878   2.366   5.763  11.290 -3.2023  0.6315 -2.3119
17821TIP3    H274879   2.446   5.880  11.237  0.0158 -0.2939  0.2293
17822TIP3   OH274880   6.218   0.905  14.580 -0.2307 -0.3093  0.2614
17822TIP3    H174881   6.236   0.813  14.599 -0.3005 -0.6629 -1.2224
17822TIP3    H274882   6.283   0.928  14.514  0.7175  1.1523  1.6377
17823TIP3   OH274883   6.004   5.328  12.424  0.0806 -0.5831 -0.0277
17823TIP3    H174884   6.019   5.273  12.501  0.9932 -0.4918 -0.1308
17823TIP3    H274885   6.075   5.392  12.427 -0.2279 -0.2176 -0.6202
17824TIP3   OH274886   5.271   4.112  15.506 -0.2644  0.1880  0.4121
17824TIP3    H174887   5.249   4.205  15.503  1.2013  0.5646  0.5972
17824TIP3    H274888   5.278   4.086  15.414  0.9942  0.7069  0.3378
17825TIP3   OH274889   2.437   3.484  11.891 -0.1268 -0.1238  0.1718
17825TIP3    H174890   2.346   3.490  11.921 -0.2828  0.1911 -0.3560
17825TIP3    H274891   2.433   3.431  11.811  0.3219 -1.1722  0.8253
17826TIP3   OH274892   1.042   5.510   1.313 -0.1023  0.3825 -0.9151
17826TIP3    H174893   1.068   5.490   1.403 -1.5916  0.2195 -0.4911
17826TIP3    H274894   1.101   5.457   1.259 -0.9248 -1.6522  0.0577
17827TIP3   OH274895   6.564   5.658  17.329  0.6199  0.7506 -0.0871
17827TIP3    H174896   6.525   5.572  17.340  0.3097  0.8247 -0.6108
17827TIP3    H274897   6.534   5.688  17.244  2.0031  0.7165 -0.6118
17828TIP3   OH274898   2.842   1.028  15.329 -0.0090  0.1807  0.4699
17828TIP3    H174899   2.759   0.992  15.296  0.6162 -0.8558 -0.0387
17828TIP3    H274900   2.881   1.072  15.253  0.1104  0.2839  0.5908
17829TIP3   OH274901   3.633   0.955   5.642 -0.3388 -0.2207 -0.3056
17829TIP3    H174902   3.602   1.024   5.583 -1.3500  0.4527  0.9633
17829TIP3    H274903   3.554   0.913   5.673 -0.1234  1.5027  2.9963
17830TIP3   OH274904   2.739   4.640  15.813  0.6669 -0.0113 -0.0000
17830TIP3    H174905   2.744   4.716  15.870  0.1304  0.2816 -0.3417
17830TIP3    H274906   2.666   4.589  15.846  0.2213  0.2629 -0.5461
17831TIP3   OH274907   6.599   5.358  16.468  0.4172 -0.4011 -0.1174
17831TIP3    H174908   6.536   5.382  16.400  0.1439 -0.7553  0.0137
17831TIP3    H274909   6.559   5.285  16.515  1.4518 -1.4767 -0.8304
17832TIP3   OH274910   3.353   2.647  16.137 -0.6499 -0.0294 -0.6735
17832TIP3    H174911   3.422   2.668  16.199 -1.8901 -0.1154  0.7880
17832TIP3    H274912   3.382   2.686  16.054  0.1981  1.6480  0.3674
17833TIP3   OH274913   2.345   0.738   1.812 -0.6914  0.3829  0.1316
17833TIP3    H174914   2.437   0.712   1.805 -0.9588 -0.2831 -1.4007
17833TIP3    H274915   2.309   0.721   1.725 -1.8803  2.1656  0.2232
17834TIP3   OH274916   2.272   1.593   0.378 -0.2633  0.5860 -0.4436
17834TIP3    H174917   2.327   1.530   0.331  1.5309  0.1189  2.0738
17834TIP3    H274918   2.198   1.542   0.410  1.4807 -0.6064  2.1102
17835TIP3   OH274919   1.454   4.448  15.157 -0.2764  0.2610  0.2895
17835TIP3    H174920   1.519   4.428  15.224  0.6219 -4.4100 -1.5862
17835TIP3    H274921   1.505   4.488  15.086 -0.0681 -0.2272  0.1579
17836TIP3   OH274922   4.272   3.036  14.715  0.7423 -0.8014  0.0741
17836TIP3    H174923   4.193   3.037  14.662  0.7851  2.3178 -0.1450
17836TIP3    H274924   4.344   3.027  14.652  0.7566  2.2440 -0.5340
17837TIP3   OH274925   6.386   5.210  11.800 -0.6414  0.6268 -0.2992
17837TIP3    H174926   6.389   5.137  11.738  1.1858 -0.8806  1.4300
17837TIP3    H274927   6.452   5.272  11.768 -0.2920  0.2460 -0.3201
17838TIP3   OH274928   3.657   4.918   4.468 -0.6766  0.3090 -0.5825
17838TIP3    H174929   3.605   4.912   4.548  0.7214 -0.1793  0.3411
17838TIP3    H274930   3.718   4.991   4.485  0.2195 -0.3686 -0.8229
17839TIP3   OH274931   1.789   4.181   1.701 -0.1462  0.2593 -0.0717
17839TIP3    H174932   1.785   4.168   1.795 -0.0106  0.2843 -0.0623
17839TIP3    H274933   1.845   4.109   1.669 -2.3000 -1.3430 -0.4424
17840TIP3   OH274934   2.059   2.881   1.244 -0.3024  0.0693 -0.2275
17840TIP3    H174935   2.084   2.829   1.320  3.5343 -0.7537 -1.8102
17840TIP3    H274936   2.025   2.816   1.181  2.2665 -0.3028 -1.3352
17841TIP3   OH274937   6.641   6.035  12.943 -0.2909  0.0022 -0.2313
17841TIP3    H174938   6.720   5.991  12.912 -1.1150 -1.6706 -0.0381
17841TIP3    H274939   6.623   6.102  12.876  1.7392  1.0322  0.1673
17842TIP3   OH274940   6.618   5.044   3.658 -0.2601 -0.2261  0.1053
17842TIP3    H174941   6.677   4.972   3.638 -1.2326 -0.8301 -0.7497
17842TIP3    H274942   6.625   5.057   3.752  1.7436  0.2140 -0.0670
17843TIP3   OH274943   6.689   3.973  16.887 -0.6750 -0.1703 -0.1100
17843TIP3    H174944   6.644   4.019  16.958  0.0042 -0.7479  0.7092
17843TIP3    H274945   6.768   4.024  16.871 -0.8189 -0.0500 -0.4440
17844TIP3   OH274946   6.665   4.705  13.167  0.1584  0.2432  0.3609
17844TIP3    H174947   6.732   4.713  13.235  3.5903  0.4790 -2.7253
17844TIP3    H274948   6.652   4.795  13.137  0.9569 -0.1378 -1.2005
17845TIP3   OH274949   4.554   6.186  13.160 -0.0083 -0.3173  0.0556
17845TIP3    H174950   4.505   6.107  13.182  1.6787 -1.3197  0.4202
17845TIP3    H274951   4.635   6.179  13.210  0.9241  0.8033 -1.2012
17846TIP3   OH274952   2.093   5.878   1.672  0.6563  0.1361 -0.8654
17846TIP3    H174953   2.112   5.923   1.590  0.0148  1.9927 -0.0599
17846TIP3    H274954   2.047   5.798   1.646  1.4777  0.1079 -2.3377
17847TIP3   OH274955   3.191   0.528  17.031 -0.5755 -0.3758 -0.1776
17847TIP3    H174956   3.123   0.596  17.033 -0.9597 -0.7606 -0.0406
17847TIP3    H274957   3.145   0.449  17.003  0.2090 -0.1928 -2.2350
17848TIP3   OH274958   3.321   1.801  13.417 -0.1589 -0.1863 -0.0167
17848TIP3    H174959   3.298   1.871  13.356  0.4364 -0.4999 -0.6124
17848TIP3    H274960   3.344   1.847  13.498  2.3208  0.5239 -1.0086
17849TIP3   OH274961   4.009   4.933  14.094 -0.0909  0.3604 -0.2023
17849TIP3    H174962   3.928   4.984  14.089 -0.6951 -0.4925  0.6498
17849TIP3    H274963   4.071   4.983  14.041 -1.1521  1.0517 -0.8449
17850TIP3   OH274964   5.075   3.409  10.542  0.2817 -0.3813  0.4399
17850TIP3    H174965   5.134   3.484  10.549  1.5184 -1.2586 -0.1872
17850TIP3    H274966   5.134   3.334  10.533 -0.8852 -1.5567  2.0043
17851TIP3   OH274967   4.952   5.141   2.650 -0.0253  0.3489 -0.1803
17851TIP3    H174968   5.042   5.129   2.679  0.2384  2.0798 -0.1750
17851TIP3    H274969   4.942   5.079   2.578  1.6453  1.0844 -1.1164
17852TIP3   OH274970   3.357   5.951   5.520  0.6752 -0.2921  0.1242
17852TIP3    H174971   3.419   6.005   5.570  0.7820 -1.6092  1.4691
17852TIP3    H274972   3.411   5.880   5.485  0.4214  0.1103 -1.1475
17853TIP3   OH274973   3.442   2.807  15.919 -0.2748  0.5131 -0.2101
17853TIP3    H174974   3.533   2.781  15.903 -0.3237  0.1558  0.0871
17853TIP3    H274975   3.449   2.896  15.954  0.1372 -0.3113  1.9734
17854TIP3   OH274976   1.071   1.188  11.492  0.1757 -0.4705 -0.5135
17854TIP3    H174977   0.977   1.205  11.483  0.0785 -0.3706  0.5425
17854TIP3    H274978   1.082   1.098  11.462 -0.6610 -1.3122  1.5286
17855TIP3   OH274979   0.956   5.078  17.024 -0.2060  0.2187  0.0734
17855TIP3    H174980   1.046   5.068  16.994  0.5042  2.2856  1.3879
17855TIP3    H274981   0.952   5.029  17.106 -0.2688  0.2191  0.0705
17856TIP3   OH274982   0.283   0.242  16.944 -0.1428 -0.5545 -0.5279
17856TIP3    H174983   0.309   0.176  16.880 -2.4141 -0.2225 -1.9192
17856TIP3    H274984   0.327   0.322  16.915  0.0369 -0.7346 -0.7598
17857TIP3   OH274985   5.120   0.766   5.942  0.0567  0.3259 -0.1303
17857TIP3    H174986   5.148   0.700   6.005 -0.1803  0.7476  0.4222
17857TIP3    H274987   5.173   0.843   5.962  1.9588 -0.3241 -2.2034
17858TIP3   OH274988   4.968   0.408  16.404  0.0348 -0.1638 -0.2690
17858TIP3    H174989   4.934   0.348  16.470  1.6396  0.6961  1.4067
17858TIP3    H274990   5.003   0.482  16.453  1.0232  0.6610 -2.0969
17859TIP3   OH274991   5.625   4.137  16.134 -0.2721 -0.5649 -0.2310
17859TIP3    H174992   5.622   4.052  16.178 -2.2384  1.2669  3.7030
17859TIP3    H274993   5.715   4.167  16.147  0.0219 -1.3926 -0.2995
17860TIP3   OH274994   3.275   3.439   2.002  0.2107 -0.6917 -0.1166
17860TIP3    H174995   3.293   3.509   2.065  2.1800  1.1247 -2.5133
17860TIP3    H274996   3.180   3.442   1.991  0.2175  1.7483 -0.2015
17861TIP3   OH274997   4.847   3.712  13.683 -0.2106 -0.0795  0.3199
17861TIP3    H174998   4.927   3.685  13.730 -0.5350  0.5972  1.3130
17861TIP3    H274999   4.845   3.657  13.605  1.3603  0.0595  0.1521
17862TIP3   OH275000   1.834   3.510   3.856 -0.1558 -0.2812  0.3076
17862TIP3    H175001   1.744   3.480   3.849 -0.1665 -0.1299 -0.2569
17862TIP3    H275002   1.828   3.605   3.862 -0.0885 -0.3418  1.3916
17863TIP3   OH275003   2.522   0.033  15.450  0.3500 -1.1128 -0.3223
17863TIP3    H175004   2.559  -0.013  15.374 -1.6168 -0.8894 -1.5031
17863TIP3    H275005   2.487  -0.037  15.506 -1.0781 -1.2031 -1.2622
17864TIP3   OH275006   0.905   0.612   4.085  0.2680 -0.1826  0.1560
17864TIP3    H175007   0.947   0.615   3.999  1.4643  1.5236  0.7442
17864TIP3    H275008   0.892   0.703   4.109  0.2036 -0.6127  1.9021
17865TIP3   OH275009   3.181   5.805  17.094  0.0498  0.5500  0.5399
17865TIP3    H175010   3.159   5.854  17.015  0.5501  1.7106  1.0822
17865TIP3    H275011   3.262   5.846  17.125  1.5179 -1.7904  0.0623
17866TIP3   OH275012   2.690   0.116   1.469 -0.0437 -0.3014  0.3750
17866TIP3    H175013   2.670   0.209   1.456  0.7066 -0.3825 -1.7468
17866TIP3    H275014   2.705   0.108   1.563  0.6697  1.9044  0.5131
17867TIP3   OH275015   0.876   0.818   1.443  0.1592 -0.2800 -0.7507
17867TIP3    H175016   0.924   0.749   1.397  0.3201  0.0139 -1.0282
17867TIP3    H275017   0.819   0.856   1.376 -0.6885 -0.8202 -0.3568
17868TIP3   OH275018   4.078   0.757  15.800  0.8198 -0.2912 -0.5509
17868TIP3    H175019   4.043   0.694  15.862  0.0632  0.4867 -0.1698
17868TIP3    H275020   4.148   0.803  15.848  0.5465 -0.0073 -0.4210
17869TIP3   OH275021   2.781   5.338  11.963 -0.3947 -0.0787 -0.4091
17869TIP3    H175022   2.704   5.285  11.986  0.3855 -0.9845  0.2340
17869TIP3    H275023   2.758   5.378  11.880 -0.8538 -1.8469 -1.1884
17870TIP3   OH275024   5.685   3.151   1.034  0.2817 -0.5969 -0.2174
17870TIP3    H175025   5.628   3.225   1.011  0.8926 -0.4389 -1.2781
17870TIP3    H275026   5.658   3.081   0.975  1.2267 -0.4944 -0.7928
17871TIP3   OH275027   2.937   5.155  11.536  0.0807  0.5095 -0.1946
17871TIP3    H175028   2.919   5.187  11.447 -0.9675 -0.0345 -0.1931
17871TIP3    H275029   2.994   5.079  11.523  0.6949  0.9859 -0.3350
17872TIP3   OH275030   0.562   6.379   4.336 -0.3855  0.1914  0.3090
17872TIP3    H175031   0.521   6.440   4.397 -0.0418 -1.0324  1.8323
17872TIP3    H275032   0.491   6.321   4.308  0.0898 -1.6230  2.5705
17873TIP3   OH275033   6.010   4.325  13.451 -0.1210 -0.6239  0.0324
17873TIP3    H175034   6.031   4.405  13.500  0.7486 -0.8163  0.0014
17873TIP3    H275035   5.948   4.354  13.384  2.3721  0.7052 -1.8808
17874TIP3   OH275036   5.891   0.156   2.440  0.0647  0.3260  0.5452
17874TIP3    H175037   5.895   0.062   2.455  0.3592 -0.0250 -1.5489
17874TIP3    H275038   5.970   0.190   2.483  0.9203 -0.6316 -0.2066
17875TIP3   OH275039   4.065   3.962   3.972 -0.1508 -0.4410 -0.7117
17875TIP3    H175040   4.030   4.024   3.908 -0.5951 -1.8665 -1.9022
17875TIP3    H275041   4.145   3.929   3.931  0.8538  0.3347  0.5307
17876TIP3   OH275042   1.204   4.759   3.804 -0.4146 -0.9529 -0.0973
17876TIP3    H175043   1.178   4.670   3.830  0.6646 -0.6663  2.2814
17876TIP3    H275044   1.296   4.752   3.781 -0.9251 -0.8473 -2.3185
17877TIP3   OH275045   5.183   2.854   0.942 -0.5071 -0.0515  0.3725
17877TIP3    H175046   5.162   2.845   0.849  0.0848 -1.3871  0.3480
17877TIP3    H275047   5.171   2.766   0.978  0.0156  0.2797  1.3988
17878TIP3   OH275048   4.110   4.816   4.911 -0.0309  0.2134 -0.0700
17878TIP3    H175049   4.148   4.850   4.830  0.2251  2.7910  1.0136
17878TIP3    H275050   4.179   4.763   4.950  0.6004  0.6582 -0.5573
17879TIP3   OH275051   2.956   1.304   1.983 -0.5136 -0.0513 -0.5775
17879TIP3    H175052   2.888   1.306   2.051 -0.4583 -0.4623 -0.5061
17879TIP3    H275053   3.037   1.321   2.030 -0.7719  2.7468 -0.9765
17880TIP3   OH275054   3.090   0.713  14.419 -0.0532  0.2263 -0.0202
17880TIP3    H175055   3.171   0.749  14.453 -1.0991  2.2302  0.5135
17880TIP3    H275056   3.078   0.631  14.466  1.2478  0.2977  0.4664
17881TIP3   OH275057   4.604   5.223  14.740 -0.0134 -0.4307  0.2465
17881TIP3    H175058   4.699   5.209  14.744  0.0107 -1.7545 -2.5026
17881TIP3    H275059   4.573   5.197  14.827  2.0336 -0.9875  0.8849
17882TIP3   OH275060   0.914   5.483   5.350  0.2670  0.1229 -0.2311
17882TIP3    H175061   0.944   5.448   5.433  0.8295 -1.2617 -0.9780
17882TIP3    H275062   0.821   5.503   5.364  0.6138  0.9611  1.0284
17883TIP3   OH275063   6.488   2.376   6.454 -0.5095 -0.4188  0.2633
17883TIP3    H175064   6.479   2.281   6.445 -0.3656 -0.5162  1.0834
17883TIP3    H275065   6.406   2.405   6.492  0.8427 -0.7697  3.8015
17884TIP3   OH275066   5.596   1.349   0.854 -0.4742  0.3511  0.4707
17884TIP3    H175067   5.572   1.413   0.921 -0.6988  0.5059  0.2459
17884TIP3    H275068   5.613   1.268   0.903  1.9048  1.0903  0.9842
17885TIP3   OH275069   3.635   2.423  10.857 -0.2765  0.1468 -0.0123
17885TIP3    H175070   3.667   2.333  10.860  0.0911  0.2502 -0.6566
17885TIP3    H275071   3.654   2.453  10.768 -1.0725  0.6169 -0.0382
17886TIP3   OH275072   1.178   5.857  15.091 -0.3677 -0.3662 -0.1586
17886TIP3    H175073   1.121   5.812  15.154  1.4590 -2.7921 -0.1079
17886TIP3    H275074   1.218   5.928  15.142 -0.7326 -0.7756  0.7181
17887TIP3   OH275075   4.528   1.503  16.090 -0.3363 -0.5088  0.3397
17887TIP3    H175076   4.516   1.598  16.087  0.2103 -0.4561 -1.2306
17887TIP3    H275077   4.539   1.483  16.183 -0.4022  0.9685  0.6918
17888TIP3   OH275078   3.376   4.825  15.578  0.0076  0.1462 -0.1891
17888TIP3    H175079   3.365   4.919  15.569  0.5523  0.4199  1.5656
17888TIP3    H275080   3.471   4.811  15.576 -0.0696 -0.3759 -0.5173
17889TIP3   OH275081   5.144   4.661  12.552  0.0235  0.2079 -0.0931
17889TIP3    H175082   5.061   4.669  12.599 -0.0245  2.2244 -0.4263
17889TIP3    H275083   5.120   4.638  12.463 -0.0530 -0.9237  0.2087
17890TIP3   OH275084   4.427   6.199  16.332  0.4467 -0.0874  0.0250
17890TIP3    H175085   4.394   6.228  16.416  2.0738 -0.8373  0.9849
17890TIP3    H275086   4.467   6.278  16.293 -0.4036  0.2829 -0.1188
17891TIP3   OH275087   5.188   5.474   2.343 -0.3884 -0.2217 -0.2305
17891TIP3    H175088   5.170   5.567   2.324 -2.5424 -0.7569 -1.1120
17891TIP3    H275089   5.194   5.433   2.257 -0.0866 -1.0144  0.1635
17892TIP3   OH275090   1.300   5.412   3.237  1.0828 -0.2357  0.1526
17892TIP3    H175091   1.306   5.382   3.328  1.8518  1.2170  0.6190
17892TIP3    H275092   1.208   5.433   3.224  0.7338 -1.6654  0.1645
17893TIP3   OH275093   0.480   3.610   4.501  0.2698  0.0045 -0.2610
17893TIP3    H175094   0.509   3.697   4.526  1.1929 -0.3169 -0.1476
17893TIP3    H275095   0.385   3.613   4.507  0.2906  1.0282 -0.3613
17894TIP3   OH275096   0.553   5.159   3.533 -0.4770 -0.0535  0.1943
17894TIP3    H175097   0.498   5.088   3.567 -0.0197 -0.1700  0.6858
17894TIP3    H275098   0.555   5.144   3.438  1.7854 -2.2805  0.5076
17895TIP3   OH275099   4.273   2.185  11.909 -0.0478 -0.1185 -0.3740
17895TIP3    H175100   4.313   2.260  11.865  2.8135 -1.0399  0.4025
17895TIP3    H275101   4.201   2.160  11.852 -1.6183  3.5637 -0.3129
17896TIP3   OH275102   0.800   2.102   1.280 -0.2502  0.0384 -0.5262
17896TIP3    H175103   0.890   2.081   1.303 -0.7765 -3.0416 -0.9202
17896TIP3    H275104   0.755   2.115   1.364  0.3804  1.0425 -0.3206
17897TIP3   OH275105   5.936   1.738  14.408  0.2219 -0.0728  0.2673
17897TIP3    H175106   5.901   1.671  14.350  0.3540 -0.0042  0.1087
17897TIP3    H275107   5.991   1.793  14.352  0.1452  0.1453  0.4041
17898TIP3   OH275108   5.563   5.569   1.164 -0.2153 -0.6873 -0.1164
17898TIP3    H175109   5.618   5.640   1.197  0.4934 -0.7668 -1.1056
17898TIP3    H275110   5.486   5.613   1.129  0.2332 -0.3985 -0.7539
17899TIP3   OH275111   1.650   3.840  12.682 -0.3745  0.3171 -0.8856
17899TIP3    H175112   1.718   3.774  12.689 -0.6669 -0.0378 -1.3210
17899TIP3    H275113   1.614   3.847  12.771 -1.3140 -1.1732 -1.1077
17900TIP3   OH275114   4.626   0.036  14.837 -0.0242 -0.1568  0.4067
17900TIP3    H175115   4.709   0.028  14.789  0.2052 -1.6300  0.9686
17900TIP3    H275116   4.646  -0.000  14.924 -1.5379 -1.7029  0.1670
17901TIP3   OH275117   0.388   6.460   0.128  0.2940 -0.0402  0.5375
17901TIP3    H175118   0.385   6.542   0.080 -1.0007 -1.4204 -1.9306
17901TIP3    H275119   0.415   6.485   0.217  1.0006  2.8591 -0.3905
17902TIP3   OH275120   2.187   3.684  16.640  0.2594 -0.5760  0.7551
17902TIP3    H175121   2.205   3.624  16.568 -3.0715  0.8116 -1.4910
17902TIP3    H275122   2.143   3.630  16.706  0.3514 -1.2520  0.2772
17903TIP3   OH275123   2.995   2.186   0.430  0.5046  0.2747 -0.2758
17903TIP3    H175124   3.074   2.139   0.456  0.3972 -0.6518 -1.5589
17903TIP3    H275125   3.014   2.221   0.343 -0.9275 -1.1147 -1.2162
17904TIP3   OH275126   4.716   0.588   3.820  0.2756 -0.2161 -0.0039
17904TIP3    H175127   4.725   0.667   3.766  0.6622 -1.0400 -1.1669
17904TIP3    H275128   4.796   0.585   3.872  0.0943  0.3449  0.3250
17905TIP3   OH275129   0.991   3.416   4.183 -0.2833  0.2426 -0.2892
17905TIP3    H175130   0.991   3.393   4.276 -3.5388 -1.3219 -0.4973
17905TIP3    H275131   1.056   3.358   4.144  1.5138  1.2967  1.0214
17906TIP3   OH275132   1.065   4.738   0.549 -0.1986  0.0214  0.5427
17906TIP3    H175133   1.052   4.833   0.557 -1.0323 -0.1489  1.3906
17906TIP3    H275134   1.025   4.701   0.628 -0.2067 -1.0672  0.0515
17907TIP3   OH275135   0.340   6.539  14.241 -0.4799 -0.3771  0.1769
17907TIP3    H175136   0.270   6.496  14.191 -2.0069  0.7350  1.2477
17907TIP3    H275137   0.352   6.624  14.198  0.6366 -0.7805 -0.3347
17908TIP3   OH275138   5.925   0.456   0.786  0.6722  0.0734  0.2149
17908TIP3    H175139   5.920   0.386   0.851 -0.0164 -0.1796 -0.0950
17908TIP3    H275140   6.015   0.454   0.754  0.8208 -0.2602  0.6563
17909TIP3   OH275141   2.372   2.096   0.090 -0.2325  0.2877 -0.2894
17909TIP3    H175142   2.424   2.081   0.010  0.8607 -0.7226  0.5628
17909TIP3    H275143   2.434   2.079   0.161 -1.3715  0.5080  0.7760
17910TIP3   OH275144   2.300   0.128   0.679  0.4866  0.1404  0.1694
17910TIP3    H175145   2.277   0.041   0.647  0.1819  0.3725 -0.2467
17910TIP3    H275146   2.319   0.115   0.772 -2.6552  0.1591  0.9122
17911TIP3   OH275147   3.689   2.227  15.300  0.0797 -0.7292 -0.9876
17911TIP3    H175148   3.619   2.206  15.361  2.2816 -0.5366  1.8236
17911TIP3    H275149   3.743   2.148  15.297 -0.0097 -0.7763 -2.8622
17912TIP3   OH275150   3.407   4.806  12.994  0.4826 -0.2636  0.1395
17912TIP3    H175151   3.355   4.766  13.064  0.8439  0.0065  0.5598
17912TIP3    H275152   3.369   4.770  12.913 -1.3966  1.1049  0.3391
17913TIP3   OH275153   1.467   2.342  10.740 -0.3670 -0.4306 -0.2858
17913TIP3    H175154   1.412   2.263  10.734  2.1633 -2.5509  1.8915
17913TIP3    H275155   1.533   2.330  10.672 -0.9296  0.7297 -1.0620
17914TIP3   OH275156   6.016   2.498   2.562  0.3610  0.2314 -0.5610
17914TIP3    H175157   6.010   2.561   2.491  2.2910 -1.1342 -2.0527
17914TIP3    H275158   6.038   2.551   2.639  1.4263  1.4571 -1.6589
17915TIP3   OH275159   4.541   0.166   5.106  0.1031  0.0634  0.1119
17915TIP3    H175160   4.592   0.219   5.046  1.8348 -1.3627  0.2402
17915TIP3    H275161   4.535   0.218   5.186  0.1836  0.8073 -0.3614
17916TIP3   OH275162   0.999   2.086   4.627 -0.0444  0.1915 -0.0227
17916TIP3    H175163   0.916   2.112   4.587 -0.0255  0.4592  0.1085
17916TIP3    H275164   0.975   2.019   4.691  0.0773 -1.2810 -1.4374
17917TIP3   OH275165   3.405   5.237  15.220  0.1260  0.5753  0.2580
17917TIP3    H175166   3.326   5.192  15.250  0.6276 -0.0204  0.7267
17917TIP3    H275167   3.476   5.198  15.273  0.6186  1.7033  0.4541
17918TIP3   OH275168   6.194   3.183  14.045 -0.7569  0.0355  0.3670
17918TIP3    H175169   6.236   3.169  13.959  2.4544  0.9085  1.6638
17918TIP3    H275170   6.216   3.104  14.095  0.4406  1.0367  1.4667
17919TIP3   OH275171   1.278   5.032  11.098  0.2387  0.0162  0.0134
17919TIP3    H175172   1.281   5.087  11.019 -2.6783  0.3493 -0.0011
17919TIP3    H275173   1.196   5.057  11.141  0.9610 -1.2919  2.3391
17920TIP3   OH275174   0.193   2.408   0.103 -0.7819 -0.1498  0.3537
17920TIP3    H175175   0.170   2.499   0.121 -1.1789 -0.1219 -0.2570
17920TIP3    H275176   0.266   2.389   0.162 -1.7274  0.0614  1.6348
17921TIP3   OH275177   2.146   2.317   2.632  0.0438  0.2405 -0.2071
17921TIP3    H175178   2.141   2.327   2.727  1.1904 -0.7720 -0.0203
17921TIP3    H275179   2.209   2.247   2.618 -1.1079 -0.5566 -1.6837
17922TIP3   OH275180   5.951   6.577  16.564  0.4083  0.1346 -0.5350
17922TIP3    H175181   5.894   6.586  16.488 -2.0990  0.4614  1.2761
17922TIP3    H275182   6.014   6.510  16.539 -0.7112 -0.1928 -2.6707
17923TIP3   OH275183   4.578   4.653  16.034 -0.5410  0.3754  0.3324
17923TIP3    H175184   4.626   4.580  15.996 -0.6734  0.4983 -0.0763
17923TIP3    H275185   4.644   4.721  16.048 -0.3787  0.1075  0.9129
17924TIP3   OH275186   4.517   1.725  14.026 -0.1185 -0.2267 -0.1342
17924TIP3    H175187   4.453   1.784  13.987 -1.0938 -0.4930  0.9984
17924TIP3    H275188   4.574   1.782  14.077 -0.6445 -0.1649  0.4048
17925TIP3   OH275189   5.894   5.828  11.774 -0.3899 -0.3050 -0.4992
17925TIP3    H175190   5.904   5.745  11.726 -0.3749 -0.1436 -0.7779
17925TIP3    H275191   5.937   5.811  11.858  1.6167  0.1071 -1.3667
17926TIP3   OH275192   3.019   3.025   5.810 -0.0733  0.2039 -0.1841
17926TIP3    H175193   3.063   2.964   5.751 -0.1813  0.6722 -0.7524
17926TIP3    H275194   3.056   3.006   5.896 -1.3909 -1.9236 -0.0140
17927TIP3   OH275195   4.421   0.826  14.827  0.4754  0.8000 -0.2334
17927TIP3    H175196   4.497   0.862  14.872  0.9068  2.2158 -1.9823
17927TIP3    H275197   4.458   0.767  14.762 -0.0730 -0.2580  0.3849
17928TIP3   OH275198   4.760   5.042   2.463 -0.6004  0.5099 -0.1376
17928TIP3    H175199   4.768   5.129   2.502 -0.1916  0.5612 -0.3360
17928TIP3    H275200   4.683   5.049   2.405 -0.1366  0.9571 -0.7179
17929TIP3   OH275201   5.548   3.759  12.393  0.2333  0.3892 -0.6460
17929TIP3    H175202   5.457   3.783  12.413  0.1007 -1.5365  1.3796
17929TIP3    H275203   5.541   3.673  12.352  1.2031 -0.7801  1.4991
17930TIP3   OH275204   0.218   3.240  11.035  0.4170 -0.0934 -0.2766
17930TIP3    H175205   0.130   3.272  11.058 -0.1653 -1.4411 -0.5196
17930TIP3    H275206   0.251   3.200  11.116  1.3298  1.4519  0.1561
17931TIP3   OH275207   0.884   5.256   0.078 -0.4244  0.8108  0.3963
17931TIP3    H175208   0.930   5.174   0.058 -1.2578  0.6376 -0.9739
17931TIP3    H275209   0.884   5.304  -0.005 -2.6547  0.8193  0.3432
17932TIP3   OH275210   6.680   3.235  12.351  0.5696  0.6309 -0.2568
17932TIP3    H175211   6.761   3.235  12.301 -0.9979 -0.0617 -2.9913
17932TIP3    H275212   6.640   3.319  12.331 -0.3861  0.0781 -0.7337
17933TIP3   OH275213   6.035   2.088   5.531  0.3520 -0.3713 -0.0836
17933TIP3    H175214   6.086   2.013   5.559 -0.8884 -1.2562 -0.1084
17933TIP3    H275215   6.043   2.151   5.603 -0.2035 -1.3354  0.8483
17934TIP3   OH275216   6.391   5.025  11.573 -0.2584  0.6252 -0.1292
17934TIP3    H175217   6.474   5.044  11.529 -0.3456 -0.6065 -0.8914
17934TIP3    H275218   6.324   5.035  11.505 -0.4495 -0.7880 -0.1863
17935TIP3   OH275219   6.062   0.051  16.324  0.5548  0.0567  0.4485
17935TIP3    H175220   6.082   0.052  16.231  1.4690 -0.5422  0.6135
17935TIP3    H275221   6.009  -0.028  16.337 -0.6510  0.8249  0.2446
17936TIP3   OH275222   3.306   4.748   0.719  0.3427 -0.3033  0.1810
17936TIP3    H175223   3.231   4.796   0.684  0.7548  1.2004  1.2546
17936TIP3    H275224   3.272   4.703   0.796  0.2484 -0.7194 -0.1002
17937TIP3   OH275225   6.183   3.640  11.784 -0.6936 -0.2894  0.2358
17937TIP3    H175226   6.190   3.698  11.707 -3.3933 -0.4349 -0.2040
17937TIP3    H275227   6.133   3.691  11.848 -1.5536 -1.4666  0.5293
17938TIP3   OH275228   0.944   5.785   3.299  0.2091  1.3004  0.3902
17938TIP3    H175229   1.005   5.758   3.231 -0.3986  1.4073 -0.2010
17938TIP3    H275230   0.969   5.732   3.375  0.2086  0.3924 -0.2188
17939TIP3   OH275231   5.348   5.238  14.585  0.1963  0.8603 -0.2165
17939TIP3    H175232   5.345   5.333  14.596  1.0145  0.6874  2.2163
17939TIP3    H275233   5.423   5.211  14.638 -0.4670 -1.2072 -0.2604
17940TIP3   OH275234   6.698   4.376  12.758  0.0459  0.2141 -0.3427
17940TIP3    H175235   6.754   4.367  12.681  1.6077  0.6210  0.6841
17940TIP3    H275236   6.759   4.391  12.830 -1.4222  1.1610  0.7784
17941TIP3   OH275237   2.257   5.930  17.250  0.0183 -0.0828  0.4144
17941TIP3    H175238   2.223   5.970  17.330 -1.7095 -1.7771  0.5874
17941TIP3    H275239   2.256   5.836  17.268 -0.8844 -0.5339 -1.7447
17942TIP3   OH275240   1.247   1.471  15.522  0.0910 -0.2616  0.4936
17942TIP3    H175241   1.265   1.539  15.587 -0.1322  0.4960 -0.2171
17942TIP3    H275242   1.327   1.419  15.519  0.0566 -0.3869  1.4556
17943TIP3   OH275243   1.280   0.751   1.346  0.0089 -0.4250  0.4948
17943TIP3    H175244   1.243   0.835   1.373  2.0509  0.8605 -0.5311
17943TIP3    H275245   1.247   0.738   1.257  0.8767  0.0197  0.1074
17944TIP3   OH275246   1.264   0.991   6.058  0.1940  0.2314  0.4800
17944TIP3    H175247   1.312   1.062   6.100  1.6794  0.6255 -1.7158
17944TIP3    H275248   1.262   0.921   6.123  2.4966  0.7583  1.1838
17945TIP3   OH275249   2.145   4.967  13.222 -0.6884 -0.0307 -0.3322
17945TIP3    H175250   2.169   4.938  13.134  0.3376 -0.2040 -0.0121
17945TIP3    H275251   2.186   5.053  13.231  0.2620 -0.5405  0.4059
17946TIP3   OH275252   4.542   2.123   0.131  0.2475 -0.0704 -0.3128
17946TIP3    H175253   4.634   2.102   0.144  0.2144 -0.1297 -0.1687
17946TIP3    H275254   4.505   2.126   0.219  0.6248  2.3238 -0.1672
17947TIP3   OH275255   0.193   5.180   1.742 -0.8059  0.1720 -0.3715
17947TIP3    H175256   0.215   5.264   1.783 -0.7906  0.0635 -0.1528
17947TIP3    H275257   0.102   5.190   1.715 -1.8421 -0.7683  2.3892
17948TIP3   OH275258   0.077   4.091   5.431 -0.0780  0.3061 -0.2657
17948TIP3    H175259   0.050   4.002   5.410  1.3707 -0.7983  2.0842
17948TIP3    H275260   0.167   4.097   5.399 -0.3650  1.1667 -0.9587
17949TIP3   OH275261   4.095   4.583   4.432 -0.1842  0.2865  0.4738
17949TIP3    H175262   4.041   4.504   4.424  0.2678 -0.1116  1.2498
17949TIP3    H275263   4.185   4.551   4.430  0.0773  0.9995 -1.4045
17950TIP3   OH275264   5.922   4.304   4.155 -0.6252 -0.1281  0.1062
17950TIP3    H175265   5.953   4.215   4.141 -0.4015 -0.0601  0.1630
17950TIP3    H275266   5.916   4.342   4.068  0.8802  0.3335  0.1764
17951TIP3   OH275267   2.896   1.689   2.147  0.1421 -0.5510 -0.2974
17951TIP3    H175268   2.879   1.752   2.216  1.1821 -1.9591  1.3115
17951TIP3    H275269   2.867   1.605   2.183  0.7317 -1.3351 -1.5522
17952TIP3   OH275270   2.380   3.691   5.081 -0.1980  0.1673  0.4204
17952TIP3    H175271   2.417   3.771   5.117 -1.7328  1.6196 -1.0792
17952TIP3    H275272   2.434   3.672   5.005 -1.8747  1.8332 -1.2916
17953TIP3   OH275273   0.447   2.863  15.869  0.4467  0.4092  0.0022
17953TIP3    H175274   0.390   2.802  15.822  0.4669 -0.4268  1.0268
17953TIP3    H275275   0.391   2.901  15.937  0.9024  0.1591  0.5280
17954TIP3   OH275276   5.560   1.705   0.595 -0.2401 -0.3311 -0.2804
17954TIP3    H175277   5.544   1.720   0.688 -0.3398 -0.7986 -0.2180
17954TIP3    H275278   5.519   1.779   0.550 -0.4270 -0.2465  0.0314
17955TIP3   OH275279   2.277   3.491  14.835  0.3668  0.4656  0.4316
17955TIP3    H175280   2.362   3.533  14.836 -0.3648  2.0341  0.0909
17955TIP3    H275281   2.294   3.403  14.801  1.6190  1.2981 -1.2407
17956TIP3   OH275282   4.519   3.912   0.506  0.0847  0.7820 -0.1717
17956TIP3    H175283   4.439   3.893   0.458  0.6030  0.8309 -1.0807
17956TIP3    H275284   4.556   3.826   0.527 -1.5381  0.6752  2.6232
17957TIP3   OH275285   6.525   0.793  13.251 -0.2673  0.0636  0.7980
17957TIP3    H175286   6.453   0.846  13.218 -2.4785 -2.4517  1.2885
17957TIP3    H275287   6.559   0.843  13.325 -0.7835  1.7942 -0.0827
17958TIP3   OH275288   3.150   4.491  17.184 -0.2041 -0.5493  0.2408
17958TIP3    H175289   3.194   4.406  17.183 -0.4713 -0.6970 -0.9698
17958TIP3    H275290   3.064   4.473  17.146 -1.7909 -0.4816  3.5133
17959TIP3   OH275291   3.562   4.012   3.814  0.1061 -0.6835 -0.3630
17959TIP3    H175292   3.639   4.064   3.835 -0.6877  1.1614 -1.7558
17959TIP3    H275293   3.527   3.986   3.899  1.2376 -0.0118  0.3402
17960TIP3   OH275294   3.640   1.050   5.964 -0.4000  0.5727 -0.3743
17960TIP3    H175295   3.624   1.070   5.872 -0.9598 -1.7233 -0.8597
17960TIP3    H275296   3.735   1.040   5.970 -0.5102 -2.4043 -1.5657
17961TIP3   OH275297   6.298   0.256   5.207 -0.2883 -0.5355 -0.0429
17961TIP3    H175298   6.350   0.275   5.285 -1.3326  0.8565  0.3422
17961TIP3    H275299   6.280   0.162   5.213  0.0373 -0.5372  1.1458
17962TIP3   OH275300   0.512   4.920  15.732 -0.2370  0.7691 -0.3534
17962TIP3    H175301   0.463   4.999  15.710  0.8722  0.5596 -4.3561
17962TIP3    H275302   0.599   4.952  15.757 -0.2993  0.8672 -0.2624
17963TIP3   OH275303   2.173   6.545   0.184  0.6514 -0.1139  0.1430
17963TIP3    H175304   2.148   6.636   0.168  1.8944  0.5227  1.5277
17963TIP3    H275305   2.223   6.519   0.107 -0.6060 -0.0151 -0.7437
17964TIP3   OH275306   3.030   5.029   1.807  0.7203  0.7247  0.0435
17964TIP3    H175307   3.015   5.092   1.736 -1.3405 -2.2296 -2.3863
17964TIP3    H275308   3.024   4.943   1.765 -2.3053 -1.3273  3.9997
17965TIP3   OH275309   6.477   3.749   2.778  0.0715  0.2423 -0.1588
17965TIP3    H175310   6.489   3.655   2.792  0.6898  0.3471  0.0543
17965TIP3    H275311   6.383   3.762   2.774 -0.1174 -0.0529  2.0988
17966TIP3   OH275312   6.560   4.575   0.162 -0.1139 -0.0490  0.4311
17966TIP3    H175313   6.612   4.654   0.147  1.3868 -0.8494  1.1867
17966TIP3    H275314   6.469   4.606   0.162  0.1925  1.1642 -2.4592
17967TIP3   OH275315   5.689   3.466  17.218  0.3325 -0.1369  0.1948
17967TIP3    H175316   5.749   3.537  17.240  0.4272 -0.0826 -0.2310
17967TIP3    H275317   5.699   3.403  17.289 -0.6096  0.8043  1.1939
17968TIP3   OH275318   1.271   1.975  16.089  0.9416 -0.1837 -0.0556
17968TIP3    H175319   1.273   2.067  16.066 -0.3557 -0.3662 -0.9999
17968TIP3    H275320   1.338   1.966  16.157  1.5548  1.3020 -0.4235
17969TIP3   OH275321   4.101   0.257   6.027  0.1127 -0.0464  0.5086
17969TIP3    H175322   4.113   0.242   6.121 -1.3038 -0.9661  0.5775
17969TIP3    H275323   4.006   0.255   6.015  0.3031 -2.0322 -1.2430
17970TIP3   OH275324   0.182   3.981  15.770  0.2046  1.1633 -0.2702
17970TIP3    H175325   0.179   3.908  15.708  0.2336 -0.0172  1.0995
17970TIP3    H275326   0.100   3.975  15.819  0.4010  1.8057  0.1559
17971TIP3   OH275327   2.175   3.185   2.635 -0.8906  0.0234  0.0910
17971TIP3    H175328   2.105   3.230   2.588 -1.8858  0.5310  1.9331
17971TIP3    H275329   2.196   3.109   2.581 -1.4440  0.9534 -1.4926
17972TIP3   OH275330   4.425   5.774   2.260 -1.0050 -0.1145 -0.2916
17972TIP3    H175331   4.490   5.704   2.265 -0.9540 -0.0543 -0.0989
17972TIP3    H275332   4.343   5.732   2.287 -0.6134  0.3628  1.8397
17973TIP3   OH275333   2.650   4.757  13.449  0.2264 -0.1606 -0.3917
17973TIP3    H175334   2.711   4.825  13.478  1.3067 -1.8685  1.5704
17973TIP3    H275335   2.564   4.798  13.457  0.8120  0.8317  1.3015
17974TIP3   OH275336   0.425   1.216   2.284 -0.3295 -0.3118 -1.0976
17974TIP3    H175337   0.352   1.187   2.337  0.3577 -0.0410  0.0294
17974TIP3    H275338   0.485   1.141   2.281 -0.8510 -0.6965 -2.4135
17975TIP3   OH275339   0.315   6.415   6.636 -0.2364 -0.1861 -0.0792
17975TIP3    H175340   0.240   6.469   6.609  0.1640 -0.0971 -1.0279
17975TIP3    H275341   0.341   6.453   6.721  0.1822  1.2957 -0.8288
17976TIP3   OH275342   2.554   3.926  15.940  0.0987 -0.1401  0.0071
17976TIP3    H175343   2.480   3.982  15.966 -0.6532  0.1407 -2.4540
17976TIP3    H275344   2.626   3.987  15.926  0.0199 -0.0826 -0.1557
17977TIP3   OH275345   3.253   6.504   2.441  0.3227 -0.0549 -0.1154
17977TIP3    H175346   3.272   6.456   2.522  0.9469 -0.6878 -0.6176
17977TIP3    H275347   3.329   6.487   2.385 -0.0896  0.3899 -0.8299
17978TIP3   OH275348   1.142   6.542   4.181  0.1981 -0.4898  0.1604
17978TIP3    H175349   1.130   6.591   4.261  0.3051 -1.0133  0.5048
17978TIP3    H275350   1.081   6.468   4.188 -2.3955  1.2917 -1.8166
17979TIP3   OH275351   1.666   0.119  12.954  0.1033  0.8087 -0.3565
17979TIP3    H175352   1.713   0.048  12.999  0.3616  0.1850 -1.5530
17979TIP3    H275353   1.719   0.137  12.876 -1.9080 -0.3680 -2.1081
17980TIP3   OH275354   6.753   2.315   3.149  0.1206 -0.1926 -0.3702
17980TIP3    H175355   6.737   2.372   3.073 -0.1600  0.0327 -0.1438
17980TIP3    H275356   6.834   2.270   3.128  0.1087 -0.0413 -0.7546
17981TIP3   OH275357   6.354   5.999  13.519 -0.5241  0.6702  0.2750
17981TIP3    H175358   6.326   5.987  13.428 -1.2998 -0.7486  0.6715
17981TIP3    H275359   6.381   5.912  13.548  1.0071  1.3378  1.0186
17982TIP3   OH275360   2.762   4.454   4.758  0.6462 -0.4391  0.4938
17982TIP3    H175361   2.769   4.548   4.746  1.3385 -0.2247  2.3220
17982TIP3    H275362   2.672   4.440   4.787  1.0240 -0.1029  1.9006
17983TIP3   OH275363   3.671   3.416  14.564  0.3914 -0.1338 -0.0080
17983TIP3    H175364   3.576   3.406  14.565  0.3255  0.4642  0.3516
17983TIP3    H275365   3.686   3.505  14.596  1.0970 -0.4047  0.4283
17984TIP3   OH275366   0.074   3.337   3.640  0.4482 -0.1226 -0.4021
17984TIP3    H175367  -0.020   3.352   3.634  0.5636  2.3365  1.8459
17984TIP3    H275368   0.105   3.342   3.549 -1.6139 -2.0201 -1.3194
17985TIP3   OH275369   6.467   1.554  14.209  0.1359  0.2708  0.0593
17985TIP3    H175370   6.539   1.528  14.267  1.2325  0.4999 -1.1282
17985TIP3    H275371   6.390   1.510  14.244  1.0243 -0.6678  0.9067
17986TIP3   OH275372   5.479   3.404  12.414  0.2845  0.0041 -0.0975
17986TIP3    H175373   5.495   3.462  12.340 -0.5932  0.8533  0.3517
17986TIP3    H275374   5.542   3.333  12.404 -1.4348 -1.2895 -3.0829
17987TIP3   OH275375   4.212   2.489   4.775  0.0229  0.3472 -0.5525
17987TIP3    H175376   4.128   2.483   4.729 -0.1340  3.5998 -0.9581
17987TIP3    H275377   4.222   2.583   4.794  2.3696 -0.2503  1.8133
17988TIP3   OH275378   2.418   5.177  13.849  0.2654  0.0265  0.4712
17988TIP3    H175379   2.332   5.136  13.847  0.0392  0.4992 -0.7260
17988TIP3    H275380   2.480   5.104  13.842 -0.0587 -0.2793  0.7975
17989TIP3   OH275381   0.884   3.304  13.803  0.1113  0.4114  0.4455
17989TIP3    H175382   0.948   3.330  13.738 -0.7722  1.8666  0.0930
17989TIP3    H275383   0.874   3.209  13.792  1.0502  0.4107 -0.5197
17990TIP3   OH275384   3.345   5.563  12.489 -0.7361 -0.3627 -0.1861
17990TIP3    H175385   3.334   5.479  12.534 -0.2872 -0.2938  0.0576
17990TIP3    H275386   3.297   5.552  12.406  1.6178 -1.9114 -1.4769
17991TIP3   OH275387   3.237   3.494  12.461 -0.2884 -0.3006  0.0353
17991TIP3    H175388   3.280   3.529  12.383  0.5200 -2.0629 -0.3675
17991TIP3    H275389   3.306   3.446  12.506 -1.6604 -2.8330 -0.3904
17992TIP3   OH275390   1.058   0.472  12.616 -0.6367 -0.0858 -0.0150
17992TIP3    H175391   0.980   0.525  12.603 -0.0706  0.5527 -0.8882
17992TIP3    H275392   1.067   0.466  12.711 -1.0007  0.9659  0.1014
17993TIP3   OH275393   1.269   1.906   0.716  0.1711 -0.0177 -0.3244
17993TIP3    H175394   1.324   1.955   0.776  0.7670  0.3002 -1.1276
17993TIP3    H275395   1.179   1.928   0.743  0.4294  0.3036  0.2922
17994TIP3   OH275396   2.693   1.944   5.645  0.6489  0.5596 -0.0833
17994TIP3    H175397   2.773   1.962   5.695  0.6526 -0.7380  0.4296
17994TIP3    H275398   2.630   1.917   5.711  0.6623 -1.2396 -0.7476
17995TIP3   OH275399   0.793   3.805   5.351 -0.1706 -0.4954  0.3137
17995TIP3    H175400   0.873   3.802   5.404 -0.5915 -0.9148  0.9407
17995TIP3    H275401   0.797   3.890   5.307  1.4024 -1.1366 -0.9167
17996TIP3   OH275402   0.786   0.929   3.225 -0.2059 -0.2648 -0.4405
17996TIP3    H175403   0.790   0.953   3.318  1.5799  0.4238 -0.6637
17996TIP3    H275404   0.753   1.008   3.182  0.4317 -0.0627 -0.5604
17997TIP3   OH275405   5.463   0.028  12.032  0.4143  0.0690 -0.0227
17997TIP3    H175406   5.537   0.080  11.999 -0.5351  2.4913  1.4234
17997TIP3    H275407   5.386   0.081  12.012 -0.8456 -1.8002 -0.3283
17998TIP3   OH275408   0.994   0.059   5.972 -0.0778 -0.1474  0.1771
17998TIP3    H175409   0.984  -0.016   6.030  0.6958  0.1746  0.7380
17998TIP3    H275410   1.085   0.057   5.944 -0.3972 -0.2009 -0.9096
17999TIP3   OH275411   5.239   3.622  13.185 -0.0887  0.0372 -0.1365
17999TIP3    H175412   5.272   3.558  13.123 -1.0786  0.5774 -1.2689
17999TIP3    H275413   5.311   3.684  13.196 -0.0950  0.2710 -1.2440
18000TIP3   OH275414   4.819   0.731   6.012  0.0185  0.2913 -0.2118
18000TIP3    H175415   4.877   0.785   5.958  1.0760 -1.2719 -0.7192
18000TIP3    H275416   4.875   0.662   6.046 -0.8531  0.6327  2.0985
18001TIP3   OH275417   0.800   6.176  15.735 -0.5034 -0.2199 -0.2452
18001TIP3    H175418   0.892   6.160  15.715 -0.7790 -1.3661 -0.6470
18001TIP3    H275419   0.802   6.246  15.801  0.6117  0.3127 -0.8109
18002TIP3   OH275420   1.240   0.657   1.097 -0.7058 -0.5092 -0.2666
18002TIP3    H175421   1.326   0.675   1.059 -1.0336  0.1527 -0.7123
18002TIP3    H275422   1.208   0.580   1.051  0.1225 -1.4580  0.6918
18003TIP3   OH275423   2.366   0.966  10.564 -0.1598 -0.0324  0.2519
18003TIP3    H175424   2.310   0.888  10.555 -0.8370  0.6145 -1.8705
18003TIP3    H275425   2.455   0.931  10.567 -0.4938 -0.9374  0.0633
18004TIP3   OH275426   1.354   1.787  11.096  0.0950 -0.0628 -0.2422
18004TIP3    H175427   1.284   1.853  11.102 -0.7663 -0.9054 -0.6805
18004TIP3    H275428   1.348   1.739  11.178  0.0211 -0.2680 -0.3670
18005TIP3   OH275429   0.068   6.390   1.715 -0.1791  0.4463 -0.2088
18005TIP3    H175430  -0.019   6.430   1.716  0.9751  3.3710 -2.3307
18005TIP3    H275431   0.125   6.455   1.758  1.3587 -0.1478 -1.2388
18006TIP3   OH275432   1.181   2.129  15.402 -0.0190  0.1874 -0.0983
18006TIP3    H175433   1.218   2.136  15.314  0.9668  0.5542  0.3266
18006TIP3    H275434   1.089   2.107  15.388  0.2229 -0.1850 -1.2088
18007TIP3   OH275435   0.164   0.523   1.884  0.2507  0.2708 -0.1187
18007TIP3    H175436   0.234   0.475   1.840 -2.3624 -1.9235 -2.2509
18007TIP3    H275437   0.116   0.456   1.933 -1.2265  1.3952  0.0447
18008TIP3   OH275438   5.378   6.321   1.286  0.3631  0.3243 -0.0689
18008TIP3    H175439   5.457   6.354   1.330  0.9623 -2.0077  0.7213
18008TIP3    H275440   5.400   6.322   1.193  1.7402 -1.2482  0.2130
18009TIP3   OH275441   0.846   2.442   5.203  0.7046  0.2880 -0.2194
18009TIP3    H175442   0.828   2.377   5.136 -0.1354 -2.4713  2.4552
18009TIP3    H275443   0.775   2.505   5.196 -1.3614 -1.8679  0.1888
18010TIP3   OH275444   2.354   1.289   1.460 -0.1479  0.4494 -0.3168
18010TIP3    H175445   2.398   1.277   1.544  1.6247 -0.0345 -1.2654
18010TIP3    H275446   2.261   1.295   1.482  0.1799 -0.6548  1.5755
18011TIP3   OH275447   0.503   6.415  16.167  0.1507 -0.2964  0.3644
18011TIP3    H175448   0.550   6.490  16.201 -0.4578  0.8582 -1.1936
18011TIP3    H275449   0.442   6.391  16.236 -0.2517  1.2247  0.5759
18012TIP3   OH275450   2.692   3.579  11.829  0.2204  0.3314 -0.1958
18012TIP3    H175451   2.608   3.545  11.860  0.4953 -0.6236 -0.4499
18012TIP3    H275452   2.707   3.658  11.881 -1.0613  0.7913 -0.4895
18013TIP3   OH275453   3.927   3.897   4.929  0.2193  0.7444 -0.4882
18013TIP3    H175454   3.909   3.973   4.985 -2.6899 -1.3277  1.6475
18013TIP3    H275455   4.015   3.869   4.954 -0.5213  0.6244  2.2845
18014TIP3   OH275456   2.260   0.871  16.338  0.2488  0.5615 -0.0249
18014TIP3    H175457   2.280   0.783  16.370  1.0626  0.1460 -1.6048
18014TIP3    H275458   2.231   0.858  16.248 -0.9082  1.8067  0.1370
18015TIP3   OH275459   1.552   0.185   5.835  0.6835  0.1004  0.0067
18015TIP3    H175460   1.461   0.195   5.865  1.1471  2.7169  0.7112
18015TIP3    H275461   1.551   0.216   5.745  0.9933  0.7306  0.2182
18016TIP3   OH275462   2.726   6.237  13.117 -0.6002 -0.1083 -0.3041
18016TIP3    H175463   2.712   6.149  13.151 -0.7574  0.6769  1.8171
18016TIP3    H275464   2.637   6.273  13.108 -0.4942  0.3326  0.3263
18017TIP3   OH275465   4.411   3.978  11.096 -0.1036 -0.2374  0.3710
18017TIP3    H175466   4.416   3.884  11.078  0.9984  0.0279 -0.9055
18017TIP3    H275467   4.409   4.019  11.009  0.3177  0.9632  0.9017
18018TIP3   OH275468   0.002   4.829   1.223 -0.3541  0.4231  0.0237
18018TIP3    H175469   0.019   4.900   1.161 -0.7893 -0.3875 -1.0506
18018TIP3    H275470  -0.084   4.849   1.259  0.3203  1.4414  1.1706
18019TIP3   OH275471   2.064   3.110   4.589 -0.5292 -0.8371  0.2571
18019TIP3    H175472   2.025   3.147   4.668 -0.1479 -0.7527  0.4075
18019TIP3    H275473   2.156   3.137   4.592 -0.8910  0.7015 -1.1310
18020TIP3   OH275474   4.093   6.060   4.044  0.1205  0.2368 -0.4705
18020TIP3    H175475   4.169   6.005   4.062  0.5649  0.7695 -0.6690
18020TIP3    H275476   4.059   6.084   4.130 -0.4610 -0.8544 -0.3817
18021TIP3   OH275477   2.671   5.423  12.222  0.0314 -0.2118  0.1525
18021TIP3    H175478   2.738   5.422  12.154  0.8063 -0.1088  0.8943
18021TIP3    H275479   2.720   5.420  12.304 -0.9160 -1.4033  0.7005
18022TIP3   OH275480   2.529   3.940  11.814  0.1131  0.3935 -0.3209
18022TIP3    H175481   2.519   4.034  11.825  2.1800  0.7219 -0.9629
18022TIP3    H275482   2.566   3.929  11.726  0.8781 -0.9315  0.1284
18023TIP3   OH275483   3.504   0.690  12.186  0.4544 -0.1373  0.1139
18023TIP3    H175484   3.470   0.637  12.114  2.3812 -0.1481 -0.8441
18023TIP3    H275485   3.571   0.745  12.146  0.3196  1.1759  1.5862
18024TIP3   OH275486   0.779   3.991  15.542  0.2709 -0.2232 -0.1563
18024TIP3    H175487   0.806   3.903  15.569 -0.7677 -1.0155 -1.5666
18024TIP3    H275488   0.691   3.978  15.506 -0.3938  1.6012  0.6961
18025TIP3   OH275489   4.478   6.723   4.398 -0.1338  0.7512 -0.0778
18025TIP3    H175490   4.388   6.693   4.412  0.1541 -0.1200 -0.0482
18025TIP3    H275491   4.511   6.668   4.326  0.9009 -0.0737  0.9850
18026TIP3   OH275492   2.327   5.793   2.012  0.6125 -0.0049  0.3548
18026TIP3    H175493   2.313   5.716   1.958 -2.4351 -0.7601  1.9814
18026TIP3    H275494   2.421   5.794   2.030  0.9401 -2.5312 -0.8281
18027TIP3   OH275495   6.553   6.388   2.757 -0.1500 -0.4461  0.0815
18027TIP3    H175496   6.572   6.311   2.704  2.4895 -0.1995  0.5488
18027TIP3    H275497   6.577   6.462   2.701 -3.0203  0.1592 -0.5155
18028TIP3   OH275498   1.669   4.672   5.227 -0.2201  0.0757  0.3010
18028TIP3    H175499   1.731   4.726   5.277  0.6076  0.3173 -0.9256
18028TIP3    H275500   1.625   4.734   5.169  1.2141 -0.5700 -1.5999
18029TIP3   OH275501   0.243   4.550  12.651  0.2214 -0.5494 -0.5625
18029TIP3    H175502   0.183   4.621  12.629  0.4137 -0.7702 -1.8968
18029TIP3    H275503   0.212   4.475  12.601  0.3539 -1.2558  0.3984
18030TIP3   OH275504   3.814   1.076  16.503  0.3276  0.0256  0.3502
18030TIP3    H175505   3.819   1.171  16.490 -0.5673  0.2964  1.7788
18030TIP3    H275506   3.898   1.053  16.544  0.1000  0.4045  1.0522
18031TIP3   OH275507   4.266   1.389   4.660  0.6594 -0.3867 -0.0054
18031TIP3    H175508   4.287   1.312   4.607 -1.8971 -0.3476 -1.2551
18031TIP3    H275509   4.309   1.462   4.616 -1.3039 -0.3707 -2.0942
18032TIP3   OH275510   0.396   4.271   2.358 -0.8520  0.1505 -0.4297
18032TIP3    H175511   0.450   4.257   2.281 -0.1239  0.9676 -0.0915
18032TIP3    H275512   0.380   4.366   2.359  2.4775  0.9136  2.4709
18033TIP3   OH275513   1.212   1.942   1.335  0.6599 -0.4608 -0.2016
18033TIP3    H175514   1.280   1.963   1.399  0.9699 -2.5637  0.2323
18033TIP3    H275515   1.169   1.864   1.370 -0.2915 -0.6738 -1.7352
18034TIP3   OH275516   3.676   3.575   0.007 -0.3779 -0.2716  0.2957
18034TIP3    H175517   3.628   3.597  -0.073  1.7196  0.5262 -0.8125
18034TIP3    H275518   3.648   3.486   0.029 -1.0432 -0.4751 -1.2817
18035TIP3   OH275519   3.370   5.395   3.500 -0.0805  0.6553  0.2439
18035TIP3    H175520   3.283   5.433   3.486 -1.1921 -1.7780  0.0046
18035TIP3    H275521   3.379   5.391   3.596 -0.3977  0.5980  0.2737
18036TIP3   OH275522   1.486   0.734   4.721 -0.1864 -0.5924 -0.0048
18036TIP3    H175523   1.552   0.666   4.734  0.1577 -0.6764 -1.8331
18036TIP3    H275524   1.407   0.686   4.695  0.1468 -0.3461 -1.6233
18037TIP3   OH275525   2.527   0.481  14.853 -0.1943  0.3587  0.1285
18037TIP3    H175526   2.578   0.421  14.800  0.0537  0.8575 -0.2006
18037TIP3    H275527   2.583   0.558  14.865  0.6175 -0.5422  2.8658
18038TIP3   OH275528   3.545   3.377  17.021  0.5063  0.2904  0.0369
18038TIP3    H175529   3.528   3.285  16.999  0.3485 -0.0980  1.6659
18038TIP3    H275530   3.487   3.395  17.095  1.1219  1.4580  0.2531
18039TIP3   OH275531   3.176   1.542   0.103 -0.5132 -0.6642 -0.2381
18039TIP3    H175532   3.094   1.565   0.060 -0.5476  2.3382  1.1655
18039TIP3    H275533   3.152   1.469   0.161 -1.8469 -0.8107 -0.9300
18040TIP3   OH275534   1.932   3.598  15.063  0.1316 -0.1443  1.1055
18040TIP3    H175535   2.018   3.635  15.085  1.0397 -1.2931 -0.2882
18040TIP3    H275536   1.918   3.531  15.130  1.2165 -1.2002  0.3255
18041TIP3   OH275537   6.283   0.276   1.101  0.3440  0.0160  0.0572
18041TIP3    H175538   6.370   0.295   1.136  0.8287 -0.9011 -0.6080
18041TIP3    H275539   6.299   0.216   1.027 -0.8914 -0.7690  0.3888
18042TIP3   OH275540   6.229   2.294   2.666  0.4673  0.0999 -0.0162
18042TIP3    H175541   6.155   2.354   2.656 -0.5241 -1.1780 -0.5386
18042TIP3    H275542   6.244   2.290   2.761 -0.3104  0.1710  0.1148
18043TIP3   OH275543   0.287   5.448   2.424  0.1740  0.0777  0.7927
18043TIP3    H175544   0.206   5.405   2.452  0.3873  0.0912  1.4630
18043TIP3    H275545   0.304   5.513   2.492  1.4247 -0.7982  1.3720
18044TIP3   OH275546   5.829   1.893  14.599  0.2625  0.2284 -0.2401
18044TIP3    H175547   5.923   1.911  14.595  0.4167 -0.6111 -0.5165
18044TIP3    H275548   5.818   1.812  14.549 -0.7073  0.7013 -0.8083
18045TIP3   OH275549   3.450   3.376  15.106 -0.2246  0.1653  0.3291
18045TIP3    H175550   3.469   3.382  15.200  1.6345  1.2424 -0.0548
18045TIP3    H275551   3.510   3.308  15.075  0.8816  1.4271 -0.4183
18046TIP3   OH275552   4.794   6.430  15.480 -0.1925  0.9422 -0.3505
18046TIP3    H175553   4.830   6.438  15.569 -0.6944 -0.0348 -0.0522
18046TIP3    H275554   4.796   6.520  15.446  0.2709  1.2870  0.5399
18047TIP3   OH275555   1.949   5.197   5.116  0.0713 -0.3253  0.3780
18047TIP3    H175556   1.913   5.281   5.143 -0.5311 -0.5242  0.2038
18047TIP3    H275557   1.962   5.205   5.021  2.0703  0.3303  0.6506
18048TIP3   OH275558   6.566   6.675   2.910  0.0709  0.4473 -0.0235
18048TIP3    H175559   6.579   6.624   2.830 -1.3711  0.6826 -0.4325
18048TIP3    H275560   6.569   6.610   2.980  0.0044  0.0513 -0.3842
18049TIP3   OH275561   0.757   0.021  11.288 -0.3795 -0.2597  1.1558
18049TIP3    H175562   0.839  -0.028  11.284 -0.7357 -0.8800  1.1404
18049TIP3    H275563   0.747   0.043  11.381  0.2907  0.6990  1.0173
18050TIP3   OH275564   0.829   4.809  15.386  0.3163 -0.3585  0.1266
18050TIP3    H175565   0.780   4.799  15.303 -1.1529  0.3595  0.8620
18050TIP3    H275566   0.847   4.903  15.391  2.5821 -0.7047 -0.5239
18051TIP3   OH275567   6.282   0.753   2.516 -0.0485 -0.2820  0.4058
18051TIP3    H175568   6.278   0.697   2.439  0.4795 -0.9253  0.8276
18051TIP3    H275569   6.329   0.831   2.487  1.4534 -1.1339  0.4136
18052TIP3   OH275570   1.209   1.225   0.219  0.1021  0.4572 -0.2345
18052TIP3    H175571   1.193   1.161   0.149 -0.9211  0.8849 -0.4082
18052TIP3    H275572   1.300   1.252   0.206  0.3736 -0.5618 -0.4900
18053TIP3   OH275573   0.471   3.333   3.107 -0.1238  0.4957  0.3332
18053TIP3    H175574   0.479   3.396   3.035 -1.8529  0.3605 -0.0381
18053TIP3    H275575   0.549   3.279   3.100  0.6984  1.7078 -0.2196
18054TIP3   OH275576   2.595   4.803  14.065  0.0002 -0.1428 -0.0374
18054TIP3    H175577   2.531   4.826  14.132  0.2427 -1.6271  0.7619
18054TIP3    H275578   2.679   4.805  14.111  0.5161  1.4649 -0.9910
18055TIP3   OH275579   3.912   2.293  11.407  0.6864 -0.4604  0.1780
18055TIP3    H175580   4.000   2.262  11.429  1.7407 -0.1146 -3.1478
18055TIP3    H275581   3.923   2.345  11.328 -2.5325 -0.4166 -0.3751
18056TIP3   OH275582   3.753   2.583   3.716 -0.4229 -0.0173 -0.1486
18056TIP3    H175583   3.725   2.524   3.645 -2.0213 -0.5314  0.8429
18056TIP3    H275584   3.843   2.557   3.735 -0.7732 -1.5267 -0.3925
18057TIP3   OH275585   3.223   5.239   5.127  1.3605  0.9393 -0.0045
18057TIP3    H175586   3.164   5.276   5.062  0.0308  1.6688  1.5433
18057TIP3    H275587   3.202   5.145   5.128 -0.1797  1.2643  0.8836
18058TIP3   OH275588   5.457   1.631   3.181  0.2793  0.0261 -0.3756
18058TIP3    H175589   5.417   1.662   3.262 -0.6568 -0.2688 -0.7028
18058TIP3    H275590   5.462   1.709   3.126  0.5373  0.1474 -0.1788
18059TIP3   OH275591   0.967   1.411  15.046  0.4773  0.0549 -0.0088
18059TIP3    H175592   0.950   1.494  15.002  0.7168  0.6190  0.9203
18059TIP3    H275593   0.880   1.372  15.058  0.1799  0.9502  0.9794
18060TIP3   OH275594   5.010   6.355  14.763  0.9853  1.0134 -0.2329
18060TIP3    H175595   4.997   6.342  14.857  1.1519  0.8321 -0.2350
18060TIP3    H275596   5.050   6.273  14.733  0.4230  0.8481 -0.5575
18061TIP3   OH275597   5.039   5.726   5.782  0.0924  0.3556  0.1074
18061TIP3    H175598   4.949   5.693   5.774 -0.1273  1.0616 -0.3480
18061TIP3    H275599   5.060   5.712   5.875  0.1887 -1.4911 -0.1431
18062TIP3   OH275600   2.270   4.799   2.426  0.2561 -0.4240 -0.1303
18062TIP3    H175601   2.271   4.846   2.343  4.1311  3.1360  1.5384
18062TIP3    H275602   2.192   4.831   2.471  1.7632  3.3880  0.1616
18063TIP3   OH275603   3.258   3.902  13.661  0.1792 -0.6083  0.0972
18063TIP3    H175604   3.304   3.907  13.576  0.1933 -0.4880  0.1119
18063TIP3    H275605   3.286   3.818  13.698 -1.9261 -2.0101 -1.2342
18064TIP3   OH275606   1.535   2.896   1.887 -0.8627 -0.0050  0.1383
18064TIP3    H175607   1.473   2.882   1.959  0.5050 -0.0218  1.3481
18064TIP3    H275608   1.509   2.831   1.821 -2.4364  0.3247  0.3967
18065TIP3   OH275609   6.413   6.754  15.797 -0.3358 -0.2177  0.3684
18065TIP3    H175610   6.360   6.674  15.791  0.8351 -0.9354 -2.2150
18065TIP3    H275611   6.503   6.722  15.798  0.1427  1.0443  2.4208
18066TIP3   OH275612   2.078   3.445   2.194  0.1837  0.4923 -0.1532
18066TIP3    H175613   2.057   3.358   2.227  0.3276  0.4075 -0.2854
18066TIP3    H275614   1.993   3.487   2.180  0.1180  0.5506  0.3777
18067TIP3   OH275615   5.821   6.002   1.640 -1.0916  0.0829  0.1718
18067TIP3    H175616   5.852   5.922   1.598  0.5193  0.3170  0.8152
18067TIP3    H275617   5.898   6.035   1.687 -2.5996  0.1794  2.7625
18068TIP3   OH275618   3.711   6.493  14.541 -0.0864 -0.1678 -0.1768
18068TIP3    H175619   3.731   6.542  14.461 -0.5817 -0.2992 -0.3805
18068TIP3    H275620   3.758   6.410  14.531 -2.1382 -1.2592 -1.5007
18069TIP3   OH275621   5.041   0.403   6.212 -0.4419  0.1010  0.6172
18069TIP3    H175622   5.057   0.350   6.290  0.2649 -0.7688 -0.1044
18069TIP3    H275623   5.098   0.479   6.223 -0.4187  0.0356  0.9767
18070TIP3   OH275624   2.768   0.100   4.623 -0.2466  0.5866  0.1131
18070TIP3    H175625   2.859   0.072   4.639 -0.4641  0.5015  1.2982
18070TIP3    H275626   2.729   0.103   4.710 -0.4701  3.9042  0.0089
18071TIP3   OH275627   2.079   3.545   0.545 -0.2464 -0.2551 -0.0767
18071TIP3    H175628   2.002   3.511   0.590  0.6072  0.0628  1.7527
18071TIP3    H275629   2.100   3.626   0.592  3.4127 -2.2349  2.1878
18072TIP3   OH275630   3.403   3.015   1.915 -0.5774 -0.2340 -0.0147
18072TIP3    H175631   3.319   3.003   1.960 -0.9713  0.5812 -0.5076
18072TIP3    H275632   3.468   2.981   1.976 -1.3866 -2.5180 -0.3414
18073TIP3   OH275633   6.080   5.472  13.472  0.1930 -0.4753  0.2900
18073TIP3    H175634   6.096   5.501  13.382 -0.6203  0.0345  0.2975
18073TIP3    H275635   6.137   5.528  13.525 -0.6571  0.4813  0.2265
18074TIP3   OH275636   5.575   5.860   4.962 -0.3473  0.2846  0.3269
18074TIP3    H175637   5.627   5.929   4.922 -0.0931 -0.5127 -0.7665
18074TIP3    H275638   5.637   5.813   5.018 -0.5244  0.9367  1.0808
18075TIP3   OH275639   2.540   6.280  15.956  0.3964 -0.1986 -0.2061
18075TIP3    H175640   2.625   6.324  15.954  1.3175 -1.8655  0.2981
18075TIP3    H275641   2.519   6.266  15.864  0.8072 -0.0394 -0.3295
18076TIP3   OH275642   6.714   0.649   3.399  0.4116 -1.5421  0.1425
18076TIP3    H175643   6.734   0.584   3.467  0.9788  0.0524  1.5581
18076TIP3    H275644   6.643   0.609   3.349  1.0962 -3.4881  0.6056
18077TIP3   OH275645   2.812   3.805  15.117  0.2120 -0.1481  0.5530
18077TIP3    H175646   2.898   3.768  15.096  1.2053  1.5856  1.3600
18077TIP3    H275647   2.764   3.733  15.156  1.4583 -1.0371  0.5189
18078TIP3   OH275648   2.945   3.546  16.759 -0.3176 -0.1680  0.6918
18078TIP3    H175649   2.873   3.514  16.705  0.7078  0.7486 -1.3257
18078TIP3    H275650   3.021   3.497  16.728  0.1557 -0.2327  1.9219
18079TIP3   OH275651   6.019   5.801   4.080  0.6629  0.3790  0.0953
18079TIP3    H175652   6.003   5.733   4.145 -0.2097  0.2603 -0.2234
18079TIP3    H275653   5.939   5.854   4.080  0.7202  0.4796 -0.7478
18080TIP3   OH275654   4.814   0.655   0.841 -0.5632  0.1159  0.6334
18080TIP3    H175655   4.807   0.618   0.752  1.2074  0.4899  0.3035
18080TIP3    H275656   4.767   0.738   0.836  0.6149  0.7717 -0.3799
18081TIP3   OH275657   4.665   0.404   2.418 -0.8547 -0.0286  0.9015
18081TIP3    H175658   4.755   0.402   2.449 -0.6379 -1.5074  0.2674
18081TIP3    H275659   4.645   0.313   2.396 -2.7312  0.1484  1.6553
18082TIP3   OH275660   1.768   4.454  14.017  0.4878  0.3318  0.0852
18082TIP3    H175661   1.803   4.427  13.932  2.5486 -0.0108  0.9784
18082TIP3    H275662   1.836   4.511  14.053 -0.2755  0.3340  1.5828
18083TIP3   OH275663   2.811   2.477  16.290  0.2576 -0.2862 -1.1790
18083TIP3    H175664   2.786   2.406  16.349  2.3486  0.2360  0.4691
18083TIP3    H275665   2.907   2.475  16.289  0.3389  1.5116 -2.3320
18084TIP3   OH275666   6.172   1.361  11.218 -0.4659 -0.0665  0.0639
18084TIP3    H175667   6.266   1.362  11.199 -0.4970 -0.2160 -0.1023
18084TIP3    H275668   6.166   1.324  11.306 -0.3197  0.6409  0.3819
18085TIP3   OH275669   0.231   3.611   1.238  0.0336  0.5994 -0.1703
18085TIP3    H175670   0.307   3.555   1.251 -1.2509 -1.4400 -0.9168
18085TIP3    H275671   0.240   3.643   1.148 -0.5723 -0.7167 -0.7438
18086TIP3   OH275672   0.145   5.625   4.978 -0.3341  0.4485  0.1307
18086TIP3    H175673   0.080   5.646   4.911 -1.1631 -1.3738  0.3060
18086TIP3    H275674   0.163   5.532   4.966  2.4492  0.9138 -0.0577
18087TIP3   OH275675   4.776   4.645  12.340 -0.3025 -0.5880  0.0599
18087TIP3    H175676   4.785   4.551  12.322  0.5301 -0.4547 -0.2526
18087TIP3    H275677   4.741   4.681  12.258  1.8941 -0.2419 -0.8127
18088TIP3   OH275678   0.168   4.217  16.328  0.7250 -0.2437 -0.2470
18088TIP3    H175679   0.170   4.153  16.257  1.7724 -0.3118 -0.1778
18088TIP3    H275680   0.189   4.166  16.406  1.1871  0.1082 -0.1351
18089TIP3   OH275681   1.629   5.806   1.002 -0.4300  0.2750  0.4366
18089TIP3    H175682   1.602   5.716   0.985  1.2879  0.2081 -2.8120
18089TIP3    H275683   1.557   5.859   0.968 -1.1580  0.1726  1.7658
18090TIP3   OH275684   0.381   4.663  16.096  0.3339 -0.0785  0.4126
18090TIP3    H175685   0.330   4.670  16.015  0.9283  0.3304  0.0660
18090TIP3    H275686   0.392   4.569  16.110  0.0986 -0.1547  0.0969
18091TIP3   OH275687   0.393   2.750   5.043 -0.1996  0.0659 -0.2021
18091TIP3    H175688   0.443   2.679   5.083 -1.2204  0.0591  1.1148
18091TIP3    H275689   0.302   2.732   5.067 -0.5819  1.2755 -0.6812
18092TIP3   OH275690   3.173   0.718   0.841 -0.0793 -0.0936  0.0905
18092TIP3    H175691   3.167   0.636   0.792  1.6298  0.0262 -0.4090
18092TIP3    H275692   3.150   0.786   0.777  0.5205 -0.0516 -0.0849
18093TIP3   OH275693   5.562   3.553  11.498 -0.5510 -0.2976  0.5618
18093TIP3    H175694   5.619   3.495  11.547  0.5923 -0.4844 -0.9057
18093TIP3    H275695   5.602   3.559  11.411 -2.0725  0.5994 -0.1379
18094TIP3   OH275696   5.183   4.700  10.787  0.0984 -0.4892  0.3612
18094TIP3    H175697   5.165   4.632  10.722  2.4848 -1.0155  0.1412
18094TIP3    H275698   5.181   4.654  10.871  0.9727 -0.6972  0.2779
18095TIP3   OH275699   6.315   1.878   0.443  0.0650  0.3150  0.8530
18095TIP3    H175700   6.332   1.971   0.426  0.6760 -0.0358 -0.5425
18095TIP3    H275701   6.401   1.840   0.461  0.0034 -0.2547 -0.0168
18096TIP3   OH275702   5.232   2.422  14.911 -0.1278 -0.5189  0.1873
18096TIP3    H175703   5.313   2.456  14.873 -0.3292 -0.1437  0.0900
18096TIP3    H275704   5.231   2.330  14.887 -0.9725 -0.0077 -1.9983
18097TIP3   OH275705   1.302   6.693   2.429  0.4389 -0.2508  0.2706
18097TIP3    H175706   1.374   6.653   2.379 -0.3112 -0.9707 -0.2816
18097TIP3    H275707   1.298   6.783   2.397  1.0189 -0.2378  0.2203
18098TIP3   OH275708   5.748   0.078   0.255 -0.0190 -0.3688  0.1279
18098TIP3    H175709   5.751   0.008   0.320 -2.3877 -1.6924 -1.0586
18098TIP3    H275710   5.664   0.066   0.210  0.0333  2.5094 -0.9568
18099TIP3   OH275711   5.014   1.781   2.623  0.0841  0.0019 -0.0493
18099TIP3    H175712   5.069   1.707   2.650  1.9135  1.6350  0.9857
18099TIP3    H275713   5.016   1.779   2.528 -1.9157 -2.6458 -0.1384
18100TIP3   OH275714   3.747   3.933  14.011 -0.0794 -0.1059 -0.6134
18100TIP3    H175715   3.709   4.021  14.010 -1.0276 -0.4465  0.9822
18100TIP3    H275716   3.841   3.947  14.002 -0.2854  1.0025 -1.2471
18101TIP3   OH275717   3.723   5.595  15.948  0.6535  0.0558  0.1569
18101TIP3    H175718   3.743   5.506  15.920 -1.8832 -0.5781  0.1012
18101TIP3    H275719   3.687   5.585  16.036 -4.2978  0.2281 -1.5271
18102TIP3   OH275720   6.615   4.794  15.951 -0.0646 -0.4725  0.0669
18102TIP3    H175721   6.650   4.877  15.982 -0.6505 -0.4102  0.5667
18102TIP3    H275722   6.535   4.780  16.002  0.4126 -1.7020  0.5141
18103TIP3   OH275723   6.156   3.185  16.865  0.9102  0.4820 -0.1552
18103TIP3    H175724   6.208   3.152  16.792  1.0747 -0.6872  0.4724
18103TIP3    H275725   6.130   3.107  16.914 -1.0250  1.0737 -0.1615
18104TIP3   OH275726   0.905   0.414   1.577 -0.2580  0.5210 -0.2838
18104TIP3    H175727   0.988   0.462   1.575 -0.3895  0.8763  1.4314
18104TIP3    H275728   0.855   0.448   1.503  1.3015 -0.0936 -1.7052
18105TIP3   OH275729   5.106   0.630  12.858  0.6329 -0.1574  0.5556
18105TIP3    H175730   5.176   0.637  12.793 -0.9748  1.1609 -1.1278
18105TIP3    H275731   5.126   0.698  12.922  1.2096 -0.1890  0.4147
18106TIP3   OH275732   3.876   4.123  12.033 -0.4022 -0.3372  0.6127
18106TIP3    H175733   3.962   4.082  12.025 -0.0727  0.1049  1.7481
18106TIP3    H275734   3.827   4.065  12.091 -0.7654 -0.4066  0.2443
18107TIP3   OH275735   2.409   0.504   6.128 -0.3026 -0.3291  0.0691
18107TIP3    H175736   2.381   0.421   6.167  0.2841  0.3445  2.0410
18107TIP3    H275737   2.406   0.567   6.201 -1.0409  1.4830 -1.4283
18108TIP3   OH275738   0.976   6.128  14.254  0.0265  0.0473  0.4989
18108TIP3    H175739   0.895   6.126  14.203  0.0336  0.7947  0.4485
18108TIP3    H275740   1.003   6.036  14.259  0.5448  0.0239 -1.6671
18109TIP3   OH275741   0.357   3.015  16.494  0.7808 -0.2414 -0.0648
18109TIP3    H175742   0.272   3.050  16.520  0.8806 -0.3727  0.4344
18109TIP3    H275743   0.355   3.018  16.398  0.1420 -0.4281 -0.0606
18110TIP3   OH275744   4.341   2.575  13.522 -0.6395  0.1324  0.0936
18110TIP3    H175745   4.333   2.594  13.616  2.7317  1.5203  0.2227
18110TIP3    H275746   4.350   2.661  13.481  3.2340 -0.5034 -0.7582
18111TIP3   OH275747   3.737   0.536  13.732 -0.3113  0.3053 -0.0269
18111TIP3    H175748   3.745   0.610  13.792  1.3908 -0.3330  0.5765
18111TIP3    H275749   3.708   0.575  13.649  0.9241  1.7035  0.1749
18112TIP3   OH275750   0.695   2.089  13.411 -0.0147  0.2345 -0.1702
18112TIP3    H175751   0.728   2.178  13.422 -0.4437  0.8317 -3.0605
18112TIP3    H275752   0.743   2.038  13.477 -0.6767  2.7326  2.4699
18113TIP3   OH275753   3.453   2.627   6.686  0.5267 -0.4609 -0.8066
18113TIP3    H175754   3.478   2.613   6.594  0.8971 -0.6398 -0.6810
18113TIP3    H275755   3.379   2.687   6.682  0.5838 -0.4155 -1.2211
18114TIP3   OH275756   2.238   0.767  12.841  0.4317 -0.2326  0.0914
18114TIP3    H175757   2.168   0.825  12.871  1.0608  1.6392 -1.7770
18114TIP3    H275758   2.195   0.708  12.779  0.0933 -0.6784  0.7414
18115TIP3   OH275759   1.900   6.373  13.105 -0.5381 -0.2327 -0.0064
18115TIP3    H175760   1.818   6.383  13.153 -0.7030 -0.7015 -0.1796
18115TIP3    H275761   1.968   6.387  13.170 -0.7490  0.8445 -0.0041
18116TIP3   OH275762   3.630   2.854   3.247  0.0649  0.4046 -0.1830
18116TIP3    H175763   3.654   2.774   3.200  0.3631 -0.8701  1.9921
18116TIP3    H275764   3.650   2.835   3.338 -2.7767  1.8164  0.8674
18117TIP3   OH275765   4.740   4.285   4.000  0.5719 -0.5808 -0.1974
18117TIP3    H175766   4.781   4.256   3.918  2.9817 -1.5308  1.2106
18117TIP3    H275767   4.646   4.273   3.986  1.0564 -3.5257 -1.8527
18118TIP3   OH275768   4.725   1.953   3.417 -0.4300 -0.1862 -0.3943
18118TIP3    H175769   4.677   1.874   3.440  0.5266 -1.1272 -1.4606
18118TIP3    H275770   4.809   1.944   3.463 -0.3408  0.2309 -0.4726
18119TIP3   OH275771   0.170   2.113   3.088  0.3388  0.3555  0.1193
18119TIP3    H175772   0.232   2.092   3.158  0.5776  0.0762 -0.1710
18119TIP3    H275773   0.225   2.123   3.010  0.0552  0.4683 -0.0668
18120TIP3   OH275774   2.580   1.431  15.307  0.1999 -0.0315  0.2168
18120TIP3    H175775   2.652   1.395  15.255  0.7004 -0.1227  0.9554
18120TIP3    H275776   2.581   1.525  15.287 -0.5221 -0.2516 -1.0034
18121TIP3   OH275777   0.757   3.357  11.431 -0.2986 -0.0648  0.3787
18121TIP3    H175778   0.745   3.440  11.477 -2.0032 -0.2024  0.2382
18121TIP3    H275779   0.671   3.316  11.432  0.1051 -1.0335 -1.0992
18122TIP3   OH275780   3.763   4.519   0.838 -0.3808 -0.3518 -0.2403
18122TIP3    H175781   3.840   4.551   0.886 -1.1599  0.8222  0.2498
18122TIP3    H275782   3.764   4.568   0.756 -0.6640 -0.2574 -0.1881
18123TIP3   OH275783   0.037   6.604  12.940 -0.6241  0.6241  0.2809
18123TIP3    H175784   0.011   6.697  12.946 -1.8015  0.2694  1.1372
18123TIP3    H275785   0.043   6.576  13.031  1.5005  0.2911  0.0810
18124TIP3   OH275786   0.806   4.361   5.662  0.4783  0.0106  0.6440
18124TIP3    H175787   0.848   4.446   5.651 -2.2578  1.3513 -0.5236
18124TIP3    H275788   0.841   4.327   5.745  2.2443  1.8597  0.7295
18125TIP3   OH275789   3.945   3.111  17.095 -0.4502 -0.4183  0.2686
18125TIP3    H175790   3.988   3.188  17.057 -0.7506 -0.5579 -0.3622
18125TIP3    H275791   3.867   3.146  17.137 -0.5494 -0.3666  0.0423
18126TIP3   OH275792   2.610   2.476  15.365 -0.3121  0.3124 -0.1862
18126TIP3    H175793   2.522   2.447  15.392  0.4209 -1.4870  0.4021
18126TIP3    H275794   2.642   2.527  15.439 -0.6291  0.5129 -0.1809
18127TIP3   OH275795   5.688   5.171   4.663 -0.0420  0.2288 -0.2194
18127TIP3    H175796   5.745   5.128   4.599  0.3408  1.5498 -0.7963
18127TIP3    H275797   5.708   5.127   4.746 -0.3373 -1.3161 -0.9216
18128TIP3   OH275798   1.527   0.575   2.230  0.2091  0.2032 -0.3469
18128TIP3    H175799   1.562   0.629   2.301 -0.7072 -1.2925  1.3279
18128TIP3    H275800   1.590   0.503   2.221  1.3840  1.4099 -2.5075
18129TIP3   OH275801   2.755   3.950   2.678 -0.2837  0.0225  0.2142
18129TIP3    H175802   2.792   3.894   2.747 -0.3403 -0.6157 -0.2713
18129TIP3    H275803   2.719   4.025   2.726 -2.2685 -1.4088  1.1078
18130TIP3   OH275804   1.333   5.056   4.017 -0.5132 -0.5329 -0.2606
18130TIP3    H175805   1.378   4.978   4.048  1.0280 -0.1580 -1.4291
18130TIP3    H275806   1.243   5.026   4.002  0.3827 -2.5936 -2.2453
18131TIP3   OH275807   5.322   3.013  12.569  0.0956 -0.5035 -0.5464
18131TIP3    H175808   5.353   2.934  12.614 -0.8447 -0.8543 -0.4893
18131TIP3    H275809   5.260   2.981  12.503 -1.8469  0.2876  0.8006
18132TIP3   OH275810   6.389   1.521   0.292 -0.3006 -0.0712 -0.4404
18132TIP3    H175811   6.440   1.520   0.211  0.1417 -0.0895 -0.1702
18132TIP3    H275812   6.455   1.518   0.362 -0.6903 -1.4358 -0.0863
18133TIP3   OH275813   2.433   4.007   2.879 -0.7244 -0.1205 -0.0604
18133TIP3    H175814   2.456   4.045   2.795  2.2837 -0.3341  0.5492
18133TIP3    H275815   2.415   3.915   2.860 -0.7966  0.0026 -0.5874
18134TIP3   OH275816   6.379   6.318   1.343  0.2778  0.1643 -0.3061
18134TIP3    H175817   6.348   6.280   1.261  2.5278 -3.2286  0.2310
18134TIP3    H275818   6.394   6.410   1.323  1.3560 -0.6688 -3.9318
18135TIP3   OH275819   2.491   3.475  13.513  0.9274  0.2448 -0.0149
18135TIP3    H175820   2.501   3.383  13.486 -0.6110  0.2327 -0.6313
18135TIP3    H275821   2.513   3.475  13.606  0.5781 -0.8254  0.0790
18136TIP3   OH275822   4.108   0.310   1.251  0.1692  0.2848 -0.0104
18136TIP3    H175823   4.191   0.319   1.298 -0.8619  0.4243  1.8813
18136TIP3    H275824   4.117   0.227   1.204  0.6614 -0.7599  1.8068
18137TIP3   OH275825   5.011   5.631   3.087 -0.2658 -0.0247  0.0836
18137TIP3    H175826   5.066   5.605   3.013  0.0359  0.5574  0.0995
18137TIP3    H275827   5.011   5.727   3.085  0.8235  0.0428  1.6314
18138TIP3   OH275828   6.244   3.647  14.180  0.1534  0.6658 -0.3799
18138TIP3    H175829   6.284   3.585  14.240  0.4537  0.1110 -1.1436
18138TIP3    H275830   6.279   3.624  14.094 -2.5624 -0.5426 -1.2657
18139TIP3   OH275831   6.078   4.851  17.025  0.2998 -0.0692 -0.0146
18139TIP3    H175832   6.144   4.893  17.080 -0.2975  1.2241 -0.2461
18139TIP3    H275833   6.022   4.923  16.996 -0.2500 -0.9231 -1.1453
18140TIP3   OH275834   2.677   2.754   5.460 -0.2187  0.1977 -0.0674
18140TIP3    H175835   2.663   2.673   5.509  1.4144 -1.3069 -1.8920
18140TIP3    H275836   2.602   2.760   5.402 -0.5314  0.1872  0.3341
18141TIP3   OH275837   3.380   2.243   2.196  0.4125  0.4291 -0.1823
18141TIP3    H175838   3.443   2.307   2.230  1.6749 -0.1292 -1.3538
18141TIP3    H275839   3.409   2.227   2.106 -2.3430  1.2832 -1.3148
18142TIP3   OH275840   0.628   2.623  15.284 -0.9381 -0.4176 -0.0502
18142TIP3    H175841   0.606   2.686  15.353 -1.5779 -1.5519  0.8172
18142TIP3    H275842   0.714   2.589  15.309 -0.2581  0.6123 -0.9130
18143TIP3   OH275843   0.528   0.223  16.210  0.5008  0.1036  0.5370
18143TIP3    H175844   0.498   0.212  16.300 -0.4271  0.1888  0.2499
18143TIP3    H275845   0.612   0.177  16.207 -0.2360 -1.3477  1.0298
18144TIP3   OH275846   5.370   3.306   2.128  0.4696 -0.0578 -0.1320
18144TIP3    H175847   5.383   3.214   2.104 -1.3162 -0.2162 -0.5865
18144TIP3    H275848   5.459   3.338   2.147  1.2927 -1.4640 -1.3897
18145TIP3   OH275849   1.567   0.774  12.870 -0.1838 -0.2329  0.2231
18145TIP3    H175850   1.482   0.732  12.881 -0.3045  0.2932  1.4618
18145TIP3    H275851   1.609   0.767  12.956  1.8964 -2.2803 -0.8332
18146TIP3   OH275852   3.889   3.383   0.255 -0.0249  0.6439 -0.0963
18146TIP3    H175853   3.888   3.471   0.219  0.9749  0.7144  0.0328
18146TIP3    H275854   3.810   3.378   0.310  0.9869  2.1754  1.5970
18147TIP3   OH275855   6.018   2.540   1.528  0.2163  0.0582  0.4668
18147TIP3    H175856   6.059   2.551   1.614 -0.4838 -0.3056  0.8548
18147TIP3    H275857   6.011   2.445   1.517  0.1626  0.1069  0.0775
18148TIP3   OH275858   4.822   4.259  16.945  0.0399 -0.3677  0.2317
18148TIP3    H175859   4.876   4.188  16.978  1.7036 -0.1903 -1.8979
18148TIP3    H275860   4.875   4.300  16.877 -2.2069  0.7802 -0.9443
18149TIP3   OH275861   4.769   3.956  11.230  0.1544 -0.4893 -0.4097
18149TIP3    H175862   4.748   4.020  11.162 -0.4499 -0.4387 -0.1758
18149TIP3    H275863   4.761   3.871  11.188  0.0728 -0.4471 -0.4775
18150TIP3   OH275864   6.182   0.516   1.776 -0.1882 -0.9490  0.5388
18150TIP3    H175865   6.165   0.501   1.683 -1.9182 -0.5826  0.7602
18150TIP3    H275866   6.277   0.522   1.783 -0.0789  0.1566 -1.3726
18151TIP3   OH275867   0.208   6.284  12.797  0.1314 -0.3977  0.0895
18151TIP3    H175868   0.168   6.281  12.883 -0.3972 -0.6589 -0.1605
18151TIP3    H275869   0.225   6.377  12.782 -0.0029 -0.3286  0.3669
18152TIP3   OH275870   1.426   0.743   3.659  0.3388  0.0957 -0.0076
18152TIP3    H175871   1.456   0.655   3.635 -0.5680 -0.2847  0.2296
18152TIP3    H275872   1.475   0.801   3.600  1.9165 -0.4571  0.6983
18153TIP3   OH275873   5.056   0.476   5.089 -0.8188 -0.2795 -0.4118
18153TIP3    H175874   5.136   0.424   5.102 -1.3791 -1.4832 -1.5343
18153TIP3    H275875   5.084   0.566   5.102  0.3113 -0.7954  1.0414
18154TIP3   OH275876   3.188   5.030   5.406 -0.1733  0.2758 -0.7107
18154TIP3    H175877   3.207   5.007   5.315  1.7914 -0.9932 -0.0635
18154TIP3    H275878   3.229   5.115   5.419  1.2066 -0.3687 -0.5803
18155TIP3   OH275879   3.409   6.736  11.501  0.4037  0.2825  0.5486
18155TIP3    H175880   3.339   6.691  11.454  1.3354  0.8964 -1.5544
18155TIP3    H275881   3.481   6.672  11.502  0.8619  0.7720 -0.1528
18156TIP3   OH275882   1.517   0.971  14.967 -0.6196 -0.1037  0.1650
18156TIP3    H175883   1.594   0.915  14.971 -0.7553 -0.2460  0.7788
18156TIP3    H275884   1.550   1.059  14.987 -0.8707 -0.4122  2.0955
18157TIP3   OH275885   6.366   0.836  14.098 -0.2812  0.0336  0.9056
18157TIP3    H175886   6.450   0.800  14.069 -0.6555 -1.1666  1.2603
18157TIP3    H275887   6.328   0.875  14.019  1.1277  1.7163  0.9810
18158TIP3   OH275888   5.803   0.567   6.563 -0.5551 -0.3513  0.2122
18158TIP3    H175889   5.857   0.489   6.571 -1.2064 -0.8767 -0.4006
18158TIP3    H275890   5.730   0.552   6.624 -1.7190 -1.1259 -1.3130
18159TIP3   OH275891   2.825   0.778  11.284  0.1935 -0.3701 -0.9436
18159TIP3    H175892   2.741   0.825  11.283 -0.0006 -0.5556  1.3446
18159TIP3    H275893   2.803   0.687  11.267 -0.0021 -0.3437 -0.8262
18160TIP3   OH275894   2.295   2.998  11.316  0.2966 -0.5003 -0.5723
18160TIP3    H175895   2.343   2.994  11.233 -0.1196  1.6029 -0.9685
18160TIP3    H275896   2.246   3.080  11.312  0.9640  0.1282  2.1469
18161TIP3   OH275897   3.935   4.345   0.054  0.1485 -0.4593 -0.3335
18161TIP3    H175898   3.919   4.414   0.118  1.6565 -0.4501  0.0827
18161TIP3    H275899   3.943   4.391  -0.030  1.2245 -0.0818 -0.0468
18162TIP3   OH275900   0.117   3.355   5.324 -0.8912  0.2287  0.0056
18162TIP3    H175901   0.126   3.260   5.316  2.1943  0.2428  1.4896
18162TIP3    H275902   0.035   3.368   5.371 -0.1893 -1.9595  2.0719
18163TIP3   OH275903   4.767   1.894  16.984  0.0967  0.2998  0.0235
18163TIP3    H175904   4.722   1.940  17.055  1.3879  1.4741  0.1034
18163TIP3    H275905   4.767   1.802  17.012  0.8931  0.7874  1.7285
18164TIP3   OH275906   5.395   1.852   2.999  0.3134 -0.2462  0.7459
18164TIP3    H175907   5.307   1.814   2.991  0.2902 -0.6884  2.6246
18164TIP3    H275908   5.388   1.937   2.955 -0.8911 -0.5111  0.3779
18165TIP3   OH275909   3.287   3.220  12.649 -0.7120  0.3862  0.1599
18165TIP3    H175910   3.215   3.283  12.655 -0.5615  0.4131  2.7592
18165TIP3    H275911   3.365   3.274  12.641 -0.6787  0.5155  1.2562
18166TIP3   OH275912   4.703   2.799   3.705  0.5246  0.0276  0.0359
18166TIP3    H175913   4.785   2.812   3.752  0.8637  2.0496 -1.0292
18166TIP3    H275914   4.719   2.723   3.649 -0.3964 -3.5482  4.0487
18167TIP3   OH275915   4.130   0.097  14.408  0.1979  0.6978  0.2327
18167TIP3    H175916   4.205   0.060  14.362 -1.6035 -0.9991 -1.5717
18167TIP3    H275917   4.167   0.143  14.483  2.9340 -0.8175 -0.0788
18168TIP3   OH275918   1.541   3.630  10.444  0.1561  0.2968  0.9149
18168TIP3    H175919   1.552   3.537  10.422  0.5461 -0.2571  3.1957
18168TIP3    H275920   1.620   3.672  10.410 -0.7174  0.1083 -1.4877
18169TIP3   OH275921   6.409   4.475   4.884  0.1366  0.4976 -0.3430
18169TIP3    H175922   6.322   4.447   4.856 -0.1398  1.0585 -0.0623
18169TIP3    H275923   6.416   4.566   4.856  0.0176  0.9403  0.9693
18170TIP3   OH275924   0.107   4.869  16.148 -0.2921 -0.7790 -0.6756
18170TIP3    H175925   0.116   4.892  16.240 -0.8005 -0.2942 -0.7362
18170TIP3    H275926   0.107   4.774  16.147 -0.2117 -0.7886 -0.1773
18171TIP3   OH275927   0.610   5.237  14.035 -0.6203 -0.1208  0.0511
18171TIP3    H175928   0.556   5.176  14.087 -0.6485  0.4316  0.6744
18171TIP3    H275929   0.554   5.260  13.961 -0.7856 -0.4929  0.0563
18172TIP3   OH275930   0.286   3.341  13.199 -0.3832 -0.2934 -0.2688
18172TIP3    H175931   0.204   3.389  13.214  1.2216  2.5698  0.1172
18172TIP3    H275932   0.336   3.354  13.279  1.3700  0.1035 -1.3678
18173TIP3   OH275933   4.985   0.169   5.906  0.4546 -0.0988  0.4488
18173TIP3    H175934   5.044   0.147   5.978  1.1800  0.5972  0.0839
18173TIP3    H275935   4.930   0.091   5.896  1.7166 -1.0207  0.4114
18174TIP3   OH275936   2.900   4.041  14.937 -0.1580 -0.0937 -0.1610
18174TIP3    H175937   2.958   4.105  14.978  1.1104 -1.3534  0.0849
18174TIP3    H275938   2.884   3.976  15.006  0.3374 -1.1598 -1.0173
18175TIP3   OH275939   4.212   0.633   0.949 -0.1269 -0.3310  0.0758
18175TIP3    H175940   4.126   0.598   0.974  0.5301 -1.1766  1.2784
18175TIP3    H275941   4.215   0.625   0.854 -0.3243 -2.8921  0.2088
18176TIP3   OH275942   3.356   0.014  15.175  0.4634  0.2374 -0.0787
18176TIP3    H175943   3.392  -0.021  15.256 -1.2593  0.5912  0.8904
18176TIP3    H275944   3.370  -0.056  15.111 -0.0647 -0.9486  1.0433
18177TIP3   OH275945   0.725   4.696  12.713 -0.3898 -0.0556 -0.0356
18177TIP3    H175946   0.649   4.754  12.711  0.6098  1.3073  0.2839
18177TIP3    H275947   0.700   4.622  12.657 -2.1588  0.0633  0.5253
18178TIP3   OH275948   1.900   6.713   1.283 -0.1406 -0.2868 -0.2536
18178TIP3    H175949   1.990   6.681   1.273  0.2869  0.7946  0.0036
18178TIP3    H275950   1.910   6.802   1.317 -1.3100 -0.0675 -0.4490
18179TIP3   OH275951   4.391   1.758  12.997 -0.4414 -0.0512  1.0153
18179TIP3    H175952   4.368   1.667  13.015  2.1921 -0.8117  0.9281
18179TIP3    H275953   4.391   1.799  13.083 -0.7960 -0.3286  1.1548
18180TIP3   OH275954   6.011   1.866   4.576 -0.3122  0.1133  0.4074
18180TIP3    H175955   6.046   1.843   4.490 -1.9647 -0.5975 -0.1156
18180TIP3    H275956   5.935   1.921   4.557 -0.4555  0.2907  1.4384
18181TIP3   OH275957   3.142   3.587  13.046  0.1817  0.2640 -0.3446
18181TIP3    H175958   3.123   3.552  13.133  0.0440 -0.7461 -0.7693
18181TIP3    H275959   3.091   3.532  12.986 -2.6087  3.1480 -0.8523
18182TIP3   OH275960   5.951   6.020   0.111 -0.0819 -1.1369  0.1503
18182TIP3    H175961   5.884   6.050   0.172  0.2086 -0.2929  0.0588
18182TIP3    H275962   5.904   5.965   0.048 -0.7460 -0.2771 -0.1154
18183TIP3   OH275963   6.425   0.192   4.105  0.0130  0.1059 -0.2277
18183TIP3    H175964   6.463   0.210   4.020  1.1258  0.1819  0.2652
18183TIP3    H275965   6.374   0.271   4.126  0.8903  0.6749 -0.2082
18184TIP3   OH275966   1.087   6.254   0.178 -0.5757  0.2030 -0.1153
18184TIP3    H175967   1.088   6.163   0.148  1.1462  0.4587 -0.9803
18184TIP3    H275968   1.035   6.300   0.111 -0.7075  0.0106 -0.1477
18185TIP3   OH275969   1.802   3.927   0.130  0.4026 -0.2508  0.6691
18185TIP3    H175970   1.759   3.981   0.197  0.6998  1.9342 -0.8149
18185TIP3    H275971   1.730   3.895   0.075  0.4144  0.9454 -0.0640
18186TIP3   OH275972   2.869   4.384  15.064 -0.6285  1.1283  0.4939
18186TIP3    H175973   2.780   4.350  15.056 -0.8112  1.6039  0.4579
18186TIP3    H275974   2.869   4.429  15.149 -1.2437  3.4736 -0.6673
18187TIP3   OH275975   6.674   6.243   2.539  0.7397  0.1740 -0.3096
18187TIP3    H175976   6.692   6.156   2.575  3.5340  0.2626 -1.2846
18187TIP3    H275977   6.621   6.226   2.461 -1.6445 -0.3040  1.2740
18188TIP3   OH275978   1.880   1.479   0.353  0.5867 -0.0987 -0.4251
18188TIP3    H175979   1.869   1.392   0.316 -4.2046 -0.5418  1.2701
18188TIP3    H275980   1.937   1.466   0.429 -1.7124 -2.3875  1.0845
18189TIP3   OH275981   3.627   4.121   4.478 -0.0768  0.5043  0.3131
18189TIP3    H175982   3.655   4.030   4.470 -1.1524  0.1798  0.1873
18189TIP3    H275983   3.644   4.158   4.391  0.4001  0.4402  0.3768
18190TIP3   OH275984   5.840   0.148   1.701  0.3817 -0.5506  0.1824
18190TIP3    H175985   5.859   0.203   1.626  2.2058  0.1249  1.0762
18190TIP3    H275986   5.745   0.152   1.712  0.1621 -0.1847 -1.6857
18191TIP3   OH275987   4.947   4.161  13.927  0.5217 -0.0494  0.3501
18191TIP3    H175988   4.928   4.071  13.954 -2.3625  0.4791  0.3791
18191TIP3    H275989   4.920   4.165  13.835  0.9153  0.7029  0.2583
18192TIP3   OH275990   5.835   6.366  13.732 -0.0678  0.4625 -0.3455
18192TIP3    H175991   5.894   6.291  13.731  0.5910  0.9787 -1.8602
18192TIP3    H275992   5.786   6.356  13.814 -1.2408 -2.5746 -1.2861
18193TIP3   OH275993   2.797   6.133   6.136  0.2451 -0.1059 -0.0124
18193TIP3    H175994   2.806   6.227   6.116  1.3196 -0.5788 -2.0288
18193TIP3    H275995   2.771   6.131   6.228  1.7073  2.1411  0.5372
18194TIP3   OH275996   0.907   4.150   2.684 -0.2001 -0.1906  0.4960
18194TIP3    H175997   0.985   4.095   2.680  0.5338  0.8910 -2.4022
18194TIP3    H275998   0.866   4.141   2.598 -3.0047 -0.2472  1.7175
18195TIP3   OH275999   1.028   1.324   1.768  0.1162  0.2017  0.1494
18195TIP3    H176000   0.999   1.414   1.750  2.8846  0.8372 -1.7668
18195TIP3    H276001   1.075   1.298   1.689 -1.8998 -3.5988 -0.0097
18196TIP3   OH276002   6.607   3.512   2.070  0.8641 -0.0391  0.5222
18196TIP3    H176003   6.589   3.525   1.977  0.3868 -0.6225  0.5315
18196TIP3    H276004   6.685   3.566   2.086  0.8968  0.1444 -0.1893
18197TIP3   OH276005   3.494   3.973  12.496 -0.0265  0.3084  0.0865
18197TIP3    H176006   3.577   3.967  12.543  0.2986 -0.5785 -0.5936
18197TIP3    H276007   3.439   4.028  12.552 -0.0899 -1.7442  2.1681
18198TIP3   OH276008   1.600   3.880  14.386  0.5320 -0.0011  0.5358
18198TIP3    H176009   1.553   3.877  14.303  0.8992 -1.5752  0.3459
18198TIP3    H276010   1.691   3.862  14.363  0.8609  0.8318  1.1425
18199TIP3   OH276011   6.640   3.972  11.761 -0.2232  0.1536 -0.5284
18199TIP3    H176012   6.653   3.891  11.810  0.1635 -0.0924 -1.0299
18199TIP3    H276013   6.546   3.976  11.745 -0.2805 -0.0389 -0.2369
18200TIP3   OH276014   1.681   4.321  15.245 -0.3241  0.2931 -0.2077
18200TIP3    H176015   1.722   4.278  15.320  0.0814  0.3627 -0.3833
18200TIP3    H276016   1.671   4.251  15.180 -0.2510  0.3278 -0.2570
18201TIP3   OH276017   2.515   5.298  15.894 -0.1187 -0.0306  0.5133
18201TIP3    H176018   2.597   5.285  15.940  0.1096 -0.3617  0.0275
18201TIP3    H276019   2.469   5.365  15.944  1.1528  1.3666 -0.1098
18202TIP3   OH276020   6.595   1.955   5.262 -0.6049  0.2040 -0.6123
18202TIP3    H176021   6.502   1.979   5.265 -0.6929  0.0482 -1.6608
18202TIP3    H276022   6.642   2.035   5.283 -0.8931  1.2974 -3.7098
18203TIP3   OH276023   4.007   6.316  15.761  0.1666  0.9985  0.1822
18203TIP3    H176024   3.935   6.290  15.818 -0.0669  1.6461  0.1887
18203TIP3    H276025   4.033   6.403  15.791  2.1733  0.0687  1.3638
18204TIP3   OH276026   2.012   1.196   2.691  0.4309  0.0071  0.1001
18204TIP3    H176027   2.070   1.120   2.685 -0.6836 -1.0827  1.9242
18204TIP3    H276028   2.070   1.269   2.713  1.5646 -0.1858 -2.0001
18205TIP3   OH276029   3.303   2.209  13.780  0.0485  0.1405 -0.1329
18205TIP3    H176030   3.223   2.157  13.780 -0.0924  0.3214  1.1427
18205TIP3    H276031   3.298   2.262  13.860 -0.5364  3.3160 -2.1232
18206TIP3   OH276032   2.005   2.665   4.441 -0.1761  0.0107 -0.0710
18206TIP3    H176033   2.056   2.584   4.444 -0.1201  0.0439 -0.1101
18206TIP3    H276034   2.062   2.728   4.397 -0.3077  0.0094 -0.2421
18207TIP3   OH276035   5.995   1.789  11.931 -0.3017  0.3552 -0.1174
18207TIP3    H176036   6.033   1.873  11.906 -0.2897  0.2078 -0.5952
18207TIP3    H276037   6.058   1.724  11.900 -0.4039  0.1598  0.0812
18208TIP3   OH276038   3.355   1.837  14.904  0.0204 -0.5709 -0.4218
18208TIP3    H176039   3.274   1.813  14.860 -1.7057  1.1669  1.6279
18208TIP3    H276040   3.372   1.927  14.878 -0.4501  0.1234  1.4859
18209TIP3   OH276041   5.234   4.084   3.346  0.7409 -0.2298 -0.1293
18209TIP3    H176042   5.159   4.027   3.329  0.0471  0.6810 -0.1343
18209TIP3    H276043   5.278   4.044   3.421 -0.1327 -0.3799  0.3089
18210TIP3   OH276044   5.513   1.712   2.772 -0.0374 -0.1505 -0.6684
18210TIP3    H176045   5.503   1.762   2.853 -2.7891  1.1628 -1.7048
18210TIP3    H276046   5.463   1.632   2.787  0.9640 -0.7709 -0.4914
18211TIP3   OH276047   6.467   3.784  17.156  0.5919 -0.4031 -0.5058
18211TIP3    H176048   6.525   3.834  17.213  1.7654  0.7934 -2.6372
18211TIP3    H276049   6.510   3.698  17.148  1.3899  0.0243 -0.9793
18212TIP3   OH276050   2.766   3.592   2.588  0.6702 -0.1087  0.1742
18212TIP3    H176051   2.847   3.643   2.590 -0.4282  1.7446 -0.4853
18212TIP3    H276052   2.744   3.578   2.680  1.3407  0.0021  0.3590
18213TIP3   OH276053   6.112   3.369   2.658  0.1406  0.1525  0.7797
18213TIP3    H176054   6.028   3.414   2.652 -0.6873 -1.2819  1.2681
18213TIP3    H276055   6.107   3.298   2.594 -0.0375 -1.4581  2.4797
18214TIP3   OH276056   4.791   3.549   0.480  0.2065 -0.2464  0.1509
18214TIP3    H176057   4.775   3.456   0.495  2.1226 -0.4630  1.1534
18214TIP3    H276058   4.885   3.556   0.467  0.5149  1.8097  2.5635
18215TIP3   OH276059   5.102   3.748  15.882 -0.1661 -0.2707 -0.3644
18215TIP3    H176060   5.187   3.720  15.916 -0.2053  1.0966  0.9898
18215TIP3    H276061   5.119   3.773  15.792  0.9196  0.1700 -0.0460
18216TIP3   OH276062   3.027   5.311   0.571 -0.0583  0.0445  0.1544
18216TIP3    H176063   2.957   5.253   0.542 -0.7630  1.1075 -0.3347
18216TIP3    H276064   3.108   5.264   0.549 -0.5074 -2.3910  3.1191
18217TIP3   OH276065   6.213   5.873  16.560  0.4483  0.2782 -0.7106
18217TIP3    H176066   6.267   5.902  16.485 -0.9253  0.0507 -1.8212
18217TIP3    H276067   6.196   5.954  16.609  0.0209  0.7064 -1.5443
18218TIP3   OH276068   1.680   5.884   2.169 -0.7212 -0.8727  0.0321
18218TIP3    H176069   1.598   5.857   2.209 -0.8348  0.6254  0.8604
18218TIP3    H276070   1.655   5.920   2.083 -1.0345  0.1819  0.5480
18219TIP3   OH276071   1.012   6.258   4.524  0.3695  0.1422  0.0444
18219TIP3    H176072   1.041   6.211   4.602 -1.2645 -1.4800 -0.2287
18219TIP3    H276073   1.076   6.234   4.457  0.2120 -0.8044  0.2087
18220TIP3   OH276074   6.351   1.666  12.877  0.7858  0.1162  0.3660
18220TIP3    H176075   6.380   1.758  12.874  1.5857 -0.0536  1.8128
18220TIP3    H276076   6.429   1.616  12.856  0.9782 -0.2749  1.8668
18221TIP3   OH276077   1.364   5.891  11.514  0.8062 -0.4784  0.3413
18221TIP3    H176078   1.273   5.860  11.504  0.2674  0.8933  0.7921
18221TIP3    H276079   1.388   5.921  11.426 -0.3713  2.1710  0.8187
18222TIP3   OH276080   4.754   2.678   2.643 -0.3700  0.0416 -0.5473
18222TIP3    H176081   4.677   2.621   2.644 -1.7904  1.8672  0.4414
18222TIP3    H276082   4.788   2.674   2.732  0.8356 -0.8931 -1.0236
18223TIP3   OH276083   0.153   4.389   0.667  0.6429 -0.4513  0.2245
18223TIP3    H176084   0.066   4.351   0.654  0.4598 -0.8937  2.3827
18223TIP3    H276085   0.154   4.467   0.611 -0.6171 -1.1749 -0.8757
18224TIP3   OH276086   0.529   1.033   4.492 -0.2843  0.3550 -0.0311
18224TIP3    H176087   0.509   0.964   4.429 -0.3696 -0.2791  0.6826
18224TIP3    H276088   0.450   1.041   4.546  0.0028  0.4758  0.3813
18225TIP3   OH276089   6.410   4.019  10.973  0.4475 -0.3281  0.1014
18225TIP3    H176090   6.337   4.054  10.923  1.0083 -0.5961 -0.9501
18225TIP3    H276091   6.474   3.992  10.907  1.4285 -0.2594  0.9815
18226TIP3   OH276092   3.854   0.219   5.931  0.8319 -0.6587 -0.0499
18226TIP3    H176093   3.807   0.147   5.973  3.5314 -1.1386  2.4555
18226TIP3    H276094   3.863   0.192   5.840 -0.6256 -2.1250  0.1862
18227TIP3   OH276095   3.216   0.974  17.078  0.0407  0.3515 -0.1120
18227TIP3    H176096   3.290   1.033  17.087 -0.8647  1.7266 -1.2847
18227TIP3    H276097   3.205   0.963  16.984  0.0977 -1.6319  0.0536
18228TIP3   OH276098   5.107   6.553  15.710 -0.5292 -0.5631  0.0058
18228TIP3    H176099   5.169   6.485  15.685  0.3349  0.0541  0.4267
18228TIP3    H276100   5.027   6.505  15.731 -0.7039 -1.2546 -2.0402
18229TIP3   OH276101   5.657   0.068   5.062  0.1107  0.5015  0.0931
18229TIP3    H176102   5.744   0.072   5.103  1.2988 -0.1216 -2.2335
18229TIP3    H276103   5.633  -0.024   5.066 -1.3581  0.9085  2.3839
18230TIP3   OH276104   0.344   0.850  14.856 -0.0363  0.1289  0.1540
18230TIP3    H176105   0.426   0.895  14.835 -0.4351  0.5881 -0.4398
18230TIP3    H276106   0.367   0.793  14.930  1.2822 -1.1254 -1.1418
18231TIP3   OH276107   4.043   1.575  14.211 -0.5074  0.1817  0.5667
18231TIP3    H176108   4.128   1.532  14.209 -0.5705 -0.4266  4.2468
18231TIP3    H276109   3.980   1.505  14.193 -0.3572 -0.0384  0.8953
18232TIP3   OH276110   4.913   3.820   5.290  0.4160  0.3203  0.9079
18232TIP3    H176111   4.884   3.887   5.352 -0.6999  1.9961 -1.2816
18232TIP3    H276112   4.904   3.861   5.204  0.7845 -2.2757 -0.4843
18233TIP3   OH276113   2.060   3.349  12.547  0.0322 -0.8524  0.2452
18233TIP3    H176114   2.025   3.376  12.633 -0.2836 -2.0857  0.5362
18233TIP3    H276115   2.016   3.406  12.484 -0.3532 -0.4737  0.8456
18234TIP3   OH276116   1.892   0.986   3.336  0.1172  0.1180 -0.2765
18234TIP3    H176117   1.964   0.930   3.308  0.2232  0.2469 -0.2637
18234TIP3    H276118   1.911   1.006   3.428  0.4274  0.7075 -0.4612
18235TIP3   OH276119   6.127   1.288  11.869  0.0516 -0.2973  0.2269
18235TIP3    H176120   6.165   1.336  11.795 -1.4232  0.0591 -0.3306
18235TIP3    H276121   6.039   1.325  11.879  0.4646  0.2293  2.6715
18236TIP3   OH276122   5.925   2.434   6.036 -0.7624 -0.1029 -0.5680
18236TIP3    H176123   5.926   2.525   6.005 -1.0886  0.7650  1.7549
18236TIP3    H276124   5.845   2.428   6.089 -1.0404 -1.9361 -1.1195
18237TIP3   OH276125   4.185   2.934   5.739  0.3121 -0.3370 -0.6719
18237TIP3    H176126   4.122   2.890   5.795  1.4218 -0.9375  0.1284
18237TIP3    H276127   4.140   2.943   5.655 -1.0466 -0.2120  0.0383
18238TIP3   OH276128   0.419   0.098   0.015  0.2837  0.1031 -0.5890
18238TIP3    H176129   0.478   0.148  -0.041  0.3242  0.8161  0.0777
18238TIP3    H276130   0.332   0.117  -0.020  0.2152  1.4074  0.2164
18239TIP3   OH276131   1.347   5.939   5.374  0.4084 -0.5788 -0.2044
18239TIP3    H176132   1.391   5.964   5.292 -0.5989  5.1603  0.5906
18239TIP3    H276133   1.417   5.938   5.439  0.5333  0.1280 -0.3178
18240TIP3   OH276134   2.504   3.652  16.195  0.1454 -0.1528 -0.1989
18240TIP3    H176135   2.579   3.684  16.145 -0.8036  3.1169  0.2075
18240TIP3    H276136   2.427   3.675  16.142 -0.6813 -2.0661  0.0788
18241TIP3   OH276137   0.303   2.644  16.119  0.7725 -0.1960 -0.8446
18241TIP3    H176138   0.399   2.646  16.129  0.6088  0.1446  1.1946
18241TIP3    H276139   0.271   2.630  16.208 -1.0993  0.1934 -1.4223
18242TIP3   OH276140   2.636   4.078   3.298  0.3663  0.2421 -0.4574
18242TIP3    H176141   2.542   4.059   3.302  0.5934 -0.9003 -0.1684
18242TIP3    H276142   2.664   4.040   3.215  1.3733 -3.5741  1.3779
18243TIP3   OH276143   0.333   6.144   4.987 -1.2871 -0.1791  0.4030
18243TIP3    H176144   0.372   6.104   4.909 -0.2463  0.7459  0.4114
18243TIP3    H276145   0.272   6.209   4.953 -1.5518 -0.4522  0.3623
18244TIP3   OH276146   2.422   2.821  12.015 -0.2712  1.0391  0.4771
18244TIP3    H176147   2.354   2.754  12.019  0.8396 -0.1990 -0.4432
18244TIP3    H276148   2.431   2.840  11.921 -0.2662  2.1859  0.6908
18245TIP3   OH276149   0.556   0.975   3.542  0.1080 -0.5289 -0.1377
18245TIP3    H176150   0.478   1.027   3.521 -0.7116 -1.5903  0.1892
18245TIP3    H276151   0.551   0.962   3.637  1.6808  0.9245  0.1925
18246TIP3   OH276152   4.755   2.892  17.178  0.2746 -0.6224  0.3522
18246TIP3    H176153   4.766   2.822  17.243  0.9754  0.2740  1.2270
18246TIP3    H276154   4.667   2.879  17.143  0.4424 -2.0205  0.4032
18247TIP3   OH276155   4.485   4.226  16.555 -0.3106 -0.1522  0.7960
18247TIP3    H176156   4.429   4.161  16.512  0.4096 -0.8376  0.8661
18247TIP3    H276157   4.524   4.178  16.629 -0.1843  0.5137  1.1671
18248TIP3   OH276158   4.396   4.338  16.244  0.5467  0.9482  0.1202
18248TIP3    H176159   4.388   4.323  16.149 -0.0760 -1.8713  0.5180
18248TIP3    H276160   4.470   4.283  16.270  0.0719  0.8977  1.4065
18249TIP3   OH276161   0.906   1.188   5.114  0.3368  0.5536 -0.3382
18249TIP3    H176162   0.998   1.203   5.138  0.2491  3.5437 -1.3747
18249TIP3    H276163   0.883   1.264   5.061 -3.2389  0.8217  1.2941
18250TIP3   OH276164   0.893   2.711  14.292  0.7576 -0.2882  0.1611
18250TIP3    H176165   0.799   2.694  14.300  0.9185 -1.1034  0.3593
18250TIP3    H276166   0.898   2.798  14.252 -0.0798 -0.1633  0.3130
18251TIP3   OH276167   1.149   5.219   0.674  0.0179 -0.3621  0.1561
18251TIP3    H176168   1.129   5.169   0.595 -1.2189  1.8915 -1.0699
18251TIP3    H276169   1.066   5.259   0.699  0.4479 -0.7688  2.4715
18252TIP3   OH276170   4.870   4.144   0.564 -0.0854 -0.3496  0.3538
18252TIP3    H176171   4.793   4.197   0.585 -1.2377 -0.4697 -3.0360
18252TIP3    H276172   4.877   4.148   0.469  3.1068 -1.8084  0.4095
18253TIP3   OH276173   3.146   5.748  14.963 -0.1385  0.5266 -0.6524
18253TIP3    H176174   3.219   5.792  14.919  0.0610  1.2472  0.3728
18253TIP3    H276175   3.139   5.663  14.919  1.2431  0.4879 -0.8391
18254TIP3   OH276176   0.378   1.955  15.594  0.0306 -0.4859  0.1141
18254TIP3    H176177   0.434   2.029  15.618 -0.1339 -0.3126 -0.0217
18254TIP3    H276178   0.415   1.921  15.513 -0.7174  0.3575 -0.6108
18255TIP3   OH276179   3.518   1.842   3.270  0.8740  0.6137 -0.3092
18255TIP3    H176180   3.440   1.870   3.317  0.0228 -1.5572 -0.3187
18255TIP3    H276181   3.485   1.788   3.198  2.3590 -1.6482  0.5767
18256TIP3   OH276182   0.698   1.016   5.044 -0.1180  0.4359  0.2611
18256TIP3    H176183   0.637   1.028   5.117  0.2453 -0.6711  0.7623
18256TIP3    H276184   0.768   1.079   5.060  0.3205 -0.2958  1.2679
18257TIP3   OH276185   0.865   4.959  14.260  0.1879 -0.3198  0.4458
18257TIP3    H176186   0.898   5.025  14.200 -0.6137 -0.2789  0.0314
18257TIP3    H276187   0.844   4.884  14.203 -0.7354 -0.2192  0.6408
18258TIP3   OH276188   1.193   6.206  14.395 -0.0548  0.5169  0.0833
18258TIP3    H176189   1.246   6.127  14.406 -0.1922  0.4532  0.3052
18258TIP3    H276190   1.117   6.178  14.344  0.8573  0.9326 -1.5738
18259TIP3   OH276191   2.032   2.219  13.796 -0.2600  0.3831  0.2977
18259TIP3    H176192   2.076   2.268  13.865 -1.0521  0.7665  0.5388
18259TIP3    H276193   1.951   2.267  13.780 -0.2535  0.0947 -0.6481
18260TIP3   OH276194   1.500   2.022  13.946  0.6947 -0.1890 -0.2662
18260TIP3    H176195   1.571   2.040  13.884  0.9979  1.2744  0.4649
18260TIP3    H276196   1.532   1.947  13.997  2.6273  1.6085  1.3347
18261TIP3   OH276197   2.360   1.481  16.899  0.0797 -0.4390 -0.2478
18261TIP3    H176198   2.390   1.396  16.868  1.4218 -0.9331  2.1789
18261TIP3    H276199   2.277   1.463  16.944 -0.1241 -0.3011 -0.5665
18262TIP3   OH276200   6.550   0.713  15.619 -0.6210  0.4147  0.2941
18262TIP3    H176201   6.596   0.779  15.671  0.0533  0.9587 -0.9438
18262TIP3    H276202   6.602   0.705  15.539 -1.5174 -0.5382 -0.2219
18263TIP3   OH276203   3.746   5.192   2.135 -0.1535  0.0176 -0.3331
18263TIP3    H176204   3.782   5.248   2.066  2.2884 -0.7796  0.1603
18263TIP3    H276205   3.757   5.103   2.101 -0.4555 -0.3063  0.4086
18264TIP3   OH276206   3.034   3.450  14.686  0.8524  0.1234  0.4316
18264TIP3    H176207   2.955   3.504  14.692 -0.5611 -1.2597 -2.8788
18264TIP3    H276208   3.022   3.381  14.751  0.0502  0.7767  0.9850
18265TIP3   OH276209   5.637   4.256  13.318  0.0477 -0.6709 -0.4749
18265TIP3    H176210   5.543   4.273  13.310  0.1011 -0.2093 -0.1724
18265TIP3    H276211   5.645   4.196  13.392 -0.0586 -1.2355 -0.9126
18266TIP3   OH276212   5.798   5.261  12.793  0.3432  0.5106 -0.2953
18266TIP3    H176213   5.857   5.324  12.751 -0.1550 -0.4106 -2.5047
18266TIP3    H276214   5.710   5.293  12.773  0.0913 -0.5021 -0.8979
18267TIP3   OH276215   0.054   4.113   0.241 -0.5230 -0.0347 -0.1041
18267TIP3    H176216   0.070   4.208   0.235 -2.1672  0.1975 -1.4555
18267TIP3    H276217  -0.014   4.105   0.308  0.0104 -0.3379  0.4123
18268TIP3   OH276218   1.100   4.188  14.630 -0.3665 -0.0354  0.3941
18268TIP3    H176219   1.118   4.274  14.592  1.0494 -0.1265  0.7931
18268TIP3    H276220   1.071   4.134  14.557  0.9635  0.1739 -0.3094
18269TIP3   OH276221   2.692   2.724   0.188  0.2093 -0.2596 -0.3042
18269TIP3    H176222   2.637   2.714   0.266  0.1946  0.9287 -0.1391
18269TIP3    H276223   2.757   2.790   0.213 -1.7092  2.6283 -2.2146
18270TIP3   OH276224   3.727   4.629   5.891  0.4475  0.0661 -0.1463
18270TIP3    H176225   3.769   4.595   5.969  1.6712  0.3084 -0.6837
18270TIP3    H276226   3.736   4.724   5.898  1.6384  0.0465 -1.1456
18271TIP3   OH276227   4.980   3.051   3.202  0.0838 -0.3150  0.3899
18271TIP3    H176228   4.959   3.091   3.287 -0.0525  0.2484  0.0979
18271TIP3    H276229   5.001   2.960   3.223  3.1563  0.5042  1.4814
18272TIP3   OH276230   1.044   3.550  13.712  0.3259  0.0839 -0.0405
18272TIP3    H176231   1.001   3.542  13.797  0.9930  0.3800  0.3372
18272TIP3    H276232   1.137   3.561  13.734  0.2978  1.9687 -0.7149
18273TIP3   OH276233   0.300   6.030   3.037  0.0670  0.4741 -0.6163
18273TIP3    H176234   0.357   6.090   3.085 -1.1743 -0.2474  1.9290
18273TIP3    H276235   0.347   5.946   3.038  0.2403  0.5657 -1.0654
18274TIP3   OH276236   3.746   5.528   4.742 -0.7882 -0.2216  0.2842
18274TIP3    H176237   3.779   5.457   4.797 -0.0864  0.1220  0.3107
18274TIP3    H276238   3.767   5.608   4.790  2.0588  0.2585 -1.5370
18275TIP3   OH276239   0.186   2.807  13.797  0.3079 -0.0623  0.4284
18275TIP3    H176240   0.137   2.868  13.742 -0.3613 -0.6723  0.3324
18275TIP3    H276241   0.276   2.839  13.794  0.5243 -0.7087 -1.9546
18276TIP3   OH276242   1.308   1.231   3.164 -0.0026 -0.2111 -0.6077
18276TIP3    H176243   1.348   1.271   3.241  0.4800 -2.1907  0.2327
18276TIP3    H276244   1.222   1.201   3.193  0.3376 -1.3169 -0.7015
18277TIP3   OH276245   1.499   2.815  13.326  0.5987 -0.2502 -0.5141
18277TIP3    H176246   1.442   2.740  13.310  1.9422 -0.9276 -2.4155
18277TIP3    H276247   1.578   2.778  13.365  1.5118  0.0622 -2.0186
18278TIP3   OH276248   1.314   1.332  15.809 -0.1071 -0.2484 -0.3050
18278TIP3    H176249   1.398   1.336  15.763  1.0815 -0.4536  1.7411
18278TIP3    H276250   1.282   1.422  15.807  1.7062  0.5278  1.5113
18279TIP3   OH276251   2.406   3.408  15.530 -0.1876  0.0032 -0.1059
18279TIP3    H176252   2.428   3.438  15.618  1.8345 -1.1891 -0.1419
18279TIP3    H276253   2.416   3.486  15.475  1.7127  0.0858  0.2860
18280TIP3   OH276254   5.074   6.523   4.536 -0.5931 -0.6010  0.1889
18280TIP3    H176255   5.056   6.573   4.616 -1.7806 -1.1178  0.2624
18280TIP3    H276256   5.005   6.457   4.533  0.7834 -2.0835 -0.0482
18281TIP3   OH276257   0.815   4.268  16.349  0.2855 -0.5968 -0.4363
18281TIP3    H176258   0.901   4.309  16.346  0.9829 -2.0336 -2.1813
18281TIP3    H276259   0.831   4.176  16.326 -1.4957 -1.3296  0.9905
18282TIP3   OH276260   0.416   3.949  11.602  0.3468  0.2414  0.0498
18282TIP3    H176261   0.453   3.874  11.554  2.3686  1.1224  0.1289
18282TIP3    H276262   0.324   3.927  11.612  1.1352 -3.0335  1.5408
18283TIP3   OH276263   3.968   0.690  16.364 -0.9559  0.2403 -0.6087
18283TIP3    H176264   3.956   0.721  16.454 -0.6354 -0.9926 -0.1136
18283TIP3    H276265   3.935   0.761  16.309  0.6736  1.8814  0.4100
18284TIP3   OH276266   5.479   0.102   1.990 -0.5107 -0.8149 -0.1920
18284TIP3    H176267   5.515   0.019   2.022  0.6524  0.2174  1.2912
18284TIP3    H276268   5.495   0.165   2.061 -1.4345  0.6748 -1.2416
18285TIP3   OH276269   1.541   5.421  12.090  0.1962 -0.3439  0.1929
18285TIP3    H176270   1.624   5.377  12.107  0.8823  0.4672 -0.9542
18285TIP3    H276271   1.501   5.370  12.019 -0.3370 -0.7755  0.7892
18286TIP3   OH276272   3.633   5.646   5.790  0.1112 -0.1880 -0.0478
18286TIP3    H176273   3.624   5.741   5.779 -0.3264 -0.4650 -2.7268
18286TIP3    H276274   3.554   5.610   5.750  0.7035 -1.7247  0.1044
18287TIP3   OH276275   2.657   5.098   1.598  0.6409 -0.3866  0.1100
18287TIP3    H176276   2.715   5.028   1.567  1.1268  0.0717 -0.0233
18287TIP3    H276277   2.569   5.064   1.583  0.8691 -1.0717  0.2664
18288TIP3   OH276278   5.319   3.362  17.057 -0.0728  0.0760  0.2409
18288TIP3    H176279   5.413   3.352  17.038 -0.4928 -2.6809 -0.8417
18288TIP3    H276280   5.305   3.309  17.135 -0.7782  0.3499  0.3009
18289TIP3   OH276281   2.339   1.202  14.287 -0.8327  0.3159  0.0436
18289TIP3    H176282   2.289   1.223  14.366 -0.3152  0.0729  0.4431
18289TIP3    H276283   2.303   1.259  14.219 -2.3575 -0.5683  0.0532
18290TIP3   OH276284   5.479   0.895   4.641  0.2520 -0.3307  0.2269
18290TIP3    H176285   5.462   0.840   4.717 -0.9997  0.3815  0.4985
18290TIP3    H276286   5.432   0.976   4.660 -2.5931 -1.1408 -2.5116
18291TIP3   OH276287   0.703   4.117   3.268 -0.4542  0.4608 -0.1986
18291TIP3    H176288   0.613   4.085   3.276 -1.1283  2.3442  0.1445
18291TIP3    H276289   0.721   4.110   3.174 -0.1278 -1.9157 -0.0377
18292TIP3   OH276290   5.985   3.307   3.720 -0.5765  0.1133 -0.2343
18292TIP3    H176291   5.936   3.262   3.651  0.2362 -0.3985 -0.4920
18292TIP3    H276292   6.025   3.382   3.675  0.7167 -0.7407 -0.5537
18293TIP3   OH276293   5.153   2.522  12.634 -0.6210 -0.2751 -0.4273
18293TIP3    H176294   5.145   2.590  12.700 -2.1778  0.5901 -1.4442
18293TIP3    H276295   5.105   2.447  12.671 -1.7409  0.3034 -0.6499
18294TIP3   OH276296   2.029   0.176  17.290 -0.3939  0.4170 -0.6369
18294TIP3    H176297   2.090   0.157  17.219 -1.0580  1.3982 -1.5008
18294TIP3    H276298   2.022   0.271  17.291 -2.3659  0.3233 -0.9939
18295TIP3   OH276299   5.493   0.365  14.877  0.3799  0.2553 -0.1800
18295TIP3    H176300   5.520   0.274  14.871 -1.0401 -0.0803 -2.6269
18295TIP3    H276301   5.460   0.387  14.790 -2.9722  1.9146  1.2985
18296TIP3   OH276302   6.284   6.376  11.465  0.1312 -0.0544  0.3000
18296TIP3    H176303   6.192   6.400  11.457  0.7677  1.9397 -2.4714
18296TIP3    H276304   6.298   6.312  11.394  0.8383 -0.5897  0.9025
18297TIP3   OH276305   5.153   2.088   3.109 -0.7339 -0.2653 -0.3446
18297TIP3    H176306   5.177   1.999   3.085 -0.8074 -0.6975  1.0773
18297TIP3    H276307   5.151   2.087   3.205  0.6913  1.6368 -0.2437
18298TIP3   OH276308   1.718   6.368   4.463 -0.1613 -0.5699 -0.0297
18298TIP3    H176309   1.781   6.432   4.498  1.1351 -0.2000 -2.7525
18298TIP3    H276310   1.637   6.418   4.452 -0.6469 -0.7334  2.4024
18299TIP3   OH276311   3.431   5.293   0.808 -0.7297  0.2243  0.4894
18299TIP3    H176312   3.392   5.249   0.732 -1.8303  1.5660  0.2341
18299TIP3    H276313   3.432   5.386   0.784  3.5770  0.2851  0.0851
18300TIP3   OH276314   5.903   2.522   2.056 -0.5816  0.4684  0.0179
18300TIP3    H176315   5.906   2.488   2.146  0.1219  1.1054  0.2486
18300TIP3    H276316   5.845   2.598   2.061 -1.4135 -0.1382 -0.3014
18301TIP3   OH276317   4.214   0.979   1.068 -0.2945 -0.7921 -0.1274
18301TIP3    H176318   4.295   0.953   1.111  0.1776  0.6985 -0.0721
18301TIP3    H276319   4.165   1.026   1.135 -0.2257  0.2134 -0.7581
18302TIP3   OH276320   6.482   3.128  15.422  0.2559 -0.6291  0.4384
18302TIP3    H176321   6.416   3.137  15.491  1.8987 -0.0703  2.0197
18302TIP3    H276322   6.461   3.045  15.379 -2.0480  0.0204  0.2075
18303TIP3   OH276323   4.181   5.542   4.833 -0.9011  0.1649  0.5966
18303TIP3    H176324   4.152   5.483   4.763 -0.4216 -0.1049  0.6206
18303TIP3    H276325   4.276   5.547   4.823 -0.8821  0.5097  0.9269
18304TIP3   OH276326   2.108   3.667   5.078 -0.3027  0.5043 -0.4386
18304TIP3    H176327   2.201   3.689   5.075  0.2820 -1.7062 -0.2270
18304TIP3    H276328   2.066   3.745   5.114  1.5479  1.3302  0.0452
18305TIP3   OH276329   6.424   6.685  13.903  0.5255 -0.4459  0.1870
18305TIP3    H176330   6.504   6.689  13.956  0.8662 -2.7632 -0.0749
18305TIP3    H276331   6.390   6.597  13.917 -0.1825 -0.6201 -2.2840
18306TIP3   OH276332   0.660   0.262  14.281 -0.2088  0.2605  0.7355
18306TIP3    H176333   0.573   0.255  14.242 -0.2214  3.2615  0.0157
18306TIP3    H276334   0.662   0.348  14.322  1.7752 -0.5356  2.5556
18307TIP3   OH276335   0.145   2.685   0.201 -1.0814  0.1373  0.3390
18307TIP3    H176336   0.115   2.744   0.131 -1.6991 -2.5754 -1.8639
18307TIP3    H276337   0.222   2.729   0.237 -1.2153  2.0580 -1.4951
18308TIP3   OH276338   0.754   2.677   3.137  0.4523  0.1031  0.0284
18308TIP3    H176339   0.780   2.765   3.108 -0.1425  0.1808 -0.2841
18308TIP3    H276340   0.728   2.632   3.057 -1.5272  0.4252  0.4377
18309TIP3   OH276341   4.202   3.235   2.537  0.3343  0.0041  0.2111
18309TIP3    H176342   4.193   3.220   2.443  1.2844 -2.3095  0.4269
18309TIP3    H276343   4.287   3.278   2.547  0.2523  0.2118  0.0169
18310TIP3   OH276344   0.051   2.662   3.387 -0.6586 -0.2692  0.4518
18310TIP3    H176345   0.016   2.725   3.324 -1.0137  2.0696  2.8155
18310TIP3    H276346   0.118   2.614   3.338  0.4339  2.7138 -1.2494
18311TIP3   OH276347   3.531   0.703  15.249 -0.5475  0.3680  0.4618
18311TIP3    H176348   3.511   0.639  15.318  1.4548  0.3171  1.0697
18311TIP3    H276349   3.595   0.658  15.194 -1.4307  0.7591 -0.9232
18312TIP3   OH276350   6.234   0.312   2.940 -0.0681  0.3435 -0.1937
18312TIP3    H176351   6.217   0.382   3.002 -0.6270 -1.3380  1.6452
18312TIP3    H276352   6.148   0.272   2.924  0.3656 -0.5434 -0.4015
18313TIP3   OH276353   6.691   2.057   3.330  0.4222  0.4200  0.5659
18313TIP3    H176354   6.693   2.020   3.242  0.0339  0.5897  0.4844
18313TIP3    H276355   6.755   2.128   3.328 -1.5962  2.3147 -0.4357
18314TIP3   OH276356   2.258   0.870  14.477  0.1665  0.3194 -0.3004
18314TIP3    H176357   2.349   0.876  14.450  0.0935  0.1036 -0.6002
18314TIP3    H276358   2.259   0.814  14.555  0.1135 -1.0109 -1.2329
18315TIP3   OH276359   4.449   2.804   4.198  0.3325 -0.0372 -0.0721
18315TIP3    H176360   4.477   2.820   4.288  0.5642  1.8458 -0.4474
18315TIP3    H276361   4.474   2.713   4.181  0.0390 -0.5128  1.8410
18316TIP3   OH276362   1.605   5.246  11.824  0.0665 -0.2124  0.3934
18316TIP3    H176363   1.578   5.162  11.861  0.9660 -0.0686  1.4185
18316TIP3    H276364   1.700   5.246  11.831  0.1850  0.2808 -0.9582
18317TIP3   OH276365   2.878   3.277   2.232  0.4091 -0.2816 -0.5487
18317TIP3    H176366   2.873   3.338   2.306  0.3153 -1.0526  0.0868
18317TIP3    H276367   2.930   3.324   2.166  0.9889  0.1825  0.2242
18318TIP3   OH276368   0.802   6.433  16.283 -0.6935  0.1001  0.3896
18318TIP3    H176369   0.826   6.525  16.295 -1.5155  0.2564  0.9606
18318TIP3    H276370   0.878   6.393  16.240 -1.8988  1.9896 -4.0372
18319TIP3   OH276371   2.704   0.899   4.310 -0.1600  0.0192  0.1222
18319TIP3    H176372   2.623   0.927   4.353  0.3318  1.1308  0.3470
18319TIP3    H276373   2.676   0.873   4.222 -0.8510 -0.2075  0.4043
18320TIP3   OH276374   0.795   6.312   2.782 -0.1275  0.4103  0.9503
18320TIP3    H176375   0.810   6.364   2.703 -0.4916  0.9482  1.2269
18320TIP3    H276376   0.790   6.377   2.852  0.7907 -0.1055  1.5124
18321TIP3   OH276377   2.968   5.484  10.655 -0.6622  0.2028 -0.0856
18321TIP3    H176378   2.918   5.549  10.605 -1.7076 -1.5403 -1.4469
18321TIP3    H276379   3.059   5.514  10.650 -1.2348  2.1284  0.3164
18322TIP3   OH276380   0.662   0.179  15.326 -0.3830  0.3628  0.0850
18322TIP3    H176381   0.686   0.235  15.400 -1.3488 -0.3093  0.9415
18322TIP3    H276382   0.587   0.129  15.358 -1.5665  0.8727 -1.7468
18323TIP3   OH276383   1.869   5.114  10.935 -0.5391  0.3133  0.7581
18323TIP3    H176384   1.876   5.029  10.979  2.0958  0.7989  1.4611
18323TIP3    H276385   1.852   5.092  10.843  2.9244 -1.2453  0.3156
18324TIP3   OH276386   5.891   3.225   5.771  0.3278 -0.3126  0.0015
18324TIP3    H176387   5.904   3.254   5.861 -0.2265 -1.9855  0.6650
18324TIP3    H276388   5.874   3.306   5.722 -1.0755  0.5002  1.7089
18325TIP3   OH276389   2.557   6.581   6.539 -0.2191 -0.0917 -0.6043
18325TIP3    H176390   2.592   6.505   6.587 -0.5292 -0.4434 -0.9286
18325TIP3    H276391   2.589   6.569   6.450 -0.7957 -0.1793 -0.8021
18326TIP3   OH276392   5.597   2.181   4.346  0.2536  0.6869  0.1474
18326TIP3    H176393   5.621   2.252   4.406 -0.7802 -0.0638  1.5098
18326TIP3    H276394   5.544   2.122   4.399 -0.3257 -0.2529 -1.4148
18327TIP3   OH276395   0.964   3.764  15.815  0.3188  0.1290 -0.1274
18327TIP3    H176396   1.051   3.804  15.810  0.6086 -0.4225  0.4283
18327TIP3    H276397   0.957   3.732  15.905 -0.6575  0.6073 -0.0189
18328TIP3   OH276398   0.710   2.363   0.055  0.0952  0.2646 -0.2543
18328TIP3    H176399   0.648   2.291   0.048  0.2793 -0.0381  0.9849
18328TIP3    H276400   0.656   2.439   0.076  0.1264  0.0077  0.7910
18329TIP3   OH276401   4.490   5.586  14.966 -0.6237  0.4881 -0.1802
18329TIP3    H176402   4.570   5.543  14.936 -0.5043  1.8120 -1.9539
18329TIP3    H276403   4.519   5.651  15.029 -0.2819  0.8922 -0.7383
18330TIP3   OH276404   1.532   5.023  10.949  0.2714 -0.3450 -0.2963
18330TIP3    H176405   1.560   4.936  10.920  0.0333 -1.0587  1.4843
18330TIP3    H276406   1.473   5.006  11.022 -1.4727  1.2739 -1.2509
18331TIP3   OH276407   0.988   0.470  14.966 -0.3243 -0.8693 -0.0293
18331TIP3    H176408   1.038   0.522  15.030  0.1394  0.3574 -1.3370
18331TIP3    H276409   1.051   0.406  14.933 -0.2588 -0.8013 -0.0364
18332TIP3   OH276410   2.314   2.716  10.921 -0.1178  0.3988 -0.2870
18332TIP3    H176411   2.235   2.769  10.906 -0.7839 -0.1360  1.1463
18332TIP3    H276412   2.336   2.683  10.834 -2.8571 -1.2992 -0.4747
18333TIP3   OH276413   1.957   1.021   0.006 -0.4764  0.1466 -0.0856
18333TIP3    H176414   1.914   1.104  -0.014  0.8007  0.5149 -1.5055
18333TIP3    H276415   1.912   0.957  -0.049 -0.8764  0.0567  0.3434
18334TIP3   OH276416   2.164   4.675  16.177  0.1543 -0.4510 -0.0814
18334TIP3    H176417   2.169   4.725  16.095  1.6739 -3.3272 -1.9385
18334TIP3    H276418   2.073   4.647  16.182 -0.1186  0.3496 -0.3634
18335TIP3   OH276419   0.236   0.260   2.297 -0.0096 -0.6210  0.2078
18335TIP3    H176420   0.214   0.221   2.381  0.6515  2.5888  2.0467
18335TIP3    H276421   0.325   0.228   2.278  0.0450 -0.9567  1.0160
18336TIP3   OH276422   0.429   3.758  13.595  0.0657 -0.1884 -0.3682
18336TIP3    H176423   0.432   3.692  13.665 -1.0040  0.5369  0.3970
18336TIP3    H276424   0.517   3.796  13.594  0.2447 -0.5650  0.2363
18337TIP3   OH276425   1.445   5.397   0.231  0.1472 -0.5294 -0.1681
18337TIP3    H176426   1.484   5.366   0.149  2.8598 -1.9001  1.5354
18337TIP3    H276427   1.409   5.318   0.272 -0.2574 -0.0241  0.4703
18338TIP3   OH276428   5.495   4.081   2.786 -0.0929 -0.0454 -0.3386
18338TIP3    H176429   5.590   4.079   2.781 -0.1329  0.5361 -1.6502
18338TIP3    H276430   5.475   4.046   2.873  1.3045 -0.2270 -0.0677
18339TIP3   OH276431   6.735   1.795  14.685 -0.3066  0.0287  0.2106
18339TIP3    H176432   6.802   1.741  14.642 -1.4821 -3.0172  1.8563
18339TIP3    H276433   6.674   1.819  14.615  1.0531  0.5755 -0.8320
18340TIP3   OH276434   2.952   0.077   1.958 -0.0272  0.1338  0.1320
18340TIP3    H176435   2.941   0.089   1.863  1.4737 -2.3298 -0.4477
18340TIP3    H276436   3.041   0.043   1.967 -1.0628 -2.3287  2.1036
18341TIP3   OH276437   1.552   4.519  16.107  0.8943  0.3029  0.0674
18341TIP3    H176438   1.459   4.508  16.084  1.4230 -2.3285 -1.2070
18341TIP3    H276439   1.566   4.613  16.107 -2.0736  0.8798  1.6063
18342TIP3   OH276440   1.679   5.096  15.422  0.1141 -0.4565  0.4146
18342TIP3    H176441   1.656   5.075  15.331 -0.5330 -1.4177  0.7824
18342TIP3    H276442   1.632   5.177  15.440 -2.4179 -1.9245  0.8745
18343TIP3   OH276443   1.513   6.254  16.294 -0.0118  0.3340 -0.4146
18343TIP3    H176444   1.509   6.182  16.231 -1.2393  0.9976 -1.1390
18343TIP3    H276445   1.594   6.240  16.342  0.9169 -0.2551 -2.0758
18344TIP3   OH276446   0.864   5.898  13.905  0.3303  0.1635  0.0979
18344TIP3    H176447   0.829   5.850  13.830  0.5825 -1.0983  0.7711
18344TIP3    H276448   0.924   5.961  13.866  0.7206 -0.7046 -0.7498
18345TIP3   OH276449   2.250   6.663   5.364 -0.2725 -0.0975  0.0951
18345TIP3    H176450   2.282   6.624   5.283 -0.9564  1.4778 -0.9756
18345TIP3    H276451   2.297   6.745   5.372  0.0815 -0.4116  1.5434
18346TIP3   OH276452   0.729   0.665  13.385  0.5882  0.0940 -0.0593
18346TIP3    H176453   0.697   0.737  13.439 -0.1643 -1.3025  1.4595
18346TIP3    H276454   0.651   0.616  13.360  0.9790  0.3642 -1.9867
18347TIP3   OH276455   2.829   4.048  10.986  0.5817 -0.1388  0.0498
18347TIP3    H176456   2.789   4.069  11.071  0.3612 -0.1109 -0.0601
18347TIP3    H276457   2.756   4.050  10.925  0.6657 -0.5968 -0.0665
18348TIP3   OH276458   1.154   5.250   4.309  1.0613 -0.0850  0.3638
18348TIP3    H176459   1.214   5.302   4.362  1.1571  0.2468 -0.0676
18348TIP3    H276460   1.197   5.165   4.300  0.4495 -0.6030  1.9241
18349TIP3   OH276461   3.490   4.339   1.852 -0.2234 -0.9362  0.3380
18349TIP3    H176462   3.543   4.298   1.784 -1.2154  0.6480 -1.4911
18349TIP3    H276463   3.402   4.343   1.814 -0.2282  2.6046  0.4358
18350TIP3   OH276464   3.249   4.313   6.469 -0.3934  0.2865 -0.0799
18350TIP3    H176465   3.286   4.374   6.533  0.2529  0.0103 -0.1894
18350TIP3    H276466   3.162   4.292   6.504 -1.0241  1.9799 -0.5031
18351TIP3   OH276467   3.887   4.460  14.435 -0.1704 -0.2649 -0.1535
18351TIP3    H176468   3.969   4.433  14.475  0.3378  1.1175 -0.2018
18351TIP3    H276469   3.826   4.468  14.508  0.2187  0.3747  0.1051
18352TIP3   OH276470   0.383   0.294  15.940  0.1172 -0.3670 -0.1031
18352TIP3    H176471   0.422   0.245  16.012 -0.3746 -0.7347 -0.0809
18352TIP3    H276472   0.445   0.366  15.923 -0.1832  0.2368  1.2516
18353TIP3   OH276473   6.038   0.532   0.244  0.1403  0.6055  0.5988
18353TIP3    H176474   5.971   0.598   0.227  1.6669  2.1569  0.2256
18353TIP3    H276475   5.999   0.450   0.216 -1.2372  1.5975 -0.5218
18354TIP3   OH276476   0.734   5.850   3.701  0.4673  0.3147  0.4040
18354TIP3    H176477   0.658   5.842   3.759 -0.7514  0.2784 -1.1279
18354TIP3    H276478   0.714   5.925   3.645  0.1055 -1.4867 -2.0296
18355TIP3   OH276479   2.997   3.858   5.158 -0.2020 -0.2781 -0.4267
18355TIP3    H176480   3.005   3.953   5.148 -1.8264 -0.1514 -0.8291
18355TIP3    H276481   3.079   3.831   5.200  0.2885  1.2951 -0.3145
18356TIP3   OH276482   0.107   3.666  16.734 -0.0834 -0.2305 -1.0504
18356TIP3    H176483   0.138   3.576  16.741  1.8522  0.5349  1.9721
18356TIP3    H276484   0.165   3.707  16.669  0.9806 -0.4471 -0.2503
18357TIP3   OH276485   5.154   2.124  12.907  0.0875  0.2783 -0.4310
18357TIP3    H176486   5.174   2.034  12.934  1.3649  0.0532 -2.0255
18357TIP3    H276487   5.199   2.135  12.823  0.2748  2.5302 -0.0989
18358TIP3   OH276488   4.543   1.928   4.882  0.3418 -0.2935 -0.2942
18358TIP3    H176489   4.499   1.995   4.935  0.3952  0.0872 -0.7335
18358TIP3    H276490   4.602   1.884   4.944  1.2888  0.9294 -0.2933
18359TIP3   OH276491   4.999   2.461   5.577 -0.3951  0.7157  0.0645
18359TIP3    H176492   4.951   2.543   5.572  0.1123  1.1532  1.7213
18359TIP3    H276493   4.956   2.412   5.646 -0.0719 -0.0031 -0.2314
18360TIP3   OH276494   4.543   2.442   1.126 -0.9602 -0.7335  0.0178
18360TIP3    H176495   4.493   2.380   1.072 -1.0524  0.2635 -1.0623
18360TIP3    H276496   4.634   2.415   1.115 -0.9123 -0.1352 -1.1984
18361TIP3   OH276497   3.948   5.397  13.855  0.3887 -0.5922  0.1699
18361TIP3    H176498   3.959   5.351  13.772  0.2607  0.5698 -0.5223
18361TIP3    H276499   4.031   5.384  13.901  1.3412  0.5662 -1.1082
18362TIP3   OH276500   5.042   4.179   1.388  0.1096  0.0393 -0.3572
18362TIP3    H176501   4.995   4.096   1.385  1.7345 -1.0506  1.6421
18362TIP3    H276502   5.094   4.180   1.308  1.2436 -1.6773  0.3063
18363TIP3   OH276503   1.036   3.425   2.562  0.2233 -0.2782 -0.4385
18363TIP3    H176504   1.045   3.331   2.546  2.9185 -0.2840  0.6418
18363TIP3    H276505   1.121   3.461   2.538  0.4241  1.3740  2.3602
18364TIP3   OH276506   4.061   1.637  11.752  0.4461  0.1307  0.0786
18364TIP3    H176507   4.060   1.554  11.800 -0.7195 -0.2785 -0.6049
18364TIP3    H276508   4.147   1.639  11.709  0.2638 -1.0079 -0.3634
18365TIP3   OH276509   6.352   5.086   4.504 -0.3063 -0.1306 -0.6371
18365TIP3    H176510   6.414   5.042   4.445  0.6615 -1.3553  1.1782
18365TIP3    H276511   6.282   5.021   4.518  0.4821 -0.6740  1.0607
18366TIP3   OH276512   4.259   2.098   4.070  0.2375  0.2939  0.1580
18366TIP3    H176513   4.336   2.129   4.118 -0.3172 -0.9475  1.9563
18366TIP3    H276514   4.208   2.050   4.135 -1.7770  0.5584 -1.1260
18367TIP3   OH276515   1.909   5.007  12.597 -0.1983  0.2453  0.1823
18367TIP3    H176516   1.859   4.933  12.565  1.9765 -1.1711 -0.1901
18367TIP3    H276517   1.981   4.968  12.648  0.2887  2.1541  1.0761
18368TIP3   OH276518   3.657   1.294   5.774 -0.0000  0.3856 -0.3420
18368TIP3    H176519   3.575   1.314   5.730 -1.6343  0.3385  2.4732
18368TIP3    H276520   3.655   1.346   5.854  2.0977 -0.6450  0.4549
18369TIP3   OH276521   6.637   5.651  12.880  0.1242 -0.1114 -0.3033
18369TIP3    H176522   6.652   5.605  12.963 -0.4362 -0.1312 -0.2105
18369TIP3    H276523   6.715   5.705  12.869 -0.5219  1.1979  1.1226
18370TIP3   OH276524   5.089   0.095  12.865 -0.1124  0.3793 -0.3418
18370TIP3    H176525   5.148   0.067  12.935  0.5052  1.6386 -0.3288
18370TIP3    H276526   5.078   0.189  12.879 -0.4472  0.5502 -1.5840
18371TIP3   OH276527   4.094   0.150  13.899 -0.3002  0.3025 -0.4077
18371TIP3    H176528   4.058   0.125  13.984  0.2455 -0.8435 -0.4954
18371TIP3    H276529   4.020   0.188  13.852 -0.8414  0.0616  0.2257
18372TIP3   OH276530   0.426   2.629   2.180  0.4311  0.0028  0.2038
18372TIP3    H176531   0.480   2.620   2.101  0.6054 -1.5139  0.4583
18372TIP3    H276532   0.356   2.564   2.169 -0.8648  1.3476  0.2831
18373TIP3   OH276533   6.089   3.659   5.466 -0.0725  0.2471  0.0057
18373TIP3    H176534   6.144   3.615   5.531  1.8593 -0.0348 -1.7043
18373TIP3    H276535   6.059   3.589   5.407 -1.4373  0.5477  0.3051
18374TIP3   OH276536   3.405   3.813  11.617  0.3433 -0.3107  0.3608
18374TIP3    H176537   3.459   3.889  11.596 -0.5479  0.4504  0.7408
18374TIP3    H276538   3.388   3.771  11.533 -0.3601  0.7439 -0.0352
18375TIP3   OH276539   6.037   2.942   1.112 -0.2004  0.1240  0.5128
18375TIP3    H176540   6.029   2.960   1.019  1.8436  1.7607  0.5802
18375TIP3    H276541   6.075   2.855   1.117 -0.0102  0.1645 -0.1881
18376TIP3   OH276542   0.487   5.482   3.398  0.6893  0.4553  1.0263
18376TIP3    H176543   0.531   5.508   3.478  2.3061 -0.0342  0.3424
18376TIP3    H276544   0.441   5.401   3.420  0.9412  0.4415  1.4971
18377TIP3   OH276545   3.876   5.187  12.025  0.3341  0.2597 -0.7534
18377TIP3    H176546   3.945   5.191  11.959  1.1344  3.0532  0.1437
18377TIP3    H276547   3.902   5.115  12.083  2.4358  1.1435 -0.5280
18378TIP3   OH276548   1.244   4.135   2.862 -0.4753  0.6446 -0.6264
18378TIP3    H176549   1.326   4.109   2.820 -0.5766  2.1606 -1.8531
18378TIP3    H276550   1.261   4.223   2.895 -0.9438  0.1351  1.0884
18379TIP3   OH276551   6.154   2.782  12.690  0.4180 -0.2688  0.0006
18379TIP3    H176552   6.074   2.748  12.648 -0.8673  3.1900 -0.6801
18379TIP3    H276553   6.199   2.831  12.621  0.7743  1.5202  1.4235
18380TIP3   OH276554   6.295   4.100   5.864  0.2257  0.1616  0.4463
18380TIP3    H176555   6.337   4.088   5.949 -1.7271  1.0241  1.5942
18380TIP3    H276556   6.201   4.096   5.882 -0.2521 -0.3568 -1.7933
18381TIP3   OH276557   2.745   3.694  16.062 -0.0003 -0.1048 -0.4388
18381TIP3    H176558   2.787   3.671  15.979  2.2765  0.2643  0.5309
18381TIP3    H276559   2.748   3.790  16.065  0.9668 -0.1486  0.5336
18382TIP3   OH276560   3.565   0.046   5.474 -0.3179  0.1437  0.1589
18382TIP3    H176561   3.564  -0.003   5.556 -1.2922  0.5808  0.4192
18382TIP3    H276562   3.576  -0.021   5.406  0.0383 -0.2643  0.6084
18383TIP3   OH276563   5.800   4.374   5.375  0.2903 -0.5685  0.2067
18383TIP3    H176564   5.874   4.366   5.436  0.6168 -0.3207 -0.1518
18383TIP3    H276565   5.725   4.393   5.432  0.0914 -2.8062  0.7675
18384TIP3   OH276566   6.175   1.710   0.280  0.2197 -0.1601  0.0916
18384TIP3    H176567   6.202   1.779   0.341 -0.2951 -0.7924  1.0628
18384TIP3    H276568   6.251   1.651   0.276 -0.4432 -1.2026  1.7484
18385TIP3   OH276569   2.895   0.837   1.003  0.5787  0.5774  0.5123
18385TIP3    H176570   2.801   0.854   0.996  0.7794  1.2674 -0.8591
18385TIP3    H276571   2.936   0.924   1.000  1.3385  0.2032 -0.7588
18386TIP3   OH276572   4.256   3.890  17.231 -0.3038 -0.4904  0.6238
18386TIP3    H176573   4.190   3.948  17.193  0.5713  0.0192 -0.1397
18386TIP3    H276574   4.275   3.827  17.162 -0.0580 -0.7006  0.8808
18387TIP3   OH276575   2.077   4.344  14.825 -0.7814  0.3441 -0.1424
18387TIP3    H176576   1.995   4.331  14.872 -1.4502  1.0851 -1.0798
18387TIP3    H276577   2.130   4.397  14.884 -1.4430  0.8909 -0.0356
18388TIP3   OH276578   1.101   0.995  14.934 -0.4476  0.1389 -0.1360
18388TIP3    H176579   1.171   1.045  14.892 -0.4804 -1.1067 -1.7443
18388TIP3    H276580   1.118   1.004  15.028  1.3551  0.5621 -0.4764
18389TIP3   OH276581   4.526   3.036   4.053  0.9998 -0.5750 -0.3449
18389TIP3    H176582   4.616   3.046   4.084  1.3156  1.1605 -1.6366
18389TIP3    H276583   4.491   2.962   4.103  2.7613 -0.5557  1.0238
18390TIP3   OH276584   0.812   3.347   4.875 -0.2790 -0.0450  0.0984
18390TIP3    H176585   0.747   3.414   4.898 -0.2016  0.4108 -0.9405
18390TIP3    H276586   0.895   3.395   4.869 -0.2692 -0.1633 -0.9324
18391TIP3   OH276587   6.477   4.493   1.735  0.1898 -0.1254  0.0130
18391TIP3    H176588   6.395   4.448   1.756  0.4026 -0.8691 -0.7258
18391TIP3    H276589   6.478   4.569   1.794  0.0394 -1.3116  1.6075
18392TIP3   OH276590   1.393   6.490   1.927 -0.6149 -0.0147  0.0711
18392TIP3    H176591   1.408   6.424   1.858  2.1384 -1.2268  1.6873
18392TIP3    H276592   1.443   6.566   1.899  0.2148 -0.3821  0.5263
18393TIP3   OH276593   0.892   5.248  12.578  0.4745  0.5542 -0.1336
18393TIP3    H176594   0.869   5.267  12.487  0.6744 -0.6283 -0.4479
18393TIP3    H276595   0.923   5.331  12.613 -1.0940  1.4042 -0.6749
18394TIP3   OH276596   2.034   5.530   3.237  0.0063 -0.3778  0.3119
18394TIP3    H176597   2.069   5.591   3.173  0.8972 -0.3481  0.8177
18394TIP3    H276598   1.939   5.534   3.224  0.0846  0.6940 -0.0333
18395TIP3   OH276599   6.718   1.910   4.259 -0.4060  0.4463 -0.4475
18395TIP3    H176600   6.712   1.989   4.206  1.8602  1.7776  1.0701
18395TIP3    H276601   6.793   1.926   4.318 -0.2282 -2.5785  0.3493
18396TIP3   OH276602   4.318   1.419  12.233  0.7770  0.8077  0.5818
18396TIP3    H176603   4.397   1.365  12.242 -1.1148 -2.7737 -2.0160
18396TIP3    H276604   4.330   1.464  12.150 -0.3551 -0.8307 -0.5326
18397TIP3   OH276605   3.790   3.346   3.467  0.4302 -0.2275  0.2644
18397TIP3    H176606   3.874   3.342   3.513  1.0135  0.6309 -0.6749
18397TIP3    H276607   3.788   3.266   3.415  0.6225 -0.3003  0.3656
18398TIP3   OH276608   0.188   2.135   2.647 -0.1315  0.3562  0.3238
18398TIP3    H176609   0.197   2.226   2.620 -0.5242  0.8130  1.6520
18398TIP3    H276610   0.277   2.102   2.653 -0.0448 -0.0744 -2.4285
18399TIP3   OH276611   5.771   0.863   2.427  0.2447 -0.0772  0.6421
18399TIP3    H176612   5.852   0.894   2.468  0.6293 -0.8178  0.4436
18399TIP3    H276613   5.790   0.862   2.334 -0.3039  0.6262  0.5067
18400TIP3   OH276614   2.262   4.152  12.778 -0.2340 -0.9979  0.1071
18400TIP3    H176615   2.347   4.167  12.819 -0.5200  0.0281  0.3467
18400TIP3    H276616   2.281   4.144  12.685  0.3787 -3.0047  0.3529
18401TIP3   OH276617   0.573   2.374  16.408 -0.5764  0.4182  0.9313
18401TIP3    H176618   0.522   2.293  16.417 -0.8910  0.7803  3.4015
18401TIP3    H276619   0.644   2.352  16.349 -1.1197 -1.4340  0.8996
18402TIP3   OH276620   4.050   0.854  15.082  0.6535  0.4924 -0.0246
18402TIP3    H176621   4.133   0.858  15.034 -0.1578  0.6843 -1.4859
18402TIP3    H276622   4.065   0.906  15.161  2.6229 -1.3817  0.9165
18403TIP3   OH276623   4.891   4.443  15.059  0.1804  0.0733  0.0594
18403TIP3    H176624   4.903   4.429  15.153 -0.6658 -4.0505 -0.2577
18403TIP3    H276625   4.797   4.445  15.047  0.2835  0.7845 -0.7106
18404TIP3   OH276626   4.260   1.692   5.512 -0.3106 -0.5068  0.0456
18404TIP3    H176627   4.276   1.786   5.508  0.7544 -0.6550  0.5738
18404TIP3    H276628   4.165   1.683   5.499 -0.1483  0.4656 -2.3159
18405TIP3   OH276629   3.702   0.435   4.446 -0.8848  0.1997  0.7808
18405TIP3    H176630   3.781   0.468   4.402  0.1291 -0.1291  2.2849
18405TIP3    H276631   3.647   0.403   4.375 -1.2819  3.6635 -0.6936
18406TIP3   OH276632   5.806   4.132   4.361 -0.7196 -0.3246  0.5335
18406TIP3    H176633   5.777   4.057   4.309 -1.6898 -0.4193  1.1774
18406TIP3    H276634   5.760   4.207   4.324  1.2333  0.2321 -0.9578
18407TIP3   OH276635   1.347   1.152  16.286  0.2973  0.1364 -0.1145
18407TIP3    H176636   1.427   1.168  16.334 -0.2682  2.5821  0.1206
18407TIP3    H276637   1.354   1.207  16.208 -0.4917 -0.8134 -0.8946
18408TIP3   OH276638   0.345   1.823   3.077 -0.5836  0.4274  0.3514
18408TIP3    H176639   0.426   1.808   3.125 -1.7404  0.3029  2.3547
18408TIP3    H276640   0.363   1.901   3.024  0.9673  0.1348  0.3903
18409TIP3   OH276641   1.744   2.199  14.263  0.1420  0.0307 -0.1521
18409TIP3    H176642   1.664   2.227  14.217 -0.3447 -0.3742  0.4407
18409TIP3    H276643   1.800   2.165  14.194 -1.2046 -2.0343 -0.2941
18410TIP3   OH276644   2.512   6.490   1.871 -0.5900  0.1823 -0.5292
18410TIP3    H176645   2.420   6.507   1.890 -0.2699  0.9976  0.3040
18410TIP3    H276646   2.557   6.571   1.891  0.3355 -0.2287 -0.8651
18411TIP3   OH276647   1.900   3.473   3.536  0.2058  0.6705  0.2211
18411TIP3    H176648   1.864   3.480   3.447 -0.5150 -1.5069  0.2699
18411TIP3    H276649   1.891   3.561   3.572 -2.0068  1.0061 -0.9565
18412TIP3   OH276650   0.839   1.290   3.390  0.4636 -0.1999  0.6777
18412TIP3    H176651   0.744   1.279   3.386  0.3139  0.2581  2.3721
18412TIP3    H276652   0.870   1.208   3.429  0.7408 -0.1994  0.4626
18413TIP3   OH276653   3.629   6.237  13.187  0.6709 -0.2034  0.3393
18413TIP3    H176654   3.551   6.277  13.148  0.9173  0.0203  0.0681
18413TIP3    H276655   3.702   6.275  13.138  0.9997  0.2152  1.1424
18414TIP3   OH276656   4.778   5.550  13.600  0.2289  0.1934 -0.1536
18414TIP3    H176657   4.737   5.554  13.513 -0.5997 -1.6757  0.1236
18414TIP3    H276658   4.865   5.513  13.583  0.5373  0.9605 -0.3099
18415TIP3   OH276659   4.545   3.094  16.776  0.4496  0.0438 -0.4626
18415TIP3    H176660   4.554   3.011  16.729  0.5443 -1.2068  1.6067
18415TIP3    H276661   4.635   3.126  16.786  0.5860 -0.5189  0.2127
18416TIP3   OH276662   1.439   5.099  16.281  0.5556 -0.4782 -0.2336
18416TIP3    H176663   1.462   5.092  16.188  0.7706 -0.8881 -0.1570
18416TIP3    H276664   1.451   5.010  16.314 -0.5763 -0.5742 -0.0479
18417TIP3   OH276665   3.738   3.073  10.900 -0.5862 -0.2778  0.6187
18417TIP3    H176666   3.715   3.101  10.989 -1.5601 -2.9485  1.3157
18417TIP3    H276667   3.831   3.050  10.905 -0.7071 -0.6864  1.0336
18418TIP3   OH276668   1.882   5.808  14.277 -0.3164 -0.8782 -0.3199
18418TIP3    H176669   1.871   5.903  14.280 -0.6449 -0.8924 -0.9506
18418TIP3    H276670   1.793   5.774  14.266 -0.4196 -1.3612  1.5936
18419TIP3   OH276671   0.072   2.037  15.227 -0.3984 -0.2211 -0.2517
18419TIP3    H176672   0.081   1.948  15.192 -1.0429  0.5559 -2.5801
18419TIP3    H276673   0.145   2.086  15.189 -1.5185  0.8188 -1.1601
18420TIP3   OH276674   5.799   4.916   0.275 -0.0175 -0.2286  0.5907
18420TIP3    H176675   5.851   4.968   0.336  1.8340 -1.4223  0.1084
18420TIP3    H276676   5.759   4.848   0.329 -1.6983  1.0761  1.0714
18421TIP3   OH276677   1.589   0.170  16.530  0.5490  0.1091  0.5475
18421TIP3    H176678   1.512   0.119  16.552  0.7731  0.1543  1.4753
18421TIP3    H276679   1.580   0.188  16.436 -1.5053  1.6692  0.9778
18422TIP3   OH276680   6.341   2.225  15.748 -0.4431 -0.1234 -0.0528
18422TIP3    H176681   6.250   2.197  15.744 -0.4758 -0.3450  1.6905
18422TIP3    H276682   6.379   2.192  15.667 -2.2008  1.1475 -1.4781
18423TIP3   OH276683   5.758   1.283  13.714 -0.1098  0.0292 -0.2571
18423TIP3    H176684   5.694   1.232  13.763  0.7787 -0.7280  0.1466
18423TIP3    H276685   5.744   1.374  13.743  0.6991 -0.4497  1.7921
18424TIP3   OH276686   2.388   3.631   3.171 -0.1747  0.3950 -0.2374
18424TIP3    H176687   2.403   3.558   3.111  1.3506 -0.7487  1.4437
18424TIP3    H276688   2.474   3.651   3.207 -0.4393  3.4589 -1.0436
18425TIP3   OH276689   2.647   6.682  14.315  0.0450 -0.2165 -0.3756
18425TIP3    H176690   2.593   6.728  14.251  0.0476 -0.4111 -0.5196
18425TIP3    H276691   2.615   6.591  14.312  0.7687 -0.4566 -0.8768
18426TIP3   OH276692   2.610   1.407  14.123  0.3141  0.2585  0.1834
18426TIP3    H176693   2.518   1.384  14.115  0.3773  0.0768 -0.0106
18426TIP3    H276694   2.648   1.389  14.037  0.4965  0.4901  0.2106
18427TIP3   OH276695   0.821   2.924   4.380 -0.3308 -0.0734 -0.7414
18427TIP3    H176696   0.898   2.948   4.328  0.7372 -0.2016  0.6905
18427TIP3    H276697   0.784   2.848   4.336  0.8781 -0.5371 -1.0044
18428TIP3   OH276698   3.248   2.182   0.715 -0.4374 -0.5743  0.1676
18428TIP3    H176699   3.319   2.123   0.689  1.3461  0.5747  2.1170
18428TIP3    H276700   3.184   2.124   0.757 -0.7799 -1.6397 -1.7106
18429TIP3   OH276701   2.736   6.600   4.224 -0.0475 -0.1203 -0.2962
18429TIP3    H176702   2.786   6.680   4.213  1.4891 -0.9889  0.0884
18429TIP3    H276703   2.717   6.571   4.135  0.3850  0.0659 -0.4511
18430TIP3   OH276704   1.261   3.398  14.111  0.0468 -0.3722 -0.0222
18430TIP3    H176705   1.244   3.319  14.162 -1.9891  0.6703  0.9822
18430TIP3    H276706   1.276   3.467  14.175  0.3015  0.3938 -0.8699
18431TIP3   OH276707   2.423   6.407   2.479 -0.0061 -0.4541  0.6070
18431TIP3    H176708   2.333   6.436   2.462 -0.2944 -0.9473  1.2751
18431TIP3    H276709   2.422   6.314   2.459  0.1324 -0.6444  1.4610
18432TIP3   OH276710   6.138   2.823  15.073  0.0575 -0.0663  0.0021
18432TIP3    H176711   6.138   2.912  15.038 -1.2225 -0.7283 -1.8479
18432TIP3    H276712   6.047   2.794  15.066  0.4761 -1.6015  0.3353
18433TIP3   OH276713   1.789   1.476  14.530  0.1867 -0.2750 -0.1059
18433TIP3    H176714   1.724   1.415  14.564 -0.1675 -0.1370 -0.5341
18433TIP3    H276715   1.740   1.557  14.513  0.8744  0.5903  1.6757
18434TIP3   OH276716   1.593   6.060   0.340  0.2568 -0.2263 -0.6013
18434TIP3    H176717   1.525   6.113   0.298 -0.2584 -0.4313 -0.0548
18434TIP3    H276718   1.545   6.006   0.403  0.9991  0.1297  0.3013
18435TIP3   OH276719   4.712   2.519   0.176  0.4957 -0.1234  0.7549
18435TIP3    H176720   4.666   2.481   0.251  0.1612 -1.2477  0.0065
18435TIP3    H276721   4.770   2.449   0.145  1.3036  0.6323  0.5114
18436TIP3   OH276722   4.350   5.513   5.445  0.2109  0.1305 -0.4559
18436TIP3    H176723   4.323   5.504   5.536  1.5591  2.3110  0.2168
18436TIP3    H276724   4.268   5.530   5.397 -0.6009 -1.7094  0.1693
18437TIP3   OH276725   5.055   5.403  12.620 -0.3750  0.1693  0.1785
18437TIP3    H176726   4.976   5.434  12.577 -0.6739 -0.1820  0.4670
18437TIP3    H276727   5.119   5.474  12.608 -1.5730  1.7319  2.4278
18438TIP3   OH276728   4.872   1.730   0.580 -0.2165  0.0941 -0.4816
18438TIP3    H176729   4.817   1.774   0.644  0.0404  0.8046 -0.7376
18438TIP3    H276730   4.811   1.691   0.518 -0.4675 -0.5700  0.1566
18439TIP3   OH276731   4.042   5.430   1.136 -0.3741  0.1246  0.1819
18439TIP3    H176732   3.952   5.411   1.161 -0.5985  1.5469  0.5278
18439TIP3    H276733   4.054   5.381   1.054 -1.2551 -0.5503  0.4351
18440TIP3   OH276734   2.834   2.646  11.608 -0.0930 -0.0936 -0.0426
18440TIP3    H176735   2.757   2.699  11.586 -2.0810 -2.4956  0.6804
18440TIP3    H276736   2.855   2.600  11.527  0.3882  0.2791 -0.1363
18441TIP3   OH276737   5.326   0.900   1.430 -0.1507  0.6350 -0.5055
18441TIP3    H176738   5.277   0.869   1.354  2.0423 -0.0813 -1.7195
18441TIP3    H276739   5.309   0.834   1.497 -0.0364 -0.1474 -1.2298
18442TIP3   OH276740   1.897   2.043  15.995  0.3613 -0.4144 -0.9899
18442TIP3    H176741   1.921   2.116  16.052  1.0489  0.3812 -2.2428
18442TIP3    H276742   1.820   2.003  16.037  0.7394  0.2478  0.3684
18443TIP3   OH276743   6.703   6.738   3.193 -0.8022  0.1920 -0.1790
18443TIP3    H176744   6.688   6.755   3.100 -0.6002 -1.7969 -0.6243
18443TIP3    H276745   6.637   6.673   3.217 -0.7804  0.5890  1.0547
18444TIP3   OH276746   5.649   6.451   0.202  0.2028  0.8209 -0.0584
18444TIP3    H176747   5.571   6.503   0.183 -1.1507 -0.7033  1.0996
18444TIP3    H276748   5.691   6.498   0.275 -1.0197  0.3325  0.9954
18445TIP3   OH276749   0.687   4.301  12.308 -0.6214  0.6339 -0.0232
18445TIP3    H176750   0.592   4.299  12.303 -0.6555  2.5686 -1.4190
18445TIP3    H276751   0.714   4.210  12.298 -2.2913  0.1839 -0.7153
18446TIP3   OH276752   0.551   1.573  16.187  0.4852  0.0850 -0.1224
18446TIP3    H176753   0.483   1.638  16.202  0.4024  0.3147 -1.3282
18446TIP3    H276754   0.609   1.579  16.263 -0.2847  0.5889  0.4336
18447TIP3   OH276755   3.182   5.343   0.312 -0.6720 -0.1802  0.2551
18447TIP3    H176756   3.247   5.349   0.242 -1.4818 -1.2838 -0.6121
18447TIP3    H276757   3.099   5.368   0.271 -0.6514  2.8277  1.7286
18448TIP3   OH276758   5.269   6.019   2.481 -0.3137 -0.1154  0.4402
18448TIP3    H176759   5.343   5.979   2.528 -0.4572  1.8589  2.5567
18448TIP3    H276760   5.265   6.108   2.516 -0.8728  1.3569 -2.9997
18449TIP3   OH276761   3.077   5.190  15.612 -0.0280  0.8576  0.2195
18449TIP3    H176762   2.987   5.223  15.615  0.4800  2.2361  1.9800
18449TIP3    H276763   3.132   5.267  15.629  1.4594 -0.0761 -0.1192
18450TIP3   OH276764   6.604   3.197   3.262 -0.0858 -0.0846  0.4071
18450TIP3    H176765   6.683   3.158   3.298  0.1464  0.1850  0.1961
18450TIP3    H276766   6.534   3.137   3.286  0.2594 -0.6132  0.1187
18451TIP3   OH276767   2.311   0.350  11.776 -0.4370 -0.0712  0.0666
18451TIP3    H176768   2.235   0.298  11.748 -2.9367  3.2556  0.0464
18451TIP3    H276769   2.303   0.355  11.871  0.3471 -0.4299  0.1618
18452TIP3   OH276770   0.616   2.894   6.078 -0.5582  0.4656 -0.3847
18452TIP3    H176771   0.598   2.961   6.144  0.3602  0.7727 -0.4383
18452TIP3    H276772   0.660   2.824   6.127 -1.0880  0.0969 -0.4206
18453TIP3   OH276773   6.463   3.414  16.757 -0.2219 -0.6892  0.5536
18453TIP3    H176774   6.485   3.450  16.671  0.4723 -2.4982 -0.0717
18453TIP3    H276775   6.422   3.487  16.804  1.6271  1.0686 -0.4144
18454TIP3   OH276776   5.318   0.388   0.913 -0.1526  0.0578 -0.1752
18454TIP3    H176777   5.250   0.422   0.855 -0.8499  0.0593  0.6084
18454TIP3    H276778   5.394   0.442   0.896 -0.5285  0.4465 -0.6491
18455TIP3   OH276779   0.549   6.668  12.446 -0.0194 -0.0262  0.1969
18455TIP3    H176780   0.609   6.636  12.379  2.2542  1.6366  1.3077
18455TIP3    H276781   0.525   6.591  12.496  0.9169 -0.7893 -0.4843
18456TIP3   OH276782   2.965   2.695   4.254 -0.5200 -0.0140  0.2815
18456TIP3    H176783   3.033   2.754   4.222 -0.7222  0.6832  1.0835
18456TIP3    H276784   2.971   2.701   4.350 -1.8520  0.2462  0.3712
18457TIP3   OH276785   4.339   6.566   0.564 -0.0648 -0.0016 -0.0339
18457TIP3    H176786   4.307   6.552   0.474  1.9458  1.0490 -0.9831
18457TIP3    H276787   4.308   6.653   0.587 -1.7997 -0.8173  0.9146
18458TIP3   OH276788   0.835   3.405  10.505  0.0545 -0.1296 -0.1802
18458TIP3    H176789   0.810   3.332  10.563 -1.1977 -1.0872 -1.8279
18458TIP3    H276790   0.779   3.478  10.533 -1.1347 -0.8251 -0.6589
18459TIP3   OH276791   5.574   0.147  16.544  0.0415 -0.3720  0.2279
18459TIP3    H176792   5.520   0.203  16.488 -0.9117  0.0924  1.5662
18459TIP3    H276793   5.609   0.206  16.611 -1.0926 -1.3653  1.7538
18460TIP3   OH276794   6.719   3.487   1.124  0.0937  0.1896  0.0951
18460TIP3    H176795   6.748   3.458   1.038  1.6721  1.6849  0.0760
18460TIP3    H276796   6.640   3.538   1.107  0.4351  0.5357 -0.4854
18461TIP3   OH276797   6.531   5.616  15.503 -0.1142 -0.6632  0.0100
18461TIP3    H176798   6.449   5.568  15.515  0.0933 -0.9576  0.2431
18461TIP3    H276799   6.551   5.606  15.410 -0.4187 -0.4690 -0.0778
18462TIP3   OH276800   6.029   2.819  15.872 -0.1469 -0.5118  0.3571
18462TIP3    H176801   6.081   2.744  15.844 -2.3679 -2.3061  0.8009
18462TIP3    H276802   5.955   2.821  15.811 -0.5614  0.8263  0.8732
18463TIP3   OH276803   5.421   3.796  14.665  0.0996  0.1304 -0.3610
18463TIP3    H176804   5.427   3.891  14.669  0.0708  0.1522 -0.7914
18463TIP3    H276805   5.509   3.765  14.687  0.3793  0.2907 -1.2050
18464TIP3   OH276806   2.438   6.120   1.395  0.1537  0.2764 -0.1442
18464TIP3    H176807   2.465   6.125   1.304 -0.4866 -1.6641 -0.4857
18464TIP3    H276808   2.443   6.027   1.417  0.4203  0.7120  1.8516
18465TIP3   OH276809   2.323   6.403   2.181  0.1444  0.7101  0.0345
18465TIP3    H176810   2.369   6.410   2.097 -0.2274 -1.9399 -0.4995
18465TIP3    H276811   2.364   6.329   2.225  0.0887  1.8414  2.0690
18466TIP3   OH276812   2.123   0.537   5.976 -0.2264  0.3079  0.2786
18466TIP3    H176813   2.089   0.617   6.014  1.7226  1.0656  0.5403
18466TIP3    H276814   2.206   0.522   6.021  0.3861 -0.7807 -1.1224
18467TIP3   OH276815   5.779   1.715   1.605 -0.6368 -0.0462 -0.0888
18467TIP3    H176816   5.695   1.724   1.649 -1.1047 -3.1910 -0.1143
18467TIP3    H276817   5.779   1.625   1.572  2.0982  0.3633 -1.4761
18468TIP3   OH276818   1.791   5.925  13.763 -0.0944 -0.4010 -0.6595
18468TIP3    H176819   1.867   5.881  13.802  0.7544  1.6596  0.1371
18468TIP3    H276820   1.735   5.946  13.838  0.2161  1.1443 -0.8424
18469TIP3   OH276821   0.826   0.832  15.274  0.0577 -1.1042  0.6810
18469TIP3    H176822   0.768   0.757  15.288 -0.4060 -0.7891  0.4937
18469TIP3    H276823   0.907   0.794  15.240 -1.0450 -1.3316 -1.9272
18470TIP3   OH276824   1.467   1.333   3.801  0.0854  0.1269  0.2804
18470TIP3    H176825   1.459   1.239   3.789 -0.1036  0.2800 -0.8565
18470TIP3    H276826   1.398   1.371   3.746 -0.6838  0.8901  1.7054
18471TIP3   OH276827   5.181   1.118   3.887 -0.5716 -0.1359  0.2811
18471TIP3    H176828   5.125   1.126   3.809 -1.9517 -0.4070  1.2075
18471TIP3    H276829   5.129   1.155   3.958  1.5310  2.1744  0.7417
18472TIP3   OH276830   3.140   5.154  15.355  0.1501 -0.0690  0.0155
18472TIP3    H176831   3.091   5.079  15.321 -1.0633 -0.2328  1.9858
18472TIP3    H276832   3.090   5.183  15.431  1.4393  1.7850  0.2189
18473TIP3   OH276833   4.750   6.538  13.456  0.3189  1.0963  0.2753
18473TIP3    H176834   4.674   6.525  13.401 -0.0548  0.0085  1.0164
18473TIP3    H276835   4.825   6.532  13.397 -0.0985  0.4747 -0.1941
18474TIP3   OH276836   1.513   3.702  13.884 -0.1345 -0.0529 -0.5307
18474TIP3    H176837   1.516   3.611  13.855  1.2020 -1.1020  2.4861
18474TIP3    H276838   1.604   3.732  13.878 -0.1965  0.3672  0.4513
18475TIP3   OH276839   4.476   2.749   1.331 -0.4262 -0.3060 -0.7030
18475TIP3    H176840   4.546   2.692   1.300  0.3351 -0.5608  1.3597
18475TIP3    H276841   4.429   2.696   1.397 -0.4888  0.9887  0.3271
18476TIP3   OH276842   4.328   1.037   1.619 -0.2856 -0.2769  0.1123
18476TIP3    H176843   4.409   1.054   1.666  0.4992 -1.8924 -0.5717
18476TIP3    H276844   4.292   0.959   1.660 -1.2701  0.1521  0.1005
18477TIP3   OH276845   2.228   0.823   6.500 -0.1438 -0.4977 -0.1358
18477TIP3    H176846   2.197   0.911   6.519 -2.2384 -0.9435 -1.1245
18477TIP3    H276847   2.153   0.767   6.519  0.4546 -1.8324 -1.4941
18478TIP3   OH276848   6.174   2.109   3.813  0.7289 -0.2101 -0.5546
18478TIP3    H176849   6.138   2.130   3.727  1.0676 -0.9045 -0.8724
18478TIP3    H276850   6.219   2.188   3.840  0.4744  0.0703 -0.9405
18479TIP3   OH276851   6.198   5.370   4.874  0.2190 -0.2109 -0.7770
18479TIP3    H176852   6.286   5.390   4.905  0.3760 -0.5838 -0.9774
18479TIP3    H276853   6.153   5.454   4.875  0.0219 -0.2943  1.0576
18480TIP3   OH276854   1.861   5.957  17.042  0.1059 -0.2349  0.0703
18480TIP3    H176855   1.860   5.992  16.953  0.0354 -0.0155  0.1567
18480TIP3    H276856   1.770   5.963  17.071  0.3139  0.7125  0.5499
18481TIP3   OH276857   1.928   6.711   2.839 -0.4918  0.3906  0.3030
18481TIP3    H176858   1.988   6.638   2.856  0.1013  0.8543  0.2407
18481TIP3    H276859   1.866   6.708   2.912  0.0858  0.3860  0.8023
18482TIP3   OH276860   2.063   1.959   5.757 -0.0614 -0.3754  0.1420
18482TIP3    H176861   2.095   2.034   5.807 -1.1125 -1.1427  2.0754
18482TIP3    H276862   2.132   1.893   5.764 -0.6650 -0.8880  1.6130
18483TIP3   OH276863   2.518   2.059   0.320 -0.0744 -0.6312  0.1380
18483TIP3    H176864   2.504   1.976   0.365  3.3648 -1.8154 -0.7014
18483TIP3    H276865   2.589   2.041   0.259  0.3081  2.7921 -0.5993
18484TIP3   OH276866   6.421   4.226   5.220  0.8356  0.1047 -0.2283
18484TIP3    H176867   6.473   4.222   5.300 -0.5362  1.1765  0.7446
18484TIP3    H276868   6.338   4.185   5.242  0.5737  0.0517 -1.2321
18485TIP3   OH276869   1.027   1.661  11.759 -0.2966  0.5777  0.1979
18485TIP3    H176870   1.001   1.587  11.814 -0.1105  0.1313 -0.3020
18485TIP3    H276871   1.107   1.693  11.800  0.4840 -0.4778 -0.4515
18486TIP3   OH276872   4.985   5.227   2.083  0.8436  0.2698 -0.0652
18486TIP3    H176873   4.927   5.151   2.083  2.7692 -1.2839  0.4029
18486TIP3    H276874   5.059   5.201   2.028  2.1591  1.2845  1.1318
18487TIP3   OH276875   4.712   4.891  13.271  0.0234 -0.5353  0.4542
18487TIP3    H176876   4.621   4.895  13.299 -0.4836  0.1412 -1.1584
18487TIP3    H276877   4.746   4.811  13.311 -0.5337  0.4647  3.0943
18488TIP3   OH276878   6.148   5.245   3.295  0.4366  0.0118  0.4519
18488TIP3    H176879   6.185   5.306   3.358 -0.4124 -0.2575  1.2316
18488TIP3    H276880   6.140   5.163   3.342  1.5417 -0.7281 -0.5830
18489TIP3   OH276881   0.243   2.430   2.174 -0.1952  0.0872  0.3037
18489TIP3    H176882   0.154   2.399   2.195  0.4728 -1.2664  1.2560
18489TIP3    H276883   0.291   2.351   2.152  1.7770  0.2471  3.4702
18490TIP3   OH276884   3.438   0.433   1.325  0.1989  0.7671  0.6111
18490TIP3    H176885   3.361   0.385   1.353 -0.7743  2.6975  1.4226
18490TIP3    H276886   3.477   0.378   1.257 -1.8870 -0.2531  0.1525
18491TIP3   OH276887   1.429   5.508  16.810  0.5578  0.3946  0.9213
18491TIP3    H176888   1.505   5.566  16.813  0.2391  0.8094  1.0381
18491TIP3    H276889   1.356   5.562  16.840 -0.0070  0.3323 -0.2875
18492TIP3   OH276890   6.606   3.170  14.102  0.1175  0.4532 -0.5892
18492TIP3    H176891   6.659   3.121  14.039  1.2723  1.4291 -0.4226
18492TIP3    H276892   6.528   3.197  14.053  0.1204 -0.3849 -1.0582
18493TIP3   OH276893   4.205   2.342  14.305  0.4000 -0.0360  0.1975
18493TIP3    H176894   4.274   2.399  14.269  1.5806 -1.4690  0.0928
18493TIP3    H276895   4.202   2.365  14.398  2.4101 -1.2092  0.6322
18494TIP3   OH276896   1.305   5.184  10.874  0.3016  0.3159  0.4630
18494TIP3    H176897   1.364   5.115  10.844  0.4415  0.9278 -0.7125
18494TIP3    H276898   1.295   5.242  10.799 -2.8393 -0.4305  0.1664
18495TIP3   OH276899   1.427   5.663  14.101  0.1680 -0.2329 -0.0418
18495TIP3    H176900   1.522   5.652  14.090 -0.0793 -0.7487 -2.0527
18495TIP3    H276901   1.409   5.629  14.189  2.1131  1.9307  1.3211
18496TIP3   OH276902   0.184   5.715  14.023  1.2374 -0.4633 -0.0493
18496TIP3    H176903   0.149   5.702  14.111 -0.1851  2.9282  0.0170
18496TIP3    H276904   0.275   5.742  14.037  1.0580 -0.0681  0.3601
18497TIP3   OH276905   2.542   1.075  16.032  0.1537 -0.2169  0.4658
18497TIP3    H176906   2.587   1.130  15.967  1.3328 -0.5968  0.9255
18497TIP3    H276907   2.538   1.129  16.111  0.1749 -0.3264  0.5415
18498TIP3   OH276908   6.427   5.817  16.187  0.4251 -0.0982  0.1403
18498TIP3    H176909   6.443   5.812  16.092  0.8758 -1.2194  0.2632
18498TIP3    H276910   6.514   5.806  16.226  0.2076  0.1437  0.6920
18499TIP3   OH276911   2.423   5.354  12.324 -0.5495  0.3482 -0.6685
18499TIP3    H176912   2.459   5.278  12.370  0.3097 -0.8859 -3.2238
18499TIP3    H276913   2.500   5.398  12.287 -1.1634  1.6670 -0.4436
18500TIP3   OH276914   4.220   6.348   1.410  0.1406  0.4131  0.2664
18500TIP3    H176915   4.217   6.264   1.455 -0.8999 -0.4282 -1.2842
18500TIP3    H276916   4.142   6.394   1.440 -1.1479 -0.5783 -1.3586
18501TIP3   OH276917   3.790   4.260   0.488 -0.1258  0.1302 -0.1584
18501TIP3    H176918   3.823   4.208   0.415  0.8221  1.6757 -0.8629
18501TIP3    H276919   3.786   4.349   0.455 -2.6819  0.4164  0.6982
18502TIP3   OH276920   3.589   4.486   4.847  0.6009  0.1316  0.0344
18502TIP3    H176921   3.581   4.410   4.905  1.1992  0.4699  0.5751
18502TIP3    H276922   3.628   4.451   4.767  0.0353 -0.2892 -0.0678
18503TIP3   OH276923   2.749   1.307  16.146 -0.2887  1.0067  0.2879
18503TIP3    H176924   2.723   1.320  16.054  1.1671  0.7581 -0.1808
18503TIP3    H276925   2.670   1.329  16.196 -1.4196  0.2060 -1.0569
18504TIP3   OH276926   3.733   3.705  14.613  0.0502 -0.1462 -0.2779
18504TIP3    H176927   3.674   3.780  14.621  0.6241  0.2033  0.9721
18504TIP3    H276928   3.817   3.737  14.646  0.4513 -1.1766 -0.2572
18505TIP3   OH276929   4.620   0.170  11.889 -0.1598 -0.2415 -0.7891
18505TIP3    H176930   4.636   0.076  11.885  2.5824  0.0175  1.4012
18505TIP3    H276931   4.610   0.196  11.797 -0.4143 -2.5341 -1.4830
18506TIP3   OH276932   2.492   1.209  16.923  0.2199  0.0596  0.2376
18506TIP3    H176933   2.517   1.117  16.917 -1.2568 -0.2987 -1.0495
18506TIP3    H276934   2.411   1.209  16.974 -0.5007  0.4582 -0.8475
18507TIP3   OH276935   1.892   4.664  16.076 -0.2659  0.0549  0.2787
18507TIP3    H176936   1.879   4.726  16.004 -1.0650 -0.8582 -0.4016
18507TIP3    H276937   1.839   4.698  16.147 -2.4483 -0.9014 -0.7853
18508TIP3   OH276938   4.798   4.861  16.579 -0.2405 -0.5427 -0.1020
18508TIP3    H176939   4.713   4.852  16.536  0.1169 -1.0740 -0.7251
18508TIP3    H276940   4.861   4.834  16.512  0.4650  0.5068  0.1241
18509TIP3   OH276941   0.450   3.603  13.828  0.2457 -0.8321  0.1989
18509TIP3    H176942   0.361   3.580  13.801  0.0541 -0.8265  0.7966
18509TIP3    H276943   0.457   3.570  13.918  0.6207 -0.2641  0.3882
18510TIP3   OH276944   1.710   4.699   6.031 -0.2092  0.1642 -0.0272
18510TIP3    H176945   1.804   4.685   6.016 -0.9972 -1.3254 -5.7550
18510TIP3    H276946   1.676   4.613   6.054 -0.4032  0.3304  0.3121
18511TIP3   OH276947   0.635   3.112   5.583 -0.3155 -0.6601  0.3899
18511TIP3    H176948   0.565   3.112   5.650 -0.9470 -0.3817 -0.2530
18511TIP3    H276949   0.714   3.091   5.632 -0.9804 -1.8927  0.9912
18512TIP3   OH276950   6.725   4.783   5.014 -0.2029  0.3903 -0.1540
18512TIP3    H176951   6.820   4.769   5.019 -0.1936  0.0191 -1.0925
18512TIP3    H276952   6.689   4.728   5.083  0.2139 -0.2055 -0.3988
18513TIP3   OH276953   0.621   1.847  15.116 -0.2086  0.0759  0.3238
18513TIP3    H176954   0.648   1.939  15.117  1.1312 -0.2965  0.1955
18513TIP3    H276955   0.697   1.800  15.148 -0.3649 -1.1227 -0.9845
18514TIP3   OH276956   3.838   3.094   0.335  0.5964 -0.2700 -0.1791
18514TIP3    H176957   3.915   3.150   0.340 -0.9800  2.1330 -0.7403
18514TIP3    H276958   3.764   3.153   0.353 -1.2982 -1.9220 -1.9709
18515TIP3   OH276959   4.890   0.247   2.906 -0.0116  0.5601  0.1275
18515TIP3    H176960   4.825   0.226   2.972 -0.0956  1.3177  0.3020
18515TIP3    H276961   4.839   0.270   2.828 -0.0293  2.2418  0.5857
18516TIP3   OH276962   3.728   2.315  13.156  0.5757 -0.3738 -0.1464
18516TIP3    H176963   3.697   2.398  13.119  0.3475 -0.3656  0.0664
18516TIP3    H276964   3.750   2.336  13.247  0.9276 -0.4460 -0.2131
18517TIP3   OH276965   3.455   2.460  14.339 -0.1418 -0.1286 -0.5548
18517TIP3    H176966   3.398   2.387  14.314 -1.1471  0.8287 -1.1882
18517TIP3    H276967   3.535   2.419  14.371 -1.3738 -1.5535  0.8546
18518TIP3   OH276968   6.343   1.848   1.661 -0.0120 -0.4233 -0.5229
18518TIP3    H176969   6.282   1.801   1.718 -0.4593  0.7761  0.0276
18518TIP3    H276970   6.375   1.920   1.716 -0.2967  0.6414 -1.7157
18519TIP3   OH276971   6.044   4.622  13.881 -0.1174 -0.2730 -0.5451
18519TIP3    H176972   6.132   4.601  13.914  0.7302 -0.5116 -2.7358
18519TIP3    H276973   6.024   4.707  13.919  0.7572 -0.5328  0.5627
18520TIP3   OH276974   0.203   1.134   2.448 -0.1848  0.3002 -0.6090
18520TIP3    H176975   0.200   1.054   2.500 -0.8885  0.8235  0.1855
18520TIP3    H276976   0.123   1.131   2.395  0.5101 -0.2130 -1.6709
18521TIP3   OH276977   4.621   3.897  15.880  0.1610 -1.2366  0.1375
18521TIP3    H176978   4.662   3.977  15.849  2.6767 -1.5461  2.2896
18521TIP3    H276979   4.663   3.827  15.830 -0.6228 -1.3691 -0.3643
18522TIP3   OH276980   2.397   1.303   1.765 -0.1477  0.2693 -0.1238
18522TIP3    H176981   2.369   1.212   1.761  0.2101 -0.0121  2.3235
18522TIP3    H276982   2.315   1.353   1.768 -0.3462 -0.0414 -0.3428
18523TIP3   OH276983   5.807   4.529  13.012 -0.7201  0.3474  0.2287
18523TIP3    H176984   5.848   4.547  12.927 -2.5178  0.1316 -0.7407
18523TIP3    H276985   5.713   4.525  12.993 -1.0703 -1.2671  1.9480
18524TIP3   OH276986   6.599   1.489   5.919 -0.1787 -0.0929  0.0120
18524TIP3    H176987   6.686   1.450   5.908  0.3205  0.7514  0.9057
18524TIP3    H276988   6.575   1.520   5.831  0.9669  0.7886 -0.0069
18525TIP3   OH276989   6.293   6.559  11.798  0.0042  0.6468  0.1959
18525TIP3    H176990   6.359   6.551  11.729 -0.5634  1.8097 -0.5271
18525TIP3    H276991   6.330   6.514  11.873 -0.5276 -3.3377 -1.6586
18526TIP3   OH276992   1.967   3.769   1.430  0.2952 -0.7419  0.2323
18526TIP3    H176993   1.987   3.742   1.340 -0.4800 -0.2473 -0.1029
18526TIP3    H276994   1.888   3.721   1.453  0.4873 -0.8627  0.6576
18527TIP3   OH276995   4.714   4.600   3.313  0.2776  0.1095 -0.4788
18527TIP3    H176996   4.642   4.576   3.254  1.1345 -0.4179 -1.3512
18527TIP3    H276997   4.793   4.576   3.264  1.0650  1.1238  0.2580
18528TIP3   OH276998   1.977   0.209   4.729  0.0389  0.7040 -0.6933
18528TIP3    H176999   1.891   0.252   4.733 -0.7087 -0.6964 -1.2934
18528TIP3    H277000   1.959   0.117   4.747  1.3358  0.2828 -1.4275
18529TIP3   OH277001   6.460   5.494   5.524  0.6202  0.1869 -0.0928
18529TIP3    H177002   6.518   5.441   5.580  2.3863  0.3992 -1.6369
18529TIP3    H277003   6.435   5.435   5.453  0.8046  0.7811 -0.6513
18530TIP3   OH277004   5.986   1.749  15.385 -0.5298  0.0002 -0.5271
18530TIP3    H177005   6.020   1.723  15.470  1.1972  2.2062 -0.4538
18530TIP3    H277006   5.987   1.668  15.333  0.2575 -0.9841  0.9377
18531TIP3   OH277007   6.317   0.024   1.453  0.2972  0.3191 -0.2360
18531TIP3    H177008   6.245   0.081   1.426  0.3430  0.0672 -0.9289
18531TIP3    H277009   6.382   0.083   1.491 -0.0873  0.6000 -0.0082
18532TIP3   OH277010   3.361   0.112   2.252  0.1602  0.1498  0.0201
18532TIP3    H177011   3.407   0.039   2.293  0.0264  0.5186  0.8435
18532TIP3    H277012   3.279   0.119   2.300 -0.6206 -0.2726 -1.2014
18533TIP3   OH277013   0.374   3.985   2.177  0.0443  0.0891 -0.3739
18533TIP3    H177014   0.281   4.003   2.196 -0.1228 -1.2052  0.1794
18533TIP3    H277015   0.379   3.983   2.082 -0.4971  0.1659 -0.4111
18534TIP3   OH277016   6.047   3.343  16.140 -0.4429  0.2567  0.0738
18534TIP3    H177017   6.032   3.250  16.160 -0.4450 -0.0991 -1.4791
18534TIP3    H277018   6.115   3.343  16.073  0.1463  1.4392  0.6387
18535TIP3   OH277019   6.546   2.104  12.224 -0.0425 -0.0288 -0.3481
18535TIP3    H177020   6.607   2.177  12.220 -1.3679  1.1444  0.1496
18535TIP3    H277021   6.576   2.051  12.298  0.7043  0.2131 -0.4746
18536TIP3   OH277022   6.701   3.604  14.652  0.1368  0.6645  0.5791
18536TIP3    H177023   6.624   3.552  14.674  0.7248 -1.0097 -1.0809
18536TIP3    H277024   6.756   3.600  14.729 -0.7287  0.5590  1.2064
18537TIP3   OH277025   4.601   1.994  17.171  0.3792 -0.2441  0.6321
18537TIP3    H177026   4.649   2.075  17.192  0.9434 -0.5236  0.4416
18537TIP3    H277027   4.625   1.934  17.242  2.0110 -1.0796 -0.5807
18538TIP3   OH277028   3.888   2.615   0.661 -0.1138 -0.6969 -0.5117
18538TIP3    H177029   3.962   2.566   0.696 -0.6137 -2.1324 -1.3513
18538TIP3    H277030   3.907   2.706   0.681  1.1572 -1.1718  0.5743
18539TIP3   OH277031   6.389   0.477   4.122  0.2598 -0.0901 -0.0563
18539TIP3    H177032   6.329   0.551   4.111  1.1755  0.6839  0.0163
18539TIP3    H277033   6.439   0.474   4.040  1.1063  0.2069  0.4290
18540TIP3   OH277034   0.595   5.789   2.499 -0.5425 -0.7214 -0.0271
18540TIP3    H177035   0.587   5.722   2.566 -0.6789  0.2105  0.9296
18540TIP3    H277036   0.535   5.858   2.527 -1.3494 -0.7099 -1.6416
18541TIP3   OH277037   3.131   0.868   2.836 -0.4410  0.2547  0.3593
18541TIP3    H177038   3.150   0.849   2.744  0.5135 -0.7680  0.7453
18541TIP3    H277039   3.085   0.791   2.868  0.2097  0.1158  1.0064
18542TIP3   OH277040   3.513   6.336   0.469 -0.6817  0.0542  0.8847
18542TIP3    H177041   3.441   6.397   0.484  0.5487  2.1028 -0.8744
18542TIP3    H277042   3.562   6.336   0.551 -0.6850  1.5605  0.9183
18543TIP3   OH277043   5.572   0.566   2.618 -0.1314  0.0679 -0.2004
18543TIP3    H177044   5.580   0.648   2.666  1.1400  0.1868 -0.5835
18543TIP3    H277045   5.529   0.590   2.536 -1.0211  0.0970  0.2575
18544TIP3   OH277046   4.500   2.329  13.120 -0.1392  0.2542 -0.0329
18544TIP3    H177047   4.425   2.343  13.178 -1.1125  0.1295 -1.2009
18544TIP3    H277048   4.554   2.408  13.130 -1.0084  0.8600  0.0090
18545TIP3   OH277049   6.580   4.793  10.440  0.2910 -0.1571  0.5464
18545TIP3    H177050   6.602   4.881  10.408  2.2511  0.0460  2.2176
18545TIP3    H277051   6.653   4.770  10.498 -0.5684 -2.5793  0.7706
18546TIP3   OH277052   0.747   4.868  10.411 -0.3587  0.6391 -0.2365
18546TIP3    H177053   0.701   4.788  10.383 -0.1398  1.0482 -1.8721
18546TIP3    H277054   0.681   4.917  10.460 -0.1842 -1.0109  1.7780
18547TIP3   OH277055   4.539   1.157  11.105  0.1308 -0.1217 -0.2933
18547TIP3    H177056   4.541   1.109  11.022 -0.3988  0.7539 -0.8250
18547TIP3    H277057   4.556   1.090  11.171 -1.8036 -1.3170 -0.9008
18548TIP3   OH277058   5.432   6.361  16.125  0.3571 -0.0793 -0.3184
18548TIP3    H177059   5.457   6.274  16.154  0.9156  0.6278  1.4581
18548TIP3    H277060   5.337   6.364  16.136  0.4855 -0.0338  0.9771
18549TIP3   OH277061   4.188   4.649   0.036 -0.7091 -0.2033  0.1317
18549TIP3    H177062   4.187   4.668  -0.058  0.3123  2.0299  0.5119
18549TIP3    H277063   4.228   4.562   0.042  1.9955  0.8137 -1.3922
18550TIP3   OH277064   5.722   5.538  12.125  0.0111 -0.3804  0.0071
18550TIP3    H177065   5.630   5.523  12.149 -0.3610  0.7174 -0.6565
18550TIP3    H277066   5.722   5.539  12.029  0.5870  0.3290  0.0079
18551TIP3   OH277067   6.289   1.591  14.625 -0.2168  0.0523 -0.4275
18551TIP3    H177068   6.195   1.607  14.613 -0.0896  2.2308  0.9226
18551TIP3    H277069   6.331   1.672  14.597  1.2512 -0.7558 -0.6495
18552TIP3   OH277070   2.540   1.812  14.237 -0.9706 -0.5873 -0.4308
18552TIP3    H177071   2.459   1.762  14.239 -0.9581 -0.5989 -0.2278
18552TIP3    H277072   2.557   1.836  14.328 -1.3568  0.3957 -0.5981
18553TIP3   OH277073   0.494   5.422  11.098  0.4340  0.0065 -0.7293
18553TIP3    H177074   0.515   5.410  11.005 -0.8437 -0.7337 -0.9490
18553TIP3    H277075   0.412   5.375  11.110  0.2916  0.5666  0.6632
18554TIP3   OH277076   5.886   2.947  11.592  0.2837  0.2621  0.0852
18554TIP3    H177077   5.881   2.864  11.640 -0.4915  0.4298  0.3037
18554TIP3    H277078   5.966   2.939  11.540  0.2209 -0.6253  0.1013
18555TIP3   OH277079   2.963   3.383  11.570  0.7354  0.1158 -0.3744
18555TIP3    H177080   3.040   3.375  11.627 -0.1619  0.0856  0.8631
18555TIP3    H277081   2.918   3.461  11.601  0.3408  0.2374 -1.2079
18556TIP3   OH277082   0.245   2.361  15.393  0.3211 -0.2887  0.1705
18556TIP3    H177083   0.150   2.372  15.390  0.2775 -0.7557 -0.3215
18556TIP3    H277084   0.263   2.330  15.482  0.1696  1.1251  0.7239
18557TIP3   OH277085   3.461   1.740   5.220  0.3724 -0.1757 -0.5472
18557TIP3    H177086   3.545   1.703   5.190 -0.0205 -1.4931 -0.1173
18557TIP3    H277087   3.396   1.695   5.166 -0.4261 -3.1539  2.5332
18558TIP3   OH277088   4.257   1.534   5.903  0.6956  0.5271 -0.0980
18558TIP3    H177089   4.310   1.569   5.975  2.7484 -0.3145 -1.1204
18558TIP3    H277090   4.307   1.459   5.870 -0.3927  0.6023 -2.1051
18559TIP3   OH277091   3.161   3.001   2.887 -0.6470  0.5796  0.4247
18559TIP3    H177092   3.255   2.991   2.870 -0.8560  0.4850 -0.7917
18559TIP3    H277093   3.142   2.936   2.954  0.0405  0.1634  0.2262
18560TIP3   OH277094   3.785   2.571  12.735  0.6670 -0.4202  0.3996
18560TIP3    H177095   3.879   2.564  12.751  1.4205 -1.2795 -3.4710
18560TIP3    H277096   3.777   2.586  12.641 -3.0362  2.5864  0.9466
18561TIP3   OH277097   2.091   6.459   2.896  0.4006  0.1575 -0.0846
18561TIP3    H177098   2.123   6.423   2.814 -0.4188 -2.3644  0.6244
18561TIP3    H277099   2.169   6.469   2.951  0.6303 -0.7807 -0.2326
18562TIP3   OH277100   4.282   1.512   1.735  0.0145  0.4050  0.2495
18562TIP3    H177101   4.210   1.450   1.749 -0.4507  0.8665 -0.0671
18562TIP3    H277102   4.341   1.497   1.809  0.3210 -0.9768 -0.2305
18563TIP3   OH277103   4.020   4.697  14.944  0.1477 -0.2437  0.0819
18563TIP3    H177104   3.970   4.756  14.888  0.7826  0.7425  0.5244
18563TIP3    H277105   4.086   4.753  14.985  0.5302 -1.1927  0.8040
18564TIP3   OH277106   4.456   0.708  15.642 -0.3905  0.3170 -0.8734
18564TIP3    H177107   4.548   0.684  15.650 -0.5058  0.2200  0.2545
18564TIP3    H277108   4.456   0.804  15.641 -0.3586  0.3519  0.4648
18565TIP3   OH277109   1.750   4.948   2.666  0.7252  0.5839 -0.8620
18565TIP3    H177110   1.820   5.013   2.666 -0.1206  1.5308 -0.4710
18565TIP3    H277111   1.775   4.885   2.598  1.9533  0.8765 -0.7138
18566TIP3   OH277112   2.784   3.562  14.711 -0.7021  0.5855  0.1207
18566TIP3    H177113   2.798   3.656  14.699 -1.2215  0.8402  1.3550
18566TIP3    H277114   2.734   3.535  14.634 -1.5571  1.5711  0.3054
18567TIP3   OH277115   3.407   0.720  13.857  0.0089  0.2943  0.1853
18567TIP3    H177116   3.432   0.666  13.932  1.9896  0.7492 -0.0932
18567TIP3    H277117   3.391   0.657  13.786  1.2257  0.0080  0.1533
18568TIP3   OH277118   5.439   3.670  11.838 -0.3610  0.4153  0.7927
18568TIP3    H177119   5.505   3.712  11.894  0.7056  0.1960 -0.2574
18568TIP3    H277120   5.461   3.577  11.842 -0.8881  0.2892  0.7758
18569TIP3   OH277121   5.290   0.515  12.686  0.2383  0.0482  0.2332
18569TIP3    H177122   5.352   0.460  12.638  0.3446 -1.0037  1.5483
18569TIP3    H277123   5.215   0.524  12.627  0.9680  0.0065 -0.7222
18570TIP3   OH277124   3.542   4.167   2.291  0.1631 -0.1467 -0.1117
18570TIP3    H177125   3.576   4.230   2.228 -1.6336  1.8725  0.8232
18570TIP3    H277126   3.531   4.218   2.372 -2.3385 -1.3493  0.3964
18571TIP3   OH277127   3.451   1.742   3.572  0.0749 -0.0607 -0.2534
18571TIP3    H177128   3.418   1.812   3.516 -0.9326 -0.2900  0.0344
18571TIP3    H277129   3.380   1.725   3.634  0.3520 -1.2637 -0.2475
18572TIP3   OH277130   2.855   1.340   0.992 -0.6769 -0.1949 -0.2380
18572TIP3    H177131   2.799   1.360   0.917  0.5561 -0.8603 -1.3525
18572TIP3    H277132   2.886   1.425   1.022 -1.2125  0.0729 -0.4213
18573TIP3   OH277133   5.921   3.197   1.194  0.0778 -0.2705  0.2162
18573TIP3    H177134   5.928   3.102   1.196 -1.9890 -0.5139 -0.6546
18573TIP3    H277135   5.839   3.214   1.147  1.0515  1.9781 -0.8554
18574TIP3   OH277136   3.081   6.194   4.104  0.3390 -0.0646  0.5613
18574TIP3    H177137   3.157   6.180   4.047 -0.4183 -0.0167 -0.4882
18574TIP3    H277138   3.047   6.279   4.077  0.3260  0.2545  1.5326
18575TIP3   OH277139   6.363   2.844  12.153 -0.0384  0.0622  0.0620
18575TIP3    H177140   6.301   2.855  12.224  0.2212 -1.8991  0.6612
18575TIP3    H277141   6.448   2.834  12.196 -0.0672 -2.6637 -0.3164
18576TIP3   OH277142   1.283   4.853   1.768 -0.4289 -0.1962 -0.1693
18576TIP3    H177143   1.320   4.767   1.786 -2.2880 -1.0231 -0.0458
18576TIP3    H277144   1.246   4.882   1.851 -2.1923 -0.5305 -0.7960
18577TIP3   OH277145   2.148   0.087  15.854  0.2555 -0.7982 -0.7363
18577TIP3    H177146   2.130   0.098  15.761 -2.7115  0.7250 -0.0786
18577TIP3    H277147   2.209   0.158  15.875 -1.6133  0.9256 -0.9288
18578TIP3   OH277148   4.895   3.979  12.369  0.7508  0.0775 -0.7659
18578TIP3    H177149   4.801   3.967  12.356  0.7645  0.1537 -0.9465
18578TIP3    H277150   4.922   3.904  12.421  0.3078  0.8425  0.6263
18579TIP3   OH277151   0.073   5.181   2.039 -0.2464 -0.1631  0.0414
18579TIP3    H177152   0.020   5.129   1.979  1.1107  1.0956 -2.3698
18579TIP3    H277153   0.022   5.261   2.053  0.2489  0.3365 -0.9502
18580TIP3   OH277154   0.543   4.762  11.941  0.0612 -0.9405 -0.0336
18580TIP3    H177155   0.593   4.750  11.860  0.7654 -2.0950  0.5408
18580TIP3    H277156   0.512   4.674  11.963 -0.3794 -0.5916  0.7914
18581TIP3   OH277157   4.033   3.159  16.736 -0.4718 -0.2624  0.0341
18581TIP3    H177158   4.054   3.206  16.817  0.1373 -0.8829  0.2446
18581TIP3    H277159   4.118   3.141  16.696 -0.7320 -0.6023 -0.3702
18582TIP3   OH277160   6.407   2.182  16.890  0.2408  0.4584 -0.0795
18582TIP3    H177161   6.425   2.208  16.980 -0.6258  0.6839  0.0345
18582TIP3    H277162   6.361   2.257  16.852  0.0468  0.1208 -0.5189
18583TIP3   OH277163   1.850   2.449   2.221  0.0763 -0.3746 -0.9581
18583TIP3    H177164   1.901   2.449   2.301 -0.1746  1.4302 -0.7562
18583TIP3    H277165   1.898   2.507   2.162 -0.3143 -0.8235 -1.7329
18584TIP3   OH277166   3.016   0.228   6.649 -0.4427 -0.3665  0.3002
18584TIP3    H177167   3.078   0.182   6.705 -0.2158  0.3455  0.6498
18584TIP3    H277168   2.940   0.244   6.705  0.5603  2.1523  1.1223
18585TIP3   OH277169   5.611   1.855  15.017 -0.6941  0.4648 -0.3112
18585TIP3    H177170   5.588   1.936  14.970 -2.4732 -0.1598 -0.5881
18585TIP3    H277171   5.694   1.828  14.978 -0.5711  1.6219 -0.9174
18586TIP3   OH277172   3.168   3.589  17.354  0.1184  0.2341 -0.0514
18586TIP3    H177173   3.181   3.662  17.414  0.7531 -0.0065  0.1121
18586TIP3    H277174   3.073   3.576  17.352  0.1385 -0.6537  1.9967
18587TIP3   OH277175   1.888   1.139  16.047  0.2940  0.4174 -0.6189
18587TIP3    H177176   1.862   1.050  16.022 -0.7506  0.2648  0.8818
18587TIP3    H277177   1.959   1.125  16.111 -0.5588  0.5986  0.3937
18588TIP3   OH277178   0.309   0.824  14.538  0.1736 -0.9463 -0.1912
18588TIP3    H177179   0.247   0.886  14.499  1.9529  2.1420  1.4579
18588TIP3    H277180   0.276   0.809  14.626  0.6611 -0.9641 -0.0076
18589TIP3   OH277181   2.779   6.719  13.422  0.3698 -0.7656  0.5111
18589TIP3    H177182   2.785   6.668  13.503 -0.3240 -1.2512  0.2724
18589TIP3    H277183   2.782   6.811  13.451  0.9470 -0.9373  1.0060
18590TIP3   OH277184   3.724   5.133  13.311  0.1085  0.4191  0.0697
18590TIP3    H177185   3.694   5.152  13.222  2.8559 -0.1397 -1.0696
18590TIP3    H277186   3.741   5.219  13.349 -0.0494  0.6310 -0.3263
18591TIP3   OH277187   5.476   5.813  15.302  0.1691 -0.1462  0.2310
18591TIP3    H177188   5.421   5.786  15.376 -2.3193  0.1795 -1.3845
18591TIP3    H277189   5.454   5.905  15.289  1.1294 -0.0093 -0.4758
18592TIP3   OH277190   4.574   5.800  13.174  0.7970  0.1092  0.0523
18592TIP3    H177191   4.503   5.780  13.235  1.1400  2.1641  1.1966
18592TIP3    H277192   4.646   5.742  13.202  0.3947 -0.1803  0.4986
18593TIP3   OH277193   3.778   4.661  11.600 -0.1939  0.1757  0.1709
18593TIP3    H177194   3.755   4.636  11.511  2.8575 -0.9407 -0.4404
18593TIP3    H277195   3.762   4.582  11.652 -1.2977  0.6087  0.5251
18594TIP3   OH277196   2.896   5.241   3.783  0.1252 -0.0870  0.2222
18594TIP3    H177197   2.874   5.274   3.870 -0.6786 -0.1460  0.0506
18594TIP3    H277198   2.891   5.318   3.726  1.1776  0.0570  0.3068
18595TIP3   OH277199   2.334   2.742  11.393 -0.1692  0.1991  0.9059
18595TIP3    H177200   2.423   2.734  11.358 -1.1443 -0.1149 -1.7175
18595TIP3    H277201   2.307   2.831  11.369 -0.2155  0.6973  2.6822
18596TIP3   OH277202   5.508   1.843  11.818 -0.0839 -0.1438  0.0310
18596TIP3    H177203   5.571   1.778  11.850 -0.8803 -0.9671 -0.0195
18596TIP3    H277204   5.466   1.800  11.743 -2.6321 -0.7846  1.6720
18597TIP3   OH277205   1.865   4.034  12.831  0.1095 -0.0390  0.3977
18597TIP3    H177206   1.837   4.117  12.870  0.8605  0.2983  0.2213
18597TIP3    H277207   1.783   3.985  12.820 -0.2844  0.4729  0.9668
18598TIP3   OH277208   4.898   2.046   1.132 -0.2577 -0.4158 -0.0918
18598TIP3    H177209   4.855   1.993   1.066 -1.3896 -0.8336  0.9471
18598TIP3    H277210   4.966   1.988   1.169 -0.0702 -0.4064 -0.4214
18599TIP3   OH277211   5.006   6.157   2.627  0.2984  0.3330 -0.5645
18599TIP3    H177212   5.033   6.242   2.663 -1.8468  0.8791 -0.0955
18599TIP3    H277213   5.063   6.094   2.670  1.0967  1.4222  0.0346
18600TIP3   OH277214   0.259   6.013  15.933  0.0464  0.4849  0.1435
18600TIP3    H177215   0.287   6.070  16.005 -0.0055  2.4194 -1.2666
18600TIP3    H277216   0.335   6.008  15.876  0.5714 -2.2108  0.9311
18601TIP3   OH277217   0.958   0.139   4.150  0.7093  0.1980  0.3583
18601TIP3    H177218   0.976   0.081   4.224 -0.7971  0.6766  1.1427
18601TIP3    H277219   1.042   0.180   4.131  1.6481 -1.6919  0.2433
18602TIP3   OH277220   6.268   0.351  12.347  0.5649 -0.0069  0.5665
18602TIP3    H177221   6.325   0.329  12.421 -0.4092 -2.8671  0.5948
18602TIP3    H277222   6.320   0.328  12.270  1.0835  1.7115  0.3742
18603TIP3   OH277223   3.189   4.834   3.268 -0.0380  0.3915 -0.0951
18603TIP3    H177224   3.275   4.837   3.226 -0.0509  1.3300 -0.0834
18603TIP3    H277225   3.207   4.804   3.357  0.0709 -0.9504 -0.5433
18604TIP3   OH277226   2.359   5.322  12.722  0.2703  0.3213 -0.4174
18604TIP3    H177227   2.275   5.277  12.714  0.7806 -0.5557 -0.9984
18604TIP3    H277228   2.347   5.404  12.674 -0.1072 -0.0071 -0.8899
18605TIP3   OH277229   0.078   6.079  15.334 -0.4645 -0.1282  0.1973
18605TIP3    H177230   0.021   6.129  15.275  0.7542  1.0012 -0.0681
18605TIP3    H277231   0.063   5.987  15.309 -0.0502  0.2980 -1.8673
18606TIP3   OH277232   1.641   1.794  17.152  0.3878 -0.0081 -0.0230
18606TIP3    H177233   1.699   1.851  17.202  0.6943 -0.3870  0.0594
18606TIP3    H277234   1.555   1.807  17.191  0.5157  0.1531  0.2056
18607TIP3   OH277235   0.104   0.419   3.019 -0.8041 -0.0037  0.0364
18607TIP3    H177236   0.079   0.496   2.968  0.0169  2.7294  3.3955
18607TIP3    H277237   0.022   0.379   3.045 -1.2609  0.1674 -1.0777
18608TIP3   OH277238   1.943   6.580   4.508  0.4374 -0.2397  0.2383
18608TIP3    H177239   2.038   6.598   4.506  0.8057 -2.0468 -0.8488
18608TIP3    H277240   1.928   6.524   4.432 -1.6250  0.4063  0.1031
18609TIP3   OH277241   2.830   0.862   5.286  0.2894  0.1244 -0.3494
18609TIP3    H177242   2.873   0.800   5.228 -0.7495  1.6208 -2.8516
18609TIP3    H277243   2.737   0.841   5.279  0.1290  0.4014  0.7324
18610TIP3   OH277244   1.625   1.445   1.998 -0.1737 -0.0937 -0.1638
18610TIP3    H177245   1.628   1.524   1.944  1.9472 -0.4882 -0.6946
18610TIP3    H277246   1.644   1.475   2.087  0.7655 -0.0143 -0.3867
18611TIP3   OH277247   6.221   6.495  15.721  0.1479 -0.0072  0.2296
18611TIP3    H177248   6.305   6.452  15.729 -0.4517 -1.4910 -1.0306
18611TIP3    H277249   6.180   6.456  15.643 -0.6030  2.5745 -0.7917
18612TIP3   OH277250   5.055   3.268  16.982  0.5822  0.3999  0.9088
18612TIP3    H177251   5.069   3.198  16.918  1.0518  0.1358  1.2884
18612TIP3    H277252   5.136   3.320  16.978  0.2725  0.8738  0.6926
18613TIP3   OH277253   2.488   0.331   0.605 -0.0688  0.4550  0.1300
18613TIP3    H177254   2.422   0.261   0.603  0.2962  0.1147 -0.5172
18613TIP3    H277255   2.457   0.394   0.540  0.5335  0.0108 -0.6055
18614TIP3   OH277256   3.858   3.956  15.655 -0.5586 -0.2324  0.2659
18614TIP3    H177257   3.776   3.991  15.622 -1.0368 -2.3595 -0.9407
18614TIP3    H277258   3.889   3.897  15.586  1.5485 -0.1658  1.0694
18615TIP3   OH277259   4.930   5.483  14.281  0.2511  0.1660  0.3827
18615TIP3    H177260   4.866   5.445  14.221  1.2885 -0.5511 -0.2802
18615TIP3    H277261   4.912   5.441  14.365  0.9850 -1.3543 -0.2013
18616TIP3   OH277262   2.276   5.300  13.551 -0.3133 -1.7671 -0.8610
18616TIP3    H177263   2.306   5.367  13.613 -0.8621 -1.8426 -0.5115
18616TIP3    H277264   2.356   5.254  13.525  0.1351 -0.6833 -1.4635
18617TIP3   OH277265   4.856   5.716  16.136  0.0086  0.7350 -0.3413
18617TIP3    H177266   4.863   5.812  16.138  1.6834  0.7000 -1.8315
18617TIP3    H277267   4.762   5.699  16.133 -0.3380  2.2941  0.4461
18618TIP3   OH277268   1.172   0.346  12.008  0.8420  0.4300  0.1663
18618TIP3    H177269   1.092   0.322  12.055  1.3960  0.3204  1.0799
18618TIP3    H277270   1.143   0.414  11.946 -0.2259 -0.6608 -0.5795
18619TIP3   OH277271   3.259   5.666   4.476 -0.0341  0.4253  0.1483
18619TIP3    H177272   3.222   5.610   4.408 -2.9036 -0.5297  2.3098
18619TIP3    H277273   3.252   5.755   4.440  1.8052 -0.2419 -2.1132
18620TIP3   OH277274   5.079   2.453   5.070  0.0847 -0.3667 -0.5282
18620TIP3    H177275   5.075   2.479   5.162  0.8931 -0.0595 -0.5742
18620TIP3    H277276   5.014   2.509   5.027  0.6730  0.4635 -0.3599
18621TIP3   OH277277   3.900   4.118   5.515  0.5952  0.3026  0.0466
18621TIP3    H177278   3.971   4.119   5.450  0.3695 -0.7039 -0.2296
18621TIP3    H277279   3.863   4.030   5.508  0.9982 -0.0632  2.0175
18622TIP3   OH277280   3.133   0.473  15.530  0.4508  0.2385 -0.4496
18622TIP3    H177281   3.121   0.453  15.623  0.3865  0.9766 -0.2925
18622TIP3    H277282   3.073   0.546  15.513  0.4907  0.1336 -1.0614
18623TIP3   OH277283   5.739   3.059   0.629 -0.3563  0.8306 -0.0896
18623TIP3    H177284   5.813   3.077   0.687 -0.0506  0.2792 -0.3039
18623TIP3    H277285   5.775   3.001   0.561 -1.4120 -1.1162  0.9035
18624TIP3   OH277286   0.118   1.674  15.543 -0.8926 -0.3659 -0.3479
18624TIP3    H177287   0.192   1.682  15.603 -1.4250 -0.3235  0.3053
18624TIP3    H277288   0.155   1.699  15.458 -0.0678 -0.6975 -0.1015
18625TIP3   OH277289   0.443   3.788  12.079  0.3514 -0.5476  0.4746
18625TIP3    H177290   0.519   3.845  12.076  0.0526 -0.1507  0.3368
18625TIP3    H277291   0.399   3.801  11.995  0.0319 -0.6329  0.6252
18626TIP3   OH277292   3.112   2.124   5.534 -0.2970  0.3199 -0.1282
18626TIP3    H177293   3.022   2.109   5.506 -0.5639  1.2020  0.2523
18626TIP3    H277294   3.156   2.159   5.456 -0.3801  0.2775 -0.1944
18627TIP3   OH277295   6.726   5.375   3.841 -0.0253 -0.0311  0.0921
18627TIP3    H177296   6.659   5.425   3.887  1.0200 -0.5421  2.3202
18627TIP3    H277297   6.791   5.441   3.815 -0.9912  0.3644 -1.4379
18628TIP3   OH277298   5.707   3.002  12.591  0.6753 -0.7016  0.5566
18628TIP3    H177299   5.704   3.076  12.529  0.7208 -1.6853 -0.6662
18628TIP3    H277300   5.657   2.933  12.547  0.3194 -1.2835  1.8444
18629TIP3   OH277301   1.561   2.656  15.731 -0.1262  0.8386 -0.0321
18629TIP3    H177302   1.589   2.649  15.822  0.8145 -0.0247 -0.3646
18629TIP3    H277303   1.533   2.747  15.721 -1.9041  0.5426  1.5631
18630TIP3   OH277304   4.963   0.566   2.786 -0.4437 -0.1900 -0.3948
18630TIP3    H177305   4.943   0.532   2.873  0.2775 -0.2196 -0.2369
18630TIP3    H277306   5.039   0.623   2.799 -0.3084 -0.2252 -1.0087
18631TIP3   OH277307   4.859   6.245  10.930  0.5028 -0.3799  0.4167
18631TIP3    H177308   4.764   6.254  10.942  0.3377 -0.0938 -0.9419
18631TIP3    H277309   4.897   6.303  10.996 -0.2993  0.2483  0.3405
18632TIP3   OH277310   6.243   4.707   2.884  0.5805  0.1402  0.3850
18632TIP3    H177311   6.244   4.690   2.978  2.6990 -0.7326  0.2570
18632TIP3    H277312   6.321   4.761   2.868  0.2588  0.2727 -0.8663
18633TIP3   OH277313   5.564   5.003  11.663 -0.2986 -0.3005 -0.2293
18633TIP3    H177314   5.622   4.945  11.712  0.0563 -0.4638 -0.8321
18633TIP3    H277315   5.603   5.090  11.673 -0.7178 -0.1849  0.5036
18634TIP3   OH277316   3.591   1.368  13.170 -1.0171  0.4023  0.1240
18634TIP3    H177317   3.626   1.450  13.134 -1.5146  0.4489 -0.2661
18634TIP3    H277318   3.615   1.301  13.106 -2.6955  0.6239 -0.8045
18635TIP3   OH277319   0.211   6.413  16.876 -0.2636  0.0377  0.2397
18635TIP3    H177320   0.245   6.453  16.956  2.0084  0.3975 -0.8266
18635TIP3    H277321   0.116   6.409  16.889 -0.0619  1.1451  2.4430
18636TIP3   OH277322   5.947   0.432  13.864 -0.6020 -0.3061 -0.3736
18636TIP3    H177323   5.897   0.501  13.909 -1.5940 -2.1602  1.5510
18636TIP3    H277324   6.037   0.444  13.894 -0.5201  0.8047 -0.9771
18637TIP3   OH277325   1.588   4.095  16.015  0.1310  0.1565 -0.3598
18637TIP3    H177326   1.603   4.008  15.980 -0.5311 -0.3413  0.5639
18637TIP3    H277327   1.543   4.142  15.945 -0.6204 -0.6261 -0.4192
18638TIP3   OH277328   1.752   1.142  15.576 -0.1116 -0.0481 -0.3623
18638TIP3    H177329   1.743   1.164  15.483 -0.2174 -1.4696 -0.7264
18638TIP3    H277330   1.844   1.160  15.596 -0.0605  0.1716 -0.7758
18639TIP3   OH277331   0.833   0.267  16.615 -0.7694  0.1490  0.0637
18639TIP3    H177332   0.745   0.278  16.651 -0.3650  0.9442  0.8368
18639TIP3    H277333   0.826   0.297  16.525 -0.9583  1.6291  0.5558
18640TIP3   OH277334   6.198   2.517   2.028  0.1262 -0.3561 -0.2692
18640TIP3    H177335   6.259   2.562   2.087 -0.3195  0.7046 -0.5893
18640TIP3    H277336   6.112   2.528   2.070  0.0197 -1.0318 -0.2919
18641TIP3   OH277337   6.481   5.929  15.943  0.1033  0.2707  0.2851
18641TIP3    H177338   6.569   5.965  15.955 -0.3401  1.6905 -0.4670
18641TIP3    H277339   6.493   5.857  15.882  0.5963  1.3425 -0.9370
18642TIP3   OH277340   0.469   4.843  11.249 -0.9889  0.2920  1.1535
18642TIP3    H177341   0.421   4.773  11.205  1.2629  0.3305 -1.6874
18642TIP3    H277342   0.410   4.918  11.249 -1.4903 -0.0606 -0.8527
18643TIP3   OH277343   4.423   2.617   0.720 -0.5613 -0.0741  0.4347
18643TIP3    H177344   4.514   2.649   0.723 -0.0122 -1.5445  0.3617
18643TIP3    H277345   4.371   2.696   0.707  0.6814  0.8471  0.7967
18644TIP3   OH277346   0.579   3.194  15.898  0.3060  0.0526 -0.1079
18644TIP3    H177347   0.617   3.282  15.906  0.3233  0.2088 -1.5665
18644TIP3    H277348   0.526   3.199  15.818 -0.1234 -1.1146  0.0972
18645TIP3   OH277349   1.465   3.192   1.567 -0.0668  0.4609  0.3263
18645TIP3    H177350   1.496   3.153   1.486  0.1415  0.2395  0.5107
18645TIP3    H277351   1.447   3.283   1.545  1.9756  0.9540  0.5157
18646TIP3   OH277352   3.282   5.781  10.447 -0.6388 -0.3770 -0.1164
18646TIP3    H177353   3.258   5.713  10.511  0.5327 -0.0325  0.7333
18646TIP3    H277354   3.272   5.739  10.362 -0.8363 -1.3261  0.3612
18647TIP3   OH277355   3.087   4.994  13.128  0.6354 -0.6625 -0.6013
18647TIP3    H177356   3.151   4.927  13.152  0.1388 -1.7124 -2.0439
18647TIP3    H277357   3.003   4.958  13.158  0.6867  0.8553  1.5865
18648TIP3   OH277358   1.800   1.429  12.003  0.6956 -0.0130 -0.0198
18648TIP3    H177359   1.705   1.430  12.016  0.8180  1.2061  0.9954
18648TIP3    H277360   1.811   1.417  11.909 -0.6040  3.6114 -0.8019
18649TIP3   OH277361   5.378   1.179  15.505  0.3946 -0.0786  0.6615
18649TIP3    H177362   5.321   1.135  15.442  2.2813  1.8296 -2.6304
18649TIP3    H277363   5.326   1.253  15.537 -0.1003 -0.2493  0.2596
18650TIP3   OH277364   6.262   6.749   5.748 -0.4038  0.0126  0.5394
18650TIP3    H177365   6.293   6.660   5.736 -0.4242 -0.1188  1.4170
18650TIP3    H277366   6.332   6.793   5.796 -0.1575  0.6295 -0.3399
18651TIP3   OH277367   3.597   5.374  14.262 -0.1847 -0.1430  0.3809
18651TIP3    H177368   3.528   5.437  14.240  0.2796  0.6382  1.1116
18651TIP3    H277369   3.669   5.397  14.203 -0.7667 -1.4071 -0.8726
18652TIP3   OH277370   2.338   3.302  15.880 -0.4500 -0.0573  0.5819
18652TIP3    H177371   2.419   3.353  15.876 -1.0898  0.9381 -0.7119
18652TIP3    H277372   2.271   3.365  15.907 -1.0878 -0.4398 -0.0729
18653TIP3   OH277373   1.639   0.220   3.792  0.4193  0.3529  0.3264
18653TIP3    H177374   1.700   0.284   3.754  0.0265  1.2107  1.0800
18653TIP3    H277375   1.689   0.177   3.861  0.7155 -0.2449 -0.2479
18654TIP3   OH277376   1.665   5.959  11.646 -0.0641  0.0209 -0.2074
18654TIP3    H177377   1.632   6.049  11.651  0.5912  0.5098 -2.7635
18654TIP3    H277378   1.757   5.969  11.621  0.0949 -1.3697 -0.2628
18655TIP3   OH277379   0.466   6.013  12.518  0.0111  0.6885 -0.5744
18655TIP3    H177380   0.531   6.067  12.474  1.0602  0.2467  0.3742
18655TIP3    H277381   0.510   5.930  12.534 -0.8239  0.3334 -0.0153
18656TIP3   OH277382   5.393   1.051   6.144  0.1104 -0.4424 -0.6073
18656TIP3    H177383   5.426   1.141   6.155 -0.0355 -0.5150  0.6222
18656TIP3    H277384   5.336   1.055   6.068  0.6514  0.3557 -0.9809
18657TIP3   OH277385   5.951   6.031   3.650 -0.3352 -1.0805  0.0323
18657TIP3    H177386   5.863   6.019   3.686 -0.7012  0.6843 -0.1743
18657TIP3    H277387   5.999   5.953   3.678 -1.8147 -1.8428  0.5810
18658TIP3   OH277388   3.498   1.723   6.268 -0.1892  0.3545  0.3299
18658TIP3    H177389   3.468   1.635   6.290  0.4140  0.6623  2.5807
18658TIP3    H277390   3.501   1.770   6.351  0.2628  2.2877 -0.7023
18659TIP3   OH277391   2.517   5.391   4.501  0.0714 -0.3227  0.0073
18659TIP3    H177392   2.466   5.410   4.580  1.5663  0.9620  0.7016
18659TIP3    H277393   2.527   5.295   4.502  0.3838 -0.2982  1.5786
18660TIP3   OH277394   1.288   3.279  15.791 -0.4907 -0.2696 -0.3027
18660TIP3    H177395   1.265   3.242  15.876 -0.7238  1.0369  0.2311
18660TIP3    H277396   1.206   3.311  15.755 -0.3462 -0.5517 -0.9009
18661TIP3   OH277397   4.211   1.969   5.490 -0.0691  0.1869 -0.9122
18661TIP3    H177398   4.118   1.954   5.469  0.4034 -1.0509 -2.3300
18661TIP3    H277399   4.213   2.056   5.528 -2.0449 -0.4156  0.8017
18662TIP3   OH277400   0.054   5.722   1.709 -0.2020  0.0306  0.3669
18662TIP3    H177401   0.056   5.676   1.792  1.0907  1.7925  1.3758
18662TIP3    H277402   0.133   5.777   1.710  0.5277 -0.7770 -2.5514
18663TIP3   OH277403   5.997   3.263   1.937  0.4284 -0.0592  0.9560
18663TIP3    H177404   6.012   3.176   1.973  2.3318 -0.8183 -1.4161
18663TIP3    H277405   5.995   3.251   1.843 -0.4290  2.3468  0.5724
18664TIP3   OH277406   1.397   2.899   1.548 -0.0911  0.0172  0.2293
18664TIP3    H177407   1.488   2.868   1.550 -0.6335 -1.7550 -0.6217
18664TIP3    H277408   1.368   2.884   1.459 -1.2768  0.4249  0.5262
18665TIP3   OH277409   2.108   3.353  17.318  0.2109 -0.1717  0.3879
18665TIP3    H177410   2.126   3.293  17.390  0.6766 -2.7768 -1.7328
18665TIP3    H277411   2.020   3.331  17.289  0.2501  0.4319 -0.2207
18666TIP3   OH277412   5.860   5.425   2.747 -0.1942  0.0863  0.0629
18666TIP3    H177413   5.777   5.403   2.790  0.1032  0.5308  0.8883
18666TIP3    H277414   5.894   5.340   2.718 -0.7542 -0.1415  0.0491
18667TIP3   OH277415   4.564   4.604   6.268  0.4099  0.3028  0.6676
18667TIP3    H177416   4.530   4.692   6.250  1.0409  0.5673  0.7570
18667TIP3    H277417   4.586   4.569   6.182  1.5571  0.8085  0.7383
18668TIP3   OH277418   5.666   3.452   5.179  0.2599  0.3632  0.0624
18668TIP3    H177419   5.735   3.442   5.113 -0.0480 -0.0934 -0.1931
18668TIP3    H277420   5.588   3.417   5.138  0.0670  0.0568  0.6758
18669TIP3   OH277421   4.537   2.714  15.917 -0.2882  0.2536  0.1888
18669TIP3    H177422   4.565   2.800  15.947  2.2947 -0.8749  1.2802
18669TIP3    H277423   4.579   2.703  15.832 -0.6945  0.0982  0.0026
18670TIP3   OH277424   6.254   3.422  15.613  0.0893 -0.4982 -0.5129
18670TIP3    H177425   6.347   3.433  15.592  1.0587 -1.0175  2.9673
18670TIP3    H277426   6.239   3.328  15.603 -0.1651 -0.3809 -1.3119
18671TIP3   OH277427   6.334   5.929  15.223 -0.1543 -0.4330 -0.3050
18671TIP3    H177428   6.425   5.935  15.193  1.0969  1.8126  3.3342
18671TIP3    H277429   6.316   5.835  15.226  3.0021 -1.1047  1.2006
18672TIP3   OH277430   1.999   4.923  14.088  0.1001 -0.2340 -0.4736
18672TIP3    H177431   1.999   5.001  14.143  0.6406 -3.0118  3.9724
18672TIP3    H277432   1.912   4.886  14.098  0.3039 -0.9714 -1.2806
18673TIP3   OH277433   2.723   5.802  13.634  0.2561  0.4530  0.9614
18673TIP3    H177434   2.816   5.814  13.656  0.2518  0.6816  0.8523
18673TIP3    H277435   2.711   5.852  13.553  0.3112 -0.5203  0.3410
18674TIP3   OH277436   5.712   0.549   4.631  0.0314  0.0724  0.1531
18674TIP3    H177437   5.801   0.519   4.616 -0.0306  0.1413 -0.3652
18674TIP3    H277438   5.662   0.468   4.647  0.3154  0.0844  1.1791
18675TIP3   OH277439   5.992   3.490  13.508  0.2972  0.2362 -0.5873
18675TIP3    H177440   6.067   3.524  13.556 -0.3145 -0.8294  1.2057
18675TIP3    H277441   6.031   3.444  13.433  1.3627  0.6506 -0.3055
18676TIP3   OH277442   4.849   2.988   2.977 -0.4874  0.5417 -0.9061
18676TIP3    H177443   4.887   3.002   3.064  1.3654 -2.0692 -1.1578
18676TIP3    H277444   4.803   3.069   2.957  0.0047  1.6602  2.0074
18677TIP3   OH277445   0.498   4.258   2.621 -0.6411  0.0016 -0.1202
18677TIP3    H177446   0.426   4.249   2.558 -1.6577  2.0892  0.6218
18677TIP3    H277447   0.468   4.209   2.698 -0.1571 -1.1406 -0.6435
18678TIP3   OH277448   5.197   3.351   4.469 -0.3451 -0.0551 -0.1538
18678TIP3    H177449   5.202   3.435   4.516  0.3375 -0.0673 -0.1906
18678TIP3    H277450   5.260   3.360   4.398 -1.2935 -0.0852 -1.0089
18679TIP3   OH277451   5.550   0.443  11.549 -0.0282 -0.2172  0.2520
18679TIP3    H177452   5.549   0.517  11.488  0.1237  0.1615  0.7043
18679TIP3    H277453   5.464   0.403  11.539  0.8543 -1.7980 -2.1748
18680TIP3   OH277454   4.023   2.112  14.723 -0.0390 -0.1967  0.2239
18680TIP3    H177455   3.933   2.095  14.694 -0.8119  1.4581  1.4829
18680TIP3    H277456   4.075   2.109  14.643 -1.5706  1.0208 -0.8736
18681TIP3   OH277457   4.267   2.236   4.994 -0.1498  0.5094  0.1447
18681TIP3    H177458   4.218   2.317   4.982 -2.6080 -0.5415  2.1727
18681TIP3    H277459   4.243   2.206   5.082 -0.2690 -3.0169 -0.9436
18682TIP3   OH277460   5.330   5.389   2.130 -0.1796 -0.0958  0.0898
18682TIP3    H177461   5.352   5.296   2.125 -0.8761 -0.2663 -4.6865
18682TIP3    H277462   5.415   5.433   2.134  0.3324 -0.9630 -0.6626
18683TIP3   OH277463   6.400   6.534  13.613 -0.1544 -0.1566 -0.3446
18683TIP3    H177464   6.320   6.587  13.623  0.4141  0.3890  1.7167
18683TIP3    H277465   6.370   6.444  13.620 -0.8055 -0.0474 -1.4230
18684TIP3   OH277466   1.590   4.824  10.659  1.0111 -0.1246  0.3345
18684TIP3    H177467   1.613   4.743  10.705  2.9377  1.3029  2.0936
18684TIP3    H277468   1.662   4.838  10.598  0.2149 -0.1905 -0.6375
18685TIP3   OH277469   5.139   1.750  15.750  1.1717 -0.0469 -0.0617
18685TIP3    H177470   5.202   1.762  15.821  0.6695 -0.3544  0.4426
18685TIP3    H277471   5.193   1.722  15.675  1.8744  1.6501 -0.2250
18686TIP3   OH277472   0.472   2.716   0.949 -0.5790 -0.5933  0.1150
18686TIP3    H177473   0.408   2.779   0.915 -0.8217  1.2808  3.6340
18686TIP3    H277474   0.543   2.719   0.885 -1.2746  2.0961 -0.6991
18687TIP3   OH277475   1.760   1.401  14.001 -0.5559  0.1478  0.2312
18687TIP3    H177476   1.704   1.477  13.992 -0.2054  0.2020 -2.0113
18687TIP3    H277477   1.702   1.326  13.989 -0.2199  0.2059 -2.2086
18688TIP3   OH277478   5.090   0.955   6.233 -0.4392 -0.3786 -0.1232
18688TIP3    H177479   5.141   1.014   6.176 -1.6176  0.4360 -0.3635
18688TIP3    H277480   5.076   1.005   6.313  0.5915 -1.2561  0.6290
18689TIP3   OH277481   2.690   4.181   2.823 -0.1076 -0.3271 -0.4277
18689TIP3    H177482   2.755   4.249   2.839 -1.1194  0.2599  1.4668
18689TIP3    H277483   2.622   4.225   2.772 -0.4633 -0.0830  0.2517
18690TIP3   OH277484   3.522   2.488   6.121 -0.1406 -0.1227 -0.6134
18690TIP3    H177485   3.565   2.510   6.204 -1.4200 -1.9742  0.6322
18690TIP3    H277486   3.428   2.489   6.142 -0.4404 -1.7695 -1.6873
18691TIP3   OH277487   1.194   5.039   5.059  0.5012  0.8083 -0.2118
18691TIP3    H177488   1.268   5.076   5.107  1.0370  0.5380 -0.8092
18691TIP3    H277489   1.214   5.058   4.967  1.6495 -2.3523 -0.7312
18692TIP3   OH277490   4.723   1.491   0.250 -0.0770 -0.4163 -0.1080
18692TIP3    H177491   4.803   1.440   0.260  0.4566  0.5939  1.1273
18692TIP3    H277492   4.719   1.512   0.156  1.3741 -0.0997 -0.1229
18693TIP3   OH277493   0.783   0.216   5.308  0.6778 -0.1616 -0.1144
18693TIP3    H177494   0.774   0.161   5.230  1.5213  0.5887 -0.7614
18693TIP3    H277495   0.829   0.161   5.371  0.5900 -0.5467 -0.3862
18694TIP3   OH277496   0.415   5.802  12.838 -0.0877 -0.2531 -0.3211
18694TIP3    H177497   0.497   5.794  12.789  0.6447  0.1103  0.8265
18694TIP3    H277498   0.391   5.894  12.829  0.4166 -0.0327  0.5864
18695TIP3   OH277499   1.401   0.376   3.668 -0.2007  0.0566  0.3117
18695TIP3    H177500   1.477   0.432   3.683 -0.7016  0.5381  1.1123
18695TIP3    H277501   1.370   0.402   3.581 -0.3633  0.9727  0.6252
18696TIP3   OH277502   6.611   0.038  13.271 -0.3019 -0.3911 -0.4106
18696TIP3    H177503   6.683   0.072  13.218  0.4099  0.0414  0.7807
18696TIP3    H277504   6.649  -0.038  13.315 -1.4295 -1.8645 -1.8904
18697TIP3   OH277505   0.723   1.858  16.258  0.0341 -0.3264  0.7257
18697TIP3    H177506   0.671   1.918  16.205 -0.1890 -1.9855 -1.0480
18697TIP3    H277507   0.773   1.915  16.316 -0.9821  1.5045 -0.0993
18698TIP3   OH277508   1.200   3.583  17.106 -0.0879 -0.4023  0.0652
18698TIP3    H177509   1.151   3.587  17.188 -3.4970  1.7187 -1.8194
18698TIP3    H277510   1.238   3.670  17.095 -2.8464  0.6905 -2.1450
18699TIP3   OH277511   2.015   0.193   3.478 -0.4155  0.2032  0.2581
18699TIP3    H177512   2.062   0.183   3.395 -0.9968 -1.1751  0.0810
18699TIP3    H277513   1.944   0.129   3.474 -1.7997  1.6276  0.9052
18700TIP3   OH277514   4.807   2.296   4.889 -0.8578  0.6737  0.1305
18700TIP3    H177515   4.832   2.382   4.855  0.0880  1.0387  1.6268
18700TIP3    H277516   4.736   2.314   4.950 -2.8270 -0.0194 -1.8289
18701TIP3   OH277517   0.412   2.481   2.877 -0.3014  0.1477  0.4601
18701TIP3    H177518   0.462   2.560   2.898  1.1373 -0.4854 -0.4298
18701TIP3    H277519   0.398   2.438   2.961 -0.5410  1.0180  0.8734
18702TIP3   OH277520   2.730   0.436   4.342  0.1117  0.4048  0.1464
18702TIP3    H177521   2.772   0.358   4.305 -3.0421 -1.3560  0.0084
18702TIP3    H277522   2.786   0.509   4.313  1.6724 -1.5305 -2.0714
18703TIP3   OH277523   0.401   3.143  13.038 -0.0856  0.0712 -0.3144
18703TIP3    H177524   0.356   3.092  13.105 -0.6160 -0.9601 -1.4138
18703TIP3    H277525   0.376   3.233  13.056 -0.8225 -0.2630  0.4245
18704TIP3   OH277526   5.825   1.938   0.686  0.6367  0.3987 -0.2036
18704TIP3    H177527   5.829   1.882   0.763  0.7885  0.4268 -0.1901
18704TIP3    H277528   5.826   1.877   0.612  0.4445  0.3703 -0.1819
18705TIP3   OH277529   1.896   5.708   2.864 -0.0636  0.4824 -0.4168
18705TIP3    H177530   1.821   5.683   2.919  0.4464  0.3466  0.2195
18705TIP3    H277531   1.885   5.656   2.784  0.5482 -1.2186  0.5612
18706TIP3   OH277532   0.187   4.557  13.350 -0.0515  0.9726 -0.1251
18706TIP3    H177533   0.102   4.513  13.341  0.0017  0.5506  1.2219
18706TIP3    H277534   0.164   4.647  13.372 -0.2164  0.3119  2.7456
18707TIP3   OH277535   2.100   2.849   4.248 -0.2889 -0.0424 -0.1003
18707TIP3    H177536   2.018   2.855   4.199 -0.9786  0.1961  1.0256
18707TIP3    H277537   2.125   2.939   4.265 -0.2849 -0.1212  0.3290
18708TIP3   OH277538   4.687   4.433  15.927  0.4317 -0.2112 -0.2867
18708TIP3    H177539   4.626   4.362  15.908  0.0307 -0.0865  0.4987
18708TIP3    H277540   4.770   4.389  15.947  0.1017 -0.4765  0.5122
18709TIP3   OH277541   0.918   3.221   1.434  0.2485 -0.3482  0.8227
18709TIP3    H177542   1.009   3.246   1.418  0.3555 -0.6197  0.9908
18709TIP3    H277543   0.899   3.155   1.367  0.1130 -0.1474  0.6645
18710TIP3   OH277544   0.117   6.300  13.047  0.0111  0.6475 -0.6238
18710TIP3    H177545   0.202   6.286  13.089 -0.6752  0.3431  0.7121
18710TIP3    H277546   0.053   6.277  13.114 -1.1434  2.1619 -1.1588
18711TIP3   OH277547   2.040   4.052   3.695 -0.4155 -0.2965  0.6162
18711TIP3    H177548   2.069   4.121   3.635  0.2171 -1.9907 -1.1453
18711TIP3    H277549   2.111   4.045   3.760 -1.3743  1.9524  2.0067
18712TIP3   OH277550   5.601   3.799   5.216 -0.2071 -0.4365 -0.1417
18712TIP3    H177551   5.653   3.845   5.151 -0.6975 -2.0926 -1.7599
18712TIP3    H277552   5.662   3.780   5.287  0.3398  1.3614 -0.0757
18713TIP3   OH277553   1.485   2.918  15.758  0.1085 -0.9360  0.1695
18713TIP3    H177554   1.552   2.971  15.801 -0.5253 -0.1468  0.2259
18713TIP3    H277555   1.410   2.923  15.816 -0.2228 -1.2279 -0.2259
18714TIP3   OH277556   5.250   3.243  12.450 -0.6450  0.3369  0.0059
18714TIP3    H177557   5.268   3.169  12.508 -0.9634 -0.9398 -1.4692
18714TIP3    H277558   5.332   3.293  12.451 -1.0396  1.0796  2.5044
18715TIP3   OH277559   4.738   5.342  12.160  0.4447  0.2886 -0.2853
18715TIP3    H177560   4.788   5.276  12.209  0.0183 -0.1142 -0.3791
18715TIP3    H277561   4.804   5.399  12.122  0.7852  0.8877  1.1396
18716TIP3   OH277562   1.842   4.782   5.464 -0.3621  0.2625  0.0165
18716TIP3    H177563   1.827   4.873   5.490  0.5301  0.4835 -0.2206
18716TIP3    H277564   1.935   4.778   5.444 -0.3669 -0.7418  0.1614
18717TIP3   OH277565   3.486   4.958   1.785 -0.3729  0.5762 -0.2957
18717TIP3    H177566   3.394   4.967   1.809 -0.8607 -1.8267 -0.9746
18717TIP3    H277567   3.515   4.880   1.832  1.5993  1.7494  0.5644
18718TIP3   OH277568   2.141   2.854  13.135  0.0622  0.3695  0.0140
18718TIP3    H177569   2.053   2.887  13.155  0.9352  1.8444  1.7656
18718TIP3    H277570   2.173   2.913  13.067  0.1372  0.6098  0.2549
18719TIP3   OH277571   5.300   3.043   5.754 -0.1855 -0.5943  0.4745
18719TIP3    H177572   5.209   3.069   5.740  0.2901  2.1214  1.9071
18719TIP3    H277573   5.349   3.125   5.757  2.2169 -1.9353  0.5564
18720TIP3   OH277574   6.203   3.354  15.923 -0.4082 -0.2906 -0.1392
18720TIP3    H177575   6.214   3.259  15.922 -0.1946 -0.2716 -1.4519
18720TIP3    H277576   6.188   3.378  15.832 -0.9391  0.8936  0.2324
18721TIP3   OH277577   3.839   4.363  15.802  0.1813  0.2961 -0.1274
18721TIP3    H177578   3.815   4.273  15.823 -1.7343  0.9979  0.9671
18721TIP3    H277579   3.871   4.399  15.884 -0.8742  1.1321 -0.0607
18722TIP3   OH277580   4.640   5.849   6.286 -0.0205  0.2614 -0.0812
18722TIP3    H177581   4.667   5.913   6.352 -0.3426  0.3912 -0.0731
18722TIP3    H277582   4.721   5.803   6.263 -0.2066 -1.1342  1.8392
18723TIP3   OH277583   6.010   3.403  16.922  0.4662 -0.0616  0.0924
18723TIP3    H177584   6.071   3.337  16.889  0.4135 -0.2601  0.3899
18723TIP3    H277585   5.968   3.362  16.997 -1.0189 -0.4450 -0.9028
18724TIP3   OH277586   1.655   2.239   4.383 -0.5497  0.4374 -0.8180
18724TIP3    H177587   1.709   2.235   4.304  0.8165 -0.1808  0.1131
18724TIP3    H277588   1.713   2.211   4.454 -2.5208 -1.9386  0.0185
18725TIP3   OH277589   3.985   6.597  17.106 -0.4786  0.4751  0.0632
18725TIP3    H177590   4.004   6.604  17.012 -0.2198  0.5558  0.1198
18725TIP3    H277591   3.893   6.571  17.110 -0.2624 -0.3868 -0.2313
18726TIP3   OH277592   0.229   1.482   2.990 -0.5840 -0.1859 -0.0896
18726TIP3    H177593   0.204   1.390   3.003 -2.8430  0.0622 -1.9789
18726TIP3    H277594   0.226   1.521   3.077  1.7259 -2.1244  0.9716
18727TIP3   OH277595   4.295   4.596  16.273  0.1006  0.2089  0.0061
18727TIP3    H177596   4.215   4.560  16.235 -0.6563  2.1959 -0.4347
18727TIP3    H277597   4.365   4.537  16.244 -0.8158  0.1416 -2.2495
18728TIP3   OH277598   0.322   4.800  17.119  0.5221 -0.0612 -0.0772
18728TIP3    H177599   0.401   4.833  17.161 -0.0642  0.6916  0.4681
18728TIP3    H277600   0.326   4.705  17.130  1.5951 -0.0813 -0.5140
18729TIP3   OH277601   1.703   6.080   5.719  0.0873 -0.5939  0.3355
18729TIP3    H177602   1.776   6.092   5.659  1.0902  0.1806  1.6607
18729TIP3    H277603   1.639   6.146   5.694  1.3432  1.0555  1.3083
18730TIP3   OH277604   5.240   2.145  13.692 -0.2508  0.2552  0.2206
18730TIP3    H177605   5.257   2.080  13.624 -0.4839 -0.7371  1.0723
18730TIP3    H277606   5.206   2.221  13.645 -1.8321 -0.9208 -0.6643
18731TIP3   OH277607   5.708   3.134  13.318  0.0247 -0.1324 -0.4738
18731TIP3    H177608   5.641   3.200  13.298 -0.9427 -1.2488 -1.0367
18731TIP3    H277609   5.659   3.062  13.358  1.1071 -0.3946  0.4167
18732TIP3   OH277610   6.287   5.437  15.496  0.5924 -0.2632  0.6987
18732TIP3    H177611   6.195   5.434  15.525  0.3615 -0.0697 -0.0041
18732TIP3    H277612   6.309   5.346  15.476  1.3179 -0.7054  3.1515
18733TIP3   OH277613   1.548   0.762  11.965 -0.1045 -0.0138 -0.0844
18733TIP3    H177614   1.612   0.740  11.898 -0.3753 -1.6091  0.1370
18733TIP3    H277615   1.578   0.845  12.001 -0.5743  1.4651 -2.8967
18734TIP3   OH277616   0.013   3.559   4.670 -0.1894  0.4983 -0.0342
18734TIP3    H177617   0.024   3.632   4.731 -0.2999 -1.2404  2.2265
18734TIP3    H277618   0.090   3.504   4.686 -1.0476 -0.8114 -0.2795
18735TIP3   OH277619   2.315   2.070  15.984  0.5742  0.3687 -0.4188
18735TIP3    H177620   2.277   1.983  15.981  1.2165  0.0791 -0.4374
18735TIP3    H277621   2.344   2.088  15.895  1.8601 -0.0651 -0.1146
18736TIP3   OH277622   4.780   3.204  14.526 -0.2195  0.2136  0.0337
18736TIP3    H177623   4.868   3.183  14.557 -0.0033  0.5904 -0.3092
18736TIP3    H277624   4.778   3.300  14.525  0.0399  0.2464 -1.7815
18737TIP3   OH277625   3.041   6.533   3.333  0.7009  0.6402  0.0967
18737TIP3    H177626   3.068   6.593   3.263 -1.1658  2.1873  0.6296
18737TIP3    H277627   3.024   6.450   3.288 -1.2395  1.8104 -1.4919
18738TIP3   OH277628   3.344   3.577   1.250 -0.0093  0.0983 -0.2612
18738TIP3    H177629   3.435   3.569   1.222  0.8926  1.5257  2.0038
18738TIP3    H277630   3.318   3.664   1.221 -0.5057 -0.1106 -0.4567
18739TIP3   OH277631   3.736   6.269   6.698 -0.3586 -0.7126 -0.1711
18739TIP3    H177632   3.688   6.187   6.692 -0.0507 -1.0464  1.4523
18739TIP3    H277633   3.669   6.336   6.714 -0.4105 -0.9951  0.8304
18740TIP3   OH277634   0.615   5.498   2.200 -0.1620  0.1044  0.4564
18740TIP3    H177635   0.615   5.440   2.276 -0.8112  1.3579  1.4574
18740TIP3    H277636   0.680   5.565   2.220 -0.2843  0.4116 -0.1296
18741TIP3   OH277637   5.316   5.262  11.285  0.2409  0.0466 -0.1116
18741TIP3    H177638   5.396   5.292  11.241  0.5668 -2.5546 -1.4911
18741TIP3    H277639   5.246   5.285  11.224  0.2537 -0.0178 -0.1513
18742TIP3   OH277640   6.174   5.749  12.787  0.3093  0.2570  0.0690
18742TIP3    H177641   6.106   5.793  12.735  0.4770  0.8568  0.3430
18742TIP3    H277642   6.248   5.810  12.785  0.8757 -0.4356 -0.3101
18743TIP3   OH277643   5.848   5.667   1.048  0.0190 -0.2734  0.1350
18743TIP3    H177644   5.823   5.708   1.131 -0.2642 -1.1514  0.5060
18743TIP3    H277645   5.765   5.633   1.013  0.1722 -0.0959 -0.4025
18744TIP3   OH277646   0.083   2.849  14.409 -0.4012 -0.4956 -0.2591
18744TIP3    H177647  -0.004   2.855  14.449 -0.6770  0.8282 -1.0011
18744TIP3    H277648   0.116   2.939  14.408  1.3933 -1.0849  0.8582
18745TIP3   OH277649   1.156   0.677   3.196 -0.0486  0.2945  0.0141
18745TIP3    H177650   1.117   0.756   3.234  1.8055  1.3204 -0.0812
18745TIP3    H277651   1.112   0.666   3.112  0.0607  1.6091 -0.2465
18746TIP3   OH277652   6.532   4.355   3.613  0.3710 -0.1525  0.0081
18746TIP3    H177653   6.441   4.330   3.630  0.8339 -1.2099  1.0795
18746TIP3    H277654   6.547   4.330   3.521 -0.2203 -0.5858  0.0227
18747TIP3   OH277655   0.631   6.350  15.613 -0.7710 -0.0763  0.4527
18747TIP3    H177656   0.679   6.276  15.650 -1.9963 -0.8873  0.4744
18747TIP3    H277657   0.683   6.427  15.638  0.5274 -0.9108  0.4221
18748TIP3   OH277658   1.666   5.359   5.716 -0.0683  0.1977  0.1734
18748TIP3    H177659   1.756   5.326   5.709  0.0729  0.3799  1.0287
18748TIP3    H277660   1.626   5.305   5.784 -0.4219  0.5263  0.2317
18749TIP3   OH277661   3.522   2.349   3.391 -0.2282  1.0564 -0.1749
18749TIP3    H177662   3.427   2.338   3.388 -0.1385 -0.2947  0.5238
18749TIP3    H277663   3.536   2.443   3.401 -1.4919  1.2615 -0.1942
18750TIP3   OH277664   4.171   1.917  11.584  0.1731  0.0007 -0.2659
18750TIP3    H177665   4.259   1.952  11.599 -0.5997  1.9125  0.0265
18750TIP3    H277666   4.184   1.849  11.518  1.8709  0.2655 -0.2548
18751TIP3   OH277667   2.099   4.283   3.556 -0.1693  0.1488 -0.6055
18751TIP3    H177668   2.054   4.365   3.574  0.1416 -0.2610  2.5113
18751TIP3    H277669   2.191   4.308   3.546 -0.3197  0.3544 -1.6370
18752TIP3   OH277670   2.495   3.477   1.792  0.2933 -0.3227  0.4010
18752TIP3    H177671   2.511   3.571   1.806  2.3078 -0.9380  2.9384
18752TIP3    H277672   2.438   3.452   1.865 -2.5550 -0.6420 -1.7764
18753TIP3   OH277673   0.974   1.632  14.896  0.1698  0.0735 -0.2391
18753TIP3    H177674   0.931   1.666  14.817  0.5740 -0.2000 -0.5870
18753TIP3    H277675   1.060   1.602  14.865  0.0381 -0.7520  0.1601
18754TIP3   OH277676   3.702   4.915   4.177  0.0914 -0.3987  0.0560
18754TIP3    H177677   3.756   4.925   4.255 -0.6115  2.1278  0.3198
18754TIP3    H277678   3.626   4.865   4.207  1.0264 -1.7325  0.2972
18755TIP3   OH277679   5.696   6.712   5.967 -0.0838 -0.1700  1.1193
18755TIP3    H177680   5.743   6.631   5.947  0.6996  0.3568  0.7833
18755TIP3    H277681   5.663   6.699   6.055 -1.5913 -1.6054  0.4019
18756TIP3   OH277682   2.313   4.014  16.024 -0.1494  0.0636 -0.7473
18756TIP3    H177683   2.243   3.992  15.962 -1.6507 -0.5285  1.0735
18756TIP3    H277684   2.298   4.107  16.044  1.4273  0.7713 -2.5270
18757TIP3   OH277685   1.567   0.644   1.133  0.1511  0.0064  0.8301
18757TIP3    H177686   1.531   0.617   1.217  1.3537 -1.4428  0.9260
18757TIP3    H277687   1.635   0.580   1.114  0.3661  0.6858 -0.9413
18758TIP3   OH277688   3.071   2.565  14.391  0.2532  0.1809 -0.6891
18758TIP3    H177689   3.004   2.611  14.441  1.6422  1.3257  0.2051
18758TIP3    H277690   3.070   2.607  14.305 -0.8897 -0.5500 -1.0481
18759TIP3   OH277691   6.638   2.855  17.020  0.0270  0.0564 -0.3245
18759TIP3    H177692   6.723   2.880  17.056  0.5489 -0.6333 -1.0429
18759TIP3    H277693   6.659   2.812  16.937 -0.9212 -1.3871  0.1391
18760TIP3   OH277694   0.883   5.587   2.043  0.3685  0.2670 -0.1697
18760TIP3    H177695   0.790   5.596   2.021  0.5711  1.0719 -0.7499
18760TIP3    H277696   0.927   5.653   1.990  1.2511  0.0695  0.2883
18761TIP3   OH277697   4.576   3.826  15.046 -0.4089 -0.0737 -0.4374
18761TIP3    H177698   4.503   3.794  15.099 -0.5231  0.1057 -0.4852
18761TIP3    H277699   4.649   3.832  15.108 -0.9015  1.4835  0.0385
18762TIP3   OH277700   6.427   5.253  16.890 -0.0533 -0.0530  0.0138
18762TIP3    H177701   6.517   5.239  16.921  0.2013 -0.2689 -0.7988
18762TIP3    H277702   6.375   5.190  16.940  0.1920  0.2748  0.7040
18763TIP3   OH277703   5.459   5.766   3.784 -0.4026  0.5964 -0.0154
18763TIP3    H177704   5.438   5.806   3.869 -1.6894  1.1368 -0.5642
18763TIP3    H277705   5.503   5.685   3.807 -0.6574  0.7693  1.1823
18764TIP3   OH277706   2.104   5.613   4.486  0.1215 -0.3755 -0.1981
18764TIP3    H177707   2.091   5.531   4.534  0.1026 -1.5168 -2.0244
18764TIP3    H277708   2.068   5.681   4.543 -0.2954 -1.6874  1.1739
18765TIP3   OH277709   0.520   3.758   1.920  0.7019 -0.3172  0.5164
18765TIP3    H177710   0.464   3.825   1.880  1.0349 -0.5249 -0.3218
18765TIP3    H277711   0.498   3.678   1.873  1.9504 -0.3290 -0.0849
18766TIP3   OH277712   1.282   6.549   1.356  0.6970 -0.0739  0.5294
18766TIP3    H177713   1.362   6.584   1.318  0.9942 -1.9834 -0.7180
18766TIP3    H277714   1.283   6.456   1.333 -0.8755 -0.5775  2.2392
18767TIP3   OH277715   4.880   0.606  16.872  0.5890  0.5115 -0.0732
18767TIP3    H177716   4.833   0.637  16.795  0.3542  0.5965  0.1039
18767TIP3    H277717   4.812   0.589  16.937  0.3761 -3.1507 -1.0534
18768TIP3   OH277718   6.690   4.517  14.815 -0.1768  0.3851 -0.1393
18768TIP3    H177719   6.622   4.450  14.822 -0.7693  0.8405 -1.2959
18768TIP3    H277720   6.667   4.567  14.737 -0.2334  2.4933  1.1434
18769TIP3   OH277721   5.561   1.587   4.586 -0.2352 -0.6596 -0.2373
18769TIP3    H177722   5.572   1.560   4.677 -0.7635  0.3810  0.1581
18769TIP3    H277723   5.646   1.624   4.561 -0.4299  0.1146  0.2197
18770TIP3   OH277724   1.051   6.739   4.372  0.3704  0.0433  0.7608
18770TIP3    H177725   0.974   6.687   4.393  1.1750 -2.2590 -1.3919
18770TIP3    H277726   1.105   6.737   4.451 -0.0481 -1.6955  1.0342
18771TIP3   OH277727   6.681   2.520  14.668 -0.3403 -0.3913 -0.5576
18771TIP3    H177728   6.721   2.529  14.581  0.0981 -3.7811 -0.8252
18771TIP3    H277729   6.751   2.484  14.723 -0.5586  1.8521  1.3497
18772TIP3   OH277730   0.768   2.256   2.268 -0.2758  0.1204  0.0181
18772TIP3    H177731   0.732   2.231   2.353 -2.6051 -0.0634 -0.9555
18772TIP3    H277732   0.725   2.197   2.205  1.9169 -0.2434 -1.2563
18773TIP3   OH277733   2.260   4.307   1.995  0.6869  0.2039 -0.6897
18773TIP3    H177734   2.276   4.368   1.922  1.0168 -0.2877 -1.0399
18773TIP3    H277735   2.336   4.249   1.994  1.0220  0.5926  0.4700
18774TIP3   OH277736   4.449   2.309   5.484 -0.3083  0.0682  0.1677
18774TIP3    H177737   4.457   2.339   5.575 -0.8088  0.3583  0.1183
18774TIP3    H277738   4.438   2.390   5.433  2.0827  0.1122 -0.4236
18775TIP3   OH277739   0.442   2.220  12.314  0.0389  0.0197 -0.3065
18775TIP3    H177740   0.463   2.243  12.223 -0.1462  3.2980  0.3542
18775TIP3    H277741   0.521   2.179  12.347  0.7211  0.3509 -1.4636
18776TIP3   OH277742   6.628   5.185   4.547 -0.7007 -0.1750  0.0654
18776TIP3    H177743   6.635   5.232   4.464 -0.7949 -0.4560 -0.1024
18776TIP3    H277744   6.582   5.245   4.606 -1.1890 -0.2195 -0.2690
18777TIP3   OH277745   3.126   2.708  14.860  0.4433  0.6979 -0.3723
18777TIP3    H177746   3.046   2.667  14.825  0.7383 -0.3744  0.1527
18777TIP3    H277747   3.132   2.675  14.949  0.2457  2.6000  0.3935
18778TIP3   OH277748   3.200   6.225   5.946 -0.0878  0.2634 -0.1202
18778TIP3    H177749   3.127   6.243   5.886 -0.3550  0.0363  0.1334
18778TIP3    H277750   3.179   6.276   6.025  0.1535  0.3899 -0.1367
18779TIP3   OH277751   4.487   0.517  14.722  0.4471  1.3396 -0.3886
18779TIP3    H177752   4.449   0.503  14.808  2.2686  3.6562  0.9105
18779TIP3    H277753   4.577   0.485  14.730  0.6990  1.7713 -1.3422
18780TIP3   OH277754   0.033   4.712  12.577  0.2160  0.0416 -0.0764
18780TIP3    H177755  -0.001   4.693  12.490  1.1612  4.2506 -1.5786
18780TIP3    H277756  -0.041   4.693  12.636 -1.5275  0.0680 -2.1458
18781TIP3   OH277757   6.438   6.632   4.405 -0.1240 -0.3000 -0.4042
18781TIP3    H177758   6.355   6.590   4.428  0.4392 -2.1293 -1.4676
18781TIP3    H277759   6.439   6.634   4.310  0.3536  1.2340 -0.3914
18782TIP3   OH277760   2.830   4.410  16.046  0.1168 -0.0962  0.1404
18782TIP3    H177761   2.885   4.349  16.096 -0.1642 -1.0336 -0.6699
18782TIP3    H277762   2.893   4.462  15.996  0.3128 -0.5310 -0.0722
18783TIP3   OH277763   3.332   6.508   0.560  0.0245  0.4941 -0.4586
18783TIP3    H177764   3.385   6.580   0.525  0.0352  0.4461 -0.5449
18783TIP3    H277765   3.282   6.546   0.631  1.0790  0.2715  0.4284
18784TIP3   OH277766   2.643   6.218  16.307 -0.3298 -0.0760 -0.5894
18784TIP3    H177767   2.624   6.166  16.229  0.0070  0.6766 -1.1902
18784TIP3    H277768   2.686   6.297  16.273 -1.1073  0.7412  0.2596
18785TIP3   OH277769   1.421   2.731  15.427 -0.0277  0.2343  0.2010
18785TIP3    H177770   1.367   2.738  15.506 -0.8005 -0.0335 -0.2916
18785TIP3    H277771   1.510   2.722  15.460 -0.3271  0.2270  1.0435
18786TIP3   OH277772   4.968   3.340  13.153 -0.2185 -0.2699  0.0444
18786TIP3    H177773   4.878   3.308  13.148 -0.2538 -0.1295 -0.2694
18786TIP3    H277774   5.003   3.326  13.065  0.3560 -1.1577  0.4061
18787TIP3   OH277775   5.978   0.165  13.433  0.1657  0.4532 -0.7930
18787TIP3    H177776   5.886   0.140  13.435 -0.0377  1.0986 -1.4768
18787TIP3    H277777   6.005   0.166  13.525 -0.4274 -0.0328 -0.6106
18788TIP3   OH277778   2.044   4.638   0.471 -0.3657  0.5832 -0.0296
18788TIP3    H177779   2.030   4.731   0.488  0.6474  1.0758 -1.6591
18788TIP3    H277780   2.027   4.627   0.378  0.6976 -0.6153 -0.1171
18789TIP3   OH277781   4.734   3.251  14.934 -0.4289 -0.0671 -0.1625
18789TIP3    H177782   4.663   3.234  14.873  2.1477 -1.0931 -3.1839
18789TIP3    H277783   4.750   3.167  14.977 -0.1590 -0.1918 -0.5079
18790TIP3   OH277784   2.493   1.787  11.801 -0.1103  0.5742  0.0629
18790TIP3    H177785   2.544   1.842  11.860 -0.4977  1.1656 -0.1401
18790TIP3    H277786   2.518   1.816  11.713 -0.8976  0.9821 -0.0366
18791TIP3   OH277787   1.905   6.115  15.210  0.0110  0.1854 -0.1148
18791TIP3    H177788   1.853   6.077  15.281 -1.4543  1.0604 -0.6680
18791TIP3    H277789   1.870   6.204  15.200  2.1785  1.1174  0.0134
18792TIP3   OH277790   6.653   4.581  12.032  0.4723 -0.1144 -0.4617
18792TIP3    H177791   6.588   4.518  12.064  0.1521 -0.6432 -2.0652
18792TIP3    H277792   6.603   4.662  12.020  0.5405  0.0170  0.0961
18793TIP3   OH277793   4.536   2.435  10.926 -0.1565 -0.2432  0.0712
18793TIP3    H177794   4.533   2.516  10.977 -0.1438  0.6012 -1.2028
18793TIP3    H277795   4.458   2.387  10.952 -2.6257  2.1773 -2.2167
18794TIP3   OH277796   4.054   4.066   1.049 -0.1198 -0.4875  0.4083
18794TIP3    H177797   4.078   4.159   1.042  2.5397 -1.0334  1.1621
18794TIP3    H277798   4.044   4.051   1.143 -0.8582 -0.8961  0.2673
18795TIP3   OH277799   5.140   2.648  16.938 -0.0326  0.0469 -0.3652
18795TIP3    H177800   5.198   2.572  16.933 -0.8930 -0.6409 -0.1341
18795TIP3    H277801   5.198   2.721  16.962  0.7128 -0.6505 -0.0019
18796TIP3   OH277802   5.992   2.401   0.911 -0.1743  0.1459 -0.0417
18796TIP3    H177803   5.936   2.350   0.852  1.2116 -1.8934  0.2959
18796TIP3    H277804   6.073   2.414   0.863  0.0842  0.6372  0.5130
18797TIP3   OH277805   1.411   0.271  17.204  0.0660  0.0815 -0.0486
18797TIP3    H177806   1.329   0.247  17.162  0.1953 -0.0478 -0.2305
18797TIP3    H277807   1.471   0.199  17.183  0.1651  0.0704  0.2616
18798TIP3   OH277808   2.824   3.346  14.322 -0.6327 -0.5543 -0.0916
18798TIP3    H177809   2.918   3.339  14.335 -0.3176 -0.0151 -1.8217
18798TIP3    H277810   2.812   3.343  14.227 -2.1824  1.0748 -0.0202
18799TIP3   OH277811   0.774   0.513   1.794 -0.0818 -0.1802 -0.0004
18799TIP3    H177812   0.821   0.485   1.716  0.6733  0.5111  0.1966
18799TIP3    H277813   0.814   0.463   1.866 -0.6777 -0.7091 -0.0277
18800TIP3   OH277814   5.049   6.711   0.483 -0.0242  0.8170  0.1146
18800TIP3    H177815   5.035   6.658   0.404  0.7712 -0.1631  0.6035
18800TIP3    H277816   4.961   6.726   0.518 -0.3296  0.6276 -0.5578
18801TIP3   OH277817   1.751   4.983  17.102 -0.3285 -0.5850  0.2757
18801TIP3    H177818   1.661   4.985  17.068  0.5151  0.2966 -2.0612
18801TIP3    H277819   1.782   5.073  17.094  1.5421 -1.2997 -1.2893
18802TIP3   OH277820   3.873   2.952   2.672  0.2094 -0.5431 -0.1262
18802TIP3    H177821   3.905   3.041   2.685  1.5197 -0.6824 -1.9721
18802TIP3    H277822   3.902   2.903   2.749 -1.0410  0.7166  1.1906
18803TIP3   OH277823   5.697   2.285  16.051 -0.2185 -0.3685 -0.2197
18803TIP3    H177824   5.636   2.239  16.109 -0.6736 -0.4801 -0.7805
18803TIP3    H277825   5.769   2.223  16.038  0.5767  0.1766  1.3274
18804TIP3   OH277826   2.366   2.447  13.533  0.1078  0.4406  0.3136
18804TIP3    H177827   2.300   2.417  13.471 -1.1621  2.7769  0.3901
18804TIP3    H277828   2.402   2.527  13.493  0.2678  1.2083  1.9146
18805TIP3   OH277829   2.234   6.031  11.764  0.0634  0.4800 -0.5858
18805TIP3    H177830   2.257   6.114  11.722  0.0894  0.8181  0.0818
18805TIP3    H277831   2.302   5.970  11.735  0.9630  1.0877  0.1519
18806TIP3   OH277832   2.627   2.284  15.018 -0.2912  0.0051  0.0850
18806TIP3    H177833   2.638   2.192  15.043 -0.3086  0.3198  1.2895
18806TIP3    H277834   2.682   2.333  15.079 -0.2745  0.8028 -0.5473
18807TIP3   OH277835   2.986   5.934   4.165  0.1823 -0.2656 -0.5301
18807TIP3    H177836   3.048   5.897   4.227  1.7408 -0.6166 -2.2201
18807TIP3    H277837   3.015   6.024   4.152 -0.5719  0.0308 -0.2241
18808TIP3   OH277838   2.062   0.678   5.675  0.3592 -0.3657  0.3309
18808TIP3    H177839   2.134   0.626   5.711 -0.8152 -3.3047 -1.2618
18808TIP3    H277840   1.984   0.624   5.688 -0.7479  0.3419 -2.5801
18809TIP3   OH277841   1.620   3.810   1.931  0.1592 -0.0268 -0.3638
18809TIP3    H177842   1.613   3.716   1.947  1.0507 -0.4213 -2.0848
18809TIP3    H277843   1.638   3.817   1.838  0.3574  1.8549 -0.2132
18810TIP3   OH277844   2.174   3.384  11.245 -0.1915  0.0269  0.9239
18810TIP3    H177845   2.195   3.405  11.154 -0.3881  1.4508  1.1799
18810TIP3    H277846   2.124   3.303  11.241 -0.1373  0.0441 -0.2239
18811TIP3   OH277847   4.533   1.209  16.803 -0.3527  0.2108 -0.2234
18811TIP3    H177848   4.495   1.177  16.884  0.4940 -1.8892 -0.5761
18811TIP3    H277849   4.597   1.275  16.830 -0.3054 -0.2401  0.8043
18812TIP3   OH277850   4.184   1.567  13.303 -0.0851 -0.3736 -0.0466
18812TIP3    H177851   4.091   1.584  13.295 -0.7071 -2.2189  2.2244
18812TIP3    H277852   4.226   1.642  13.261 -2.5485  0.5944 -0.9532
18813TIP3   OH277853   0.540   2.636  16.511  0.1648 -0.2790  0.0759
18813TIP3    H177854   0.597   2.643  16.587 -0.3343 -1.2234  0.5597
18813TIP3    H277855   0.549   2.545  16.482 -0.9269 -0.4034  0.0611
18814TIP3   OH277856   0.709   4.432  12.574 -0.0649 -0.3127  0.3469
18814TIP3    H177857   0.689   4.378  12.498  1.3822 -0.4569  0.0329
18814TIP3    H277858   0.785   4.389  12.614  0.5995  1.0066  0.5668
18815TIP3   OH277859   5.148   4.527   1.592  0.2680  0.1327 -0.5141
18815TIP3    H177860   5.185   4.443   1.567 -3.4488 -1.5300 -1.0284
18815TIP3    H277861   5.075   4.506   1.650  0.9575  3.2394  1.7313
18816TIP3   OH277862   3.079   6.410  13.554 -0.3659  0.4521 -0.0595
18816TIP3    H177863   3.015   6.373  13.494  0.1641  1.0694 -1.0322
18816TIP3    H277864   3.161   6.411  13.505  0.1642  0.6404  0.8027
18817TIP3   OH277865   5.603   5.360   2.169  0.2597 -0.3812 -0.6718
18817TIP3    H177866   5.545   5.301   2.119 -0.2120 -1.5062  1.0813
18817TIP3    H277867   5.606   5.440   2.117  0.5217 -1.7556 -2.9249
18818TIP3   OH277868   1.794   5.290   6.110  0.8291  0.3894 -0.4697
18818TIP3    H177869   1.862   5.331   6.164  1.3601 -0.7685 -0.2238
18818TIP3    H277870   1.741   5.363   6.078  2.5535  1.4038 -1.1541
18819TIP3   OH277871   2.426   4.294   3.462  0.3543  0.2531 -0.7286
18819TIP3    H177872   2.381   4.209   3.456 -1.1237  0.9703 -0.2604
18819TIP3    H277873   2.453   4.300   3.553 -1.9133  1.3837 -0.0512
18820TIP3   OH277874   0.517   6.066   4.064 -0.4716 -0.1784 -0.5428
18820TIP3    H177875   0.449   6.038   4.126  0.7951  0.0016  0.9807
18820TIP3    H277876   0.469   6.112   3.995 -1.8863 -0.0521  0.4833
18821TIP3   OH277877   3.520   4.537  16.196  0.2879 -0.8087  0.4213
18821TIP3    H177878   3.427   4.525  16.181  0.6306 -2.5999 -0.6226
18821TIP3    H277879   3.547   4.602  16.132 -0.2343 -0.3161  0.6969
18822TIP3   OH277880   5.623   4.044  12.875  0.8474  0.3576  0.0569
18822TIP3    H177881   5.587   4.008  12.793 -0.8907  0.8611  0.5537
18822TIP3    H277882   5.678   4.117  12.848  0.2082  0.5787 -0.6623
18823TIP3   OH277883   0.292   6.248   6.118  0.0827 -0.3565 -0.0039
18823TIP3    H177884   0.387   6.238   6.110 -0.0307 -0.6888 -0.9856
18823TIP3    H277885   0.267   6.179   6.179  0.6102  0.4962  1.2233
18824TIP3   OH277886   6.082   4.330   2.445  0.4599 -0.1089  0.1159
18824TIP3    H177887   6.165   4.281   2.447  1.1448  0.9464 -0.9591
18824TIP3    H277888   6.075   4.368   2.533  1.8137  0.8721 -0.1675
18825TIP3   OH277889   1.890   2.689   3.289  0.7312  0.3783  0.4904
18825TIP3    H177890   1.842   2.717   3.211  0.9370  1.2776  0.6825
18825TIP3    H277891   1.861   2.748   3.358  1.0641  0.0222  0.9430
18826TIP3   OH277892   4.476   0.024  15.757  0.2431  0.1640 -0.2150
18826TIP3    H177893   4.402   0.072  15.793  0.7300  1.5927 -1.0239
18826TIP3    H277894   4.520   0.087  15.700  1.4820 -0.9650 -0.5667
18827TIP3   OH277895   5.929   3.529  12.886 -0.4605 -0.2106 -0.6613
18827TIP3    H177896   5.895   3.619  12.884 -0.5128 -0.1707  0.8742
18827TIP3    H277897   5.916   3.500  12.976  1.5904 -0.9718 -0.5471
18828TIP3   OH277898   2.349   5.261   0.709  0.3413 -0.1401  0.3525
18828TIP3    H177899   2.341   5.228   0.798  1.3360  0.9866  0.8701
18828TIP3    H277900   2.321   5.187   0.654  0.4000 -1.0825  1.5547
18829TIP3   OH277901   6.096   1.274   1.850  0.1059 -0.5605  0.3270
18829TIP3    H177902   6.124   1.303   1.764  1.6956  2.3244  1.6574
18829TIP3    H277903   6.141   1.191   1.864  0.5671 -0.5991 -1.2171
18830TIP3   OH277904   0.186   5.020  17.064 -0.1965  0.2432  0.4053
18830TIP3    H177905   0.217   4.932  17.089  1.3633  0.1784 -1.4914
18830TIP3    H277906   0.150   5.056  17.144 -0.7215 -2.0666  1.2957
18831TIP3   OH277907   6.164   2.928   5.400 -0.1623 -0.2092 -0.4572
18831TIP3    H177908   6.192   2.874   5.327 -1.6287 -0.6657 -0.7151
18831TIP3    H277909   6.245   2.954   5.444  0.6560 -1.0466 -1.4437
18832TIP3   OH277910   4.252   0.680   4.304 -0.1177  0.2216  0.4903
18832TIP3    H177911   4.204   0.713   4.380  0.8002  0.7416  0.8634
18832TIP3    H277912   4.344   0.687   4.329  0.3247  2.3261 -1.3849
18833TIP3   OH277913   5.585   2.647  12.166  0.6462 -0.5744 -0.4612
18833TIP3    H177914   5.506   2.640  12.112  0.0548  0.6269  0.2140
18833TIP3    H277915   5.614   2.556  12.176 -2.0198 -1.3520  1.2676
18834TIP3   OH277916   2.963   0.657   4.587 -0.5659 -0.2182  0.1958
18834TIP3    H177917   2.991   0.719   4.520 -1.3421 -1.5642 -1.4487
18834TIP3    H277918   3.031   0.663   4.655 -0.7053  2.4663  0.1671
18835TIP3   OH277919   0.938   5.884  17.146  0.3307 -0.0593 -0.1911
18835TIP3    H177920   0.876   5.819  17.112  1.7773 -0.5779 -2.0125
18835TIP3    H277921   0.948   5.947  17.074  1.5772  0.2509  0.2322
18836TIP3   OH277922   1.363   0.602   5.295 -0.9516 -0.9852  0.4251
18836TIP3    H177923   1.425   0.638   5.358 -0.2617 -3.4188  1.2610
18836TIP3    H277924   1.375   0.655   5.216  1.4800 -0.7593  0.8862
18837TIP3   OH277925   3.934   1.742  15.173  0.2245  0.5666  0.2604
18837TIP3    H177926   3.918   1.818  15.118 -2.7963 -0.0816  0.0323
18837TIP3    H277927   4.006   1.695  15.131  0.6612  2.1364 -0.8171
18838TIP3   OH277928   4.903   1.360   0.802  0.1338 -0.0050 -0.1155
18838TIP3    H177929   4.837   1.388   0.739  1.0917  0.5039 -0.9223
18838TIP3    H277930   4.855   1.346   0.883 -0.5843  3.0797  0.0929
18839TIP3   OH277931   0.528   5.580  15.869 -0.7613 -0.5668 -0.5132
18839TIP3    H177932   0.606   5.605  15.918 -1.2912 -0.7174  0.4119
18839TIP3    H277933   0.475   5.660  15.867 -2.0018 -1.2875  1.5818
18840TIP3   OH277934   6.193   4.720   0.873  1.0555  0.2909  0.0538
18840TIP3    H177935   6.138   4.642   0.880  0.0818  1.0337  1.1489
18840TIP3    H277936   6.135   4.792   0.897  2.2688  1.2140  0.3036
18841TIP3   OH277937   6.509   5.838   2.747  0.1768  0.0970  0.4687
18841TIP3    H177938   6.474   5.782   2.815  1.3187 -0.9659  0.2079
18841TIP3    H277939   6.433   5.858   2.691 -0.3260 -0.8754  0.7808
18842TIP3   OH277940   0.709   0.645  16.886  0.1202 -0.2584  0.1168
18842TIP3    H177941   0.663   0.656  16.802 -1.2873 -1.6687  0.6449
18842TIP3    H277942   0.667   0.707  16.945 -1.8980 -2.1825  0.8485
18843TIP3   OH277943   4.816   2.404  12.506  0.4620 -0.1060  0.0157
18843TIP3    H177944   4.731   2.363  12.517 -0.1400  0.7667 -1.2149
18843TIP3    H277945   4.829   2.409  12.411  2.0931 -0.6371  0.1733
18844TIP3   OH277946   5.179   2.183   0.234  0.0881 -0.0898 -0.1093
18844TIP3    H177947   5.240   2.139   0.293  0.3534  1.7744  1.0848
18844TIP3    H277948   5.234   2.219   0.164  0.0781 -0.2112 -0.1805
18845TIP3   OH277949   0.259   4.816  11.472  0.5748  0.2009  0.1183
18845TIP3    H177950   0.306   4.773  11.544  1.8058 -0.2446 -0.9265
18845TIP3    H277951   0.324   4.827  11.403 -0.9690 -0.9570 -1.6129
18846TIP3   OH277952   3.104   0.611  13.583  0.3574  0.8545 -0.1710
18846TIP3    H177953   3.159   0.571  13.651 -0.7419  0.5174  0.5394
18846TIP3    H277954   3.020   0.626  13.626 -0.7436 -0.4019 -1.7421
18847TIP3   OH277955   1.465   2.665   0.460  0.2997 -0.1104  0.2707
18847TIP3    H177956   1.442   2.720   0.385  0.4690  0.5747  0.7068
18847TIP3    H277957   1.492   2.727   0.527 -0.6672 -0.6560  1.1920
18848TIP3   OH277958   3.948   4.786  13.576 -0.0514 -0.4999 -0.1538
18848TIP3    H177959   3.985   4.711  13.622  0.4501  0.4137  0.9834
18848TIP3    H277960   3.992   4.862  13.615  1.7733  0.2863 -3.3217
18849TIP3   OH277961   5.711   0.753  17.099  0.6562 -0.1138 -0.3971
18849TIP3    H177962   5.795   0.762  17.144  0.2441 -3.2720  1.3022
18849TIP3    H277963   5.650   0.726  17.168 -1.3822  0.3883 -1.9021
18850TIP3   OH277964   5.864   6.290  10.982  0.4059 -0.1863  0.7184
18850TIP3    H177965   5.772   6.281  11.005  1.1492 -1.3315  3.7713
18850TIP3    H277966   5.884   6.383  10.995 -0.1457 -0.0887  0.8906
18851TIP3   OH277967   2.671   5.603  15.411  0.5297 -0.2693  0.1395
18851TIP3    H177968   2.663   5.615  15.506  0.6273  1.6950 -0.0575
18851TIP3    H277969   2.712   5.684  15.380  2.4979 -1.7200 -1.3431
18852TIP3   OH277970   4.088   0.445  13.521 -0.3965  0.4995  0.1162
18852TIP3    H177971   4.103   0.396  13.440 -0.2663 -0.3102  0.6084
18852TIP3    H277972   4.174   0.477  13.546 -0.4112  0.6198  0.0102
18853TIP3   OH277973   0.677   2.662  16.770 -0.0954 -0.3829 -0.2686
18853TIP3    H177974   0.750   2.603  16.788 -0.2536 -0.2867  0.7210
18853TIP3    H277975   0.683   2.729  16.838 -2.0060 -1.2117  0.7652
18854TIP3   OH277976   5.239   1.239  16.212 -0.3501 -0.3592 -0.8017
18854TIP3    H177977   5.174   1.263  16.279  0.8554  0.6160  0.0668
18854TIP3    H277978   5.292   1.318  16.201  2.1752 -1.7970  0.2476
18855TIP3   OH277979   2.980   1.634  13.650  0.2154  0.1594  0.0948
18855TIP3    H177980   2.954   1.688  13.576  1.2311 -1.0888 -1.2416
18855TIP3    H277981   3.049   1.577  13.615 -0.2149 -1.3980  1.6449
18856TIP3   OH277982   4.924   1.131   6.585 -0.3423  0.2019  0.1287
18856TIP3    H177983   5.014   1.120   6.554 -0.2220  0.8989  0.2068
18856TIP3    H277984   4.876   1.160   6.507 -0.3466  0.5145  0.2442
18857TIP3   OH277985   1.232   3.593   5.033 -1.0319  0.2969 -0.3824
18857TIP3    H177986   1.199   3.670   5.080 -2.3217  0.4535 -1.4715
18857TIP3    H277987   1.274   3.629   4.955 -2.1543 -0.1024 -1.1940
18858TIP3   OH277988   1.234   3.014   3.173 -0.3110  0.3497  0.2938
18858TIP3    H177989   1.141   3.002   3.153  0.2795 -0.8097 -2.1081
18858TIP3    H277990   1.260   2.933   3.216 -0.0991  0.0268 -0.4254
18859TIP3   OH277991   3.906   3.661  11.934 -0.0135  0.0586  0.3778
18859TIP3    H177992   3.984   3.647  11.879 -0.8116 -0.0372 -0.7572
18859TIP3    H277993   3.918   3.748  11.970  1.2737 -0.4673  1.3331
18860TIP3   OH277994   3.842   5.250   1.255 -0.5795 -0.3455  0.6428
18860TIP3    H177995   3.793   5.331   1.241  2.0158  1.1944 -0.3981
18860TIP3    H277996   3.806   5.188   1.192 -0.8351  0.9113 -0.4931
18861TIP3   OH277997   5.811   0.833  14.981 -0.4457  0.2760  0.5357
18861TIP3    H177998   5.798   0.864  14.892 -1.4329  0.4194  0.7185
18861TIP3    H277999   5.748   0.761  14.991 -0.3143  0.2341  1.0980
18862TIP3   OH278000   0.755   6.583  15.705  0.0617  0.4032 -0.2815
18862TIP3    H178001   0.706   6.656  15.743  0.3167  1.0514 -1.1739
18862TIP3    H278002   0.827   6.624  15.657 -0.6438 -0.2974 -2.0605
18863TIP3   OH278003   3.302   0.794   1.904  0.1185  0.6269  0.3596
18863TIP3    H178004   3.380   0.824   1.856 -0.9091  1.9637 -0.5461
18863TIP3    H278005   3.239   0.866   1.895 -1.6523 -0.8927  0.0429
18864TIP3   OH278006   4.399   3.721   6.201  0.0812  0.2202  0.1798
18864TIP3    H178007   4.398   3.783   6.274 -0.8315  2.6452 -1.7351
18864TIP3    H278008   4.350   3.646   6.232  1.8884  0.0336  2.8819
18865TIP3   OH278009   0.745   4.837   2.806 -0.2748 -0.0059  0.2043
18865TIP3    H178010   0.736   4.794   2.721 -0.4191 -0.2091  0.3187
18865TIP3    H278011   0.826   4.801   2.842  0.6986  1.3431 -0.5559
18866TIP3   OH278012   3.247   0.431   3.839 -0.3617  0.3286  0.6601
18866TIP3    H178013   3.315   0.485   3.879 -0.3613  0.1534  0.8977
18866TIP3    H278014   3.268   0.341   3.866 -1.3113  0.3843  1.6834
18867TIP3   OH278015   6.459   0.666  16.034  0.6690 -0.1095  0.2271
18867TIP3    H178016   6.442   0.575  16.059 -2.6810 -0.1795 -1.7397
18867TIP3    H278017   6.517   0.659  15.957 -0.8245 -0.7451 -0.8899
18868TIP3   OH278018   5.810   5.030  16.876  0.2072 -0.3257 -0.4605
18868TIP3    H178019   5.720   5.058  16.858  0.3068 -0.2716 -0.8967
18868TIP3    H278020   5.805   4.935  16.886 -0.0332 -0.2310  0.3875
18869TIP3   OH278021   0.611   1.548   3.373  0.3233  0.1862  0.3537
18869TIP3    H178022   0.641   1.543   3.464  0.4956 -0.8450  0.2557
18869TIP3    H278023   0.623   1.459   3.340 -1.0399  0.2192 -0.2657
18870TIP3   OH278024   2.407   4.505   1.125  0.0426  0.5415  0.0487
18870TIP3    H178025   2.350   4.450   1.071  0.2353 -0.5119  0.8931
18870TIP3    H278026   2.352   4.578   1.153 -1.2144 -0.9507  1.6476
18871TIP3   OH278027   2.541   3.311   6.008  0.2319 -0.3875 -0.3980
18871TIP3    H178028   2.556   3.405   6.003  0.3106 -0.4112 -0.6163
18871TIP3    H278029   2.550   3.289   6.101 -0.1591 -0.1187 -0.2935
18872TIP3   OH278030   3.209   2.899   2.055 -0.9176  0.5542  0.1981
18872TIP3    H178031   3.194   2.891   2.149 -2.0825  0.0368 -0.0199
18872TIP3    H278032   3.238   2.812   2.027  2.5838  1.4603  0.5692
18873TIP3   OH278033   1.757   0.189  14.310  0.2574 -0.0226  0.0175
18873TIP3    H178034   1.702   0.166  14.234 -0.0100 -2.2237  0.7933
18873TIP3    H278035   1.713   0.264  14.350 -1.0556 -0.4589 -0.5487
18874TIP3   OH278036   6.507   2.458   0.569  0.2661  0.1097  0.0996
18874TIP3    H178037   6.546   2.396   0.630 -0.4865 -0.0928  0.3896
18874TIP3    H278038   6.572   2.467   0.499  1.2447  0.5316  1.0358
18875TIP3   OH278039   6.612   2.261  12.569  0.1691  0.0817 -0.4973
18875TIP3    H178040   6.608   2.340  12.624  1.2551 -0.6318  0.6454
18875TIP3    H278041   6.693   2.218  12.595 -0.6382 -1.6730 -0.7550
18876TIP3   OH278042   6.108   4.770   3.163 -0.4164  0.1895  0.6231
18876TIP3    H178043   6.045   4.772   3.235 -0.2491 -0.3317  0.7874
18876TIP3    H278044   6.116   4.677   3.141  1.0026  0.1534  1.2225
18877TIP3   OH278045   0.110   1.791  14.987 -0.1690 -0.1886 -0.3839
18877TIP3    H178046   0.138   1.790  14.895 -1.7422 -2.5295 -0.9085
18877TIP3    H278047   0.038   1.854  14.989  1.5543  1.9095 -0.1034
18878TIP3   OH278048   2.737   6.488  16.324  0.1936 -0.3611 -0.4173
18878TIP3    H178049   2.818   6.443  16.346  1.8784  2.2566 -0.9639
18878TIP3    H278050   2.694   6.501  16.409 -0.2075 -2.5672 -0.2069
18879TIP3   OH278051   3.935   2.642   1.020 -0.0588  0.0473  0.0430
18879TIP3    H178052   4.021   2.676   0.995 -0.4655 -0.3113 -2.0688
18879TIP3    H278053   3.874   2.711   0.994 -0.5571 -0.5712 -0.4512
18880TIP3   OH278054   0.940   2.434  11.947 -0.3147  0.3360 -0.8998
18880TIP3    H178055   0.900   2.487  12.017  0.1677 -0.6499  0.1643
18880TIP3    H278056   0.935   2.489  11.869  0.0547  1.8918  0.1306
18881TIP3   OH278057   3.388   6.431  16.517 -0.0519 -0.0422 -0.6291
18881TIP3    H178058   3.359   6.405  16.429  3.0327 -0.5387 -1.6304
18881TIP3    H278059   3.398   6.349  16.564  1.2726 -0.0763 -0.9084
18882TIP3   OH278060   2.792   3.181   4.143  0.4278 -0.2182  0.2136
18882TIP3    H178061   2.885   3.199   4.160  0.5371 -1.4560  1.0428
18882TIP3    H278062   2.793   3.125   4.065  0.6300 -2.4295  1.6847
18883TIP3   OH278063   2.466   2.660   3.765  0.6502 -0.1467  0.4431
18883TIP3    H178064   2.550   2.639   3.806  0.8596 -1.8914 -0.7942
18883TIP3    H278065   2.406   2.594   3.800  0.4569 -0.6275 -0.7647
18884TIP3   OH278066   5.604   1.254  13.393 -0.3422  0.1982 -0.0477
18884TIP3    H178067   5.645   1.297  13.468 -0.2036 -1.2621  0.7548
18884TIP3    H278068   5.610   1.318  13.322  0.2468  1.3047  0.9708
18885TIP3   OH278069   2.545   0.043   5.701  0.1016  0.2080 -0.3408
18885TIP3    H178070   2.546  -0.028   5.637  0.7195  2.2253 -2.7524
18885TIP3    H278071   2.636   0.052   5.729  0.5318  1.5658 -1.9823
18886TIP3   OH278072   2.697   1.187   2.864 -0.0582 -0.2467  0.0661
18886TIP3    H178073   2.614   1.141   2.857 -0.4097  0.3825  0.0194
18886TIP3    H278074   2.733   1.186   2.775 -0.0468 -0.4623  0.0737
18887TIP3   OH278075   4.948   1.171  16.835 -0.0031 -0.5459  0.3625
18887TIP3    H178076   4.911   1.129  16.913  0.0955 -1.0447  0.1462
18887TIP3    H278077   5.039   1.141  16.834 -0.0965 -0.8209 -0.1338
18888TIP3   OH278078   2.708   4.403   0.088  0.5445 -0.4841  0.0843
18888TIP3    H178079   2.642   4.343   0.054  0.1187  0.0390 -0.0147
18888TIP3    H278080   2.746   4.443   0.009  1.0774 -0.8880  0.1335
18889TIP3   OH278081   3.969   1.774   1.482  0.2920 -0.0039 -0.1338
18889TIP3    H178082   4.036   1.722   1.437 -0.9179 -0.9273 -0.9069
18889TIP3    H278083   3.892   1.718   1.484 -0.8298  1.4704 -0.2900
18890TIP3   OH278084   3.767   2.061   5.246 -0.0260 -0.2212  0.1013
18890TIP3    H178085   3.775   1.966   5.247  1.2675 -0.1404 -0.4647
18890TIP3    H278086   3.760   2.085   5.338 -0.5134 -0.8717  0.2403
18891TIP3   OH278087   4.276   6.620   6.633  0.1682  0.1325  0.4135
18891TIP3    H178088   4.363   6.604   6.670  0.9661  1.8820 -0.5532
18891TIP3    H278089   4.291   6.685   6.563 -1.9877  0.9802  0.6488
18892TIP3   OH278090   4.009   4.432  14.933  0.2440  0.1462 -0.4093
18892TIP3    H178091   3.927   4.406  14.973 -0.4304  1.8015 -0.6336
18892TIP3    H278092   4.014   4.527  14.947  3.1175 -0.1681  1.4189
18893TIP3   OH278093   5.932   0.890   0.126  0.1078  0.2273 -0.2760
18893TIP3    H178094   5.860   0.935   0.082 -0.2997 -1.0621 -0.9908
18893TIP3    H278095   5.897   0.869   0.212 -0.9992 -1.7448 -1.1301
18894TIP3   OH278096   1.920   2.558  12.365 -0.0724  0.2427  0.5471
18894TIP3    H178097   1.925   2.630  12.428  0.5001  2.4704 -1.8737
18894TIP3    H278098   2.011   2.537  12.346 -0.2440 -0.2192  0.2350
18895TIP3   OH278099   0.877   2.016  11.094 -0.0802  0.3784  0.4763
18895TIP3    H178100   0.885   1.929  11.056  1.3066  0.2839  0.9279
18895TIP3    H278101   0.789   2.045  11.069  0.3623 -0.1088 -1.8729
18896TIP3   OH278102   1.647   1.332   5.296 -0.3047 -0.2804 -0.1884
18896TIP3    H178103   1.717   1.339   5.232  0.3201 -1.3497  0.3590
18896TIP3    H278104   1.671   1.258   5.351 -0.5035  0.9380  1.6500
18897TIP3   OH278105   2.102   2.342  11.956 -0.4142  0.1870 -0.1392
18897TIP3    H178106   2.029   2.403  11.964 -0.3271  0.1388  1.2818
18897TIP3    H278107   2.065   2.257  11.977 -0.1505  0.0112 -0.3708
18898TIP3   OH278108   6.109   6.482   0.557 -0.1898 -0.0805 -0.0619
18898TIP3    H178109   6.023   6.523   0.567 -0.2888 -0.6224  1.6781
18898TIP3    H278110   6.166   6.553   0.527 -0.1605  1.7547  3.7196
18899TIP3   OH278111   3.532   5.329  11.860 -0.2767 -0.0092  0.8198
18899TIP3    H178112   3.587   5.400  11.894  1.4902 -0.4236 -0.9895
18899TIP3    H278113   3.495   5.364  11.779  0.7553 -1.1601 -0.1903
18900TIP3   OH278114   1.217   5.233  16.406  0.4896 -0.1617 -0.3609
18900TIP3    H178115   1.138   5.183  16.425  0.1139  0.7663  0.6353
18900TIP3    H278116   1.270   5.175  16.353 -1.2301 -0.4950 -1.8053
18901TIP3   OH278117   6.232   5.058  13.043  0.1165  0.4524  0.1911
18901TIP3    H178118   6.323   5.081  13.024 -0.1841  0.3284 -1.6622
18901TIP3    H278119   6.185   5.141  13.033 -0.1224  0.2799 -0.1462
18902TIP3   OH278120   2.454   6.116   6.795 -0.3332 -0.0467 -0.7183
18902TIP3    H178121   2.468   6.110   6.889 -0.6396  0.5074 -0.6304
18902TIP3    H278122   2.518   6.056   6.757 -1.4420 -1.7065 -0.0731
18903TIP3   OH278123   3.370   5.066   0.383 -0.5505 -0.4607 -0.0400
18903TIP3    H178124   3.393   5.139   0.325 -1.1219 -0.0935  0.1780
18903TIP3    H278125   3.417   4.991   0.348  0.6941  0.1776  0.1921
18904TIP3   OH278126   4.004   1.705  12.896  0.1798  0.2415 -0.0527
18904TIP3    H178127   3.919   1.750  12.899  0.4824  0.7849  0.4244
18904TIP3    H278128   3.991   1.634  12.832 -0.6362  0.3127  0.0247
18905TIP3   OH278129   3.865   1.953  15.987 -0.2274  0.1151 -0.1353
18905TIP3    H178130   3.787   1.981  15.939  0.2982 -0.7428 -1.5179
18905TIP3    H278131   3.832   1.935  16.076 -1.3487  0.9722 -0.3504
18906TIP3   OH278132   2.440   4.487   2.845  0.1020  0.0988 -0.0896
18906TIP3    H178133   2.442   4.410   2.788  0.3042  1.2831 -1.7451
18906TIP3    H278134   2.350   4.519   2.838  0.1169  0.2296  0.3027
18907TIP3   OH278135   5.349   1.666  15.577  0.1776  0.2696 -0.2647
18907TIP3    H178136   5.367   1.650  15.485 -1.6974  2.7279 -1.1643
18907TIP3    H278137   5.293   1.592  15.603 -2.2861  1.3070 -2.1888
18908TIP3   OH278138   1.509   3.725   3.454  0.4205  0.3107 -0.1941
18908TIP3    H178139   1.416   3.736   3.435  0.1271 -1.1212  0.2930
18908TIP3    H278140   1.514   3.719   3.549  1.0442  0.5704 -0.2034
18909TIP3   OH278141   3.393   6.367  13.083  0.1921  0.7472  0.7462
18909TIP3    H178142   3.372   6.331  12.997 -1.2662  1.1861  0.8906
18909TIP3    H278143   3.400   6.462  13.069  2.0565  0.6540  0.7423
18910TIP3   OH278144   6.248   3.578  15.273  0.5919 -0.3180  0.3881
18910TIP3    H178145   6.334   3.616  15.252  0.1715  0.2707 -0.2975
18910TIP3    H278146   6.199   3.583  15.191 -0.5396  0.5503  1.1026
18911TIP3   OH278147   2.044   5.407   2.654 -0.4818 -0.0751 -0.1430
18911TIP3    H178148   1.964   5.451   2.624  1.1199  2.6081 -0.8060
18911TIP3    H278149   2.093   5.390   2.573  1.1814  1.6855  0.4147
18912TIP3   OH278150   0.448   5.943   1.958  0.3220 -0.7283  1.2332
18912TIP3    H178151   0.425   5.853   1.937  1.7114 -0.4867 -1.7717
18912TIP3    H278152   0.542   5.940   1.976  0.4944  0.2043  0.5148
18913TIP3   OH278153   1.584   5.304  16.972 -0.0293 -0.2343 -0.8437
18913TIP3    H178154   1.606   5.388  16.932 -0.5602 -0.3934 -1.4926
18913TIP3    H278155   1.669   5.263  16.988  0.2192  0.1863 -1.0462
18914TIP3   OH278156   0.811   3.311   6.097 -0.3340  0.2668 -0.7988
18914TIP3    H178157   0.886   3.327   6.155 -1.1350  1.9697 -0.1522
18914TIP3    H278158   0.760   3.243   6.142 -0.5574  1.0386  0.1523
18915TIP3   OH278159   2.845   1.267  13.195 -0.2684  0.3020 -0.2605
18915TIP3    H178160   2.896   1.283  13.115  0.8180  2.2879  0.7527
18915TIP3    H278161   2.896   1.202  13.243  0.0227  0.4546 -0.3617
18916TIP3   OH278162   1.676   2.630   4.066 -0.0889  0.1925  0.5107
18916TIP3    H178163   1.759   2.640   4.112  0.1275 -0.9353  0.3880
18916TIP3    H278164   1.693   2.561   4.002 -0.8288  0.6696 -0.2125
18917TIP3   OH278165   6.149   3.809  14.804 -0.1613  0.0185  0.0101
18917TIP3    H178166   6.087   3.878  14.829 -0.5736 -0.6167  0.7611
18917TIP3    H278167   6.098   3.751  14.748 -0.2178 -0.4219  0.5072
18918TIP3   OH278168   2.943   0.448   2.400  0.3209 -1.1787 -0.6199
18918TIP3    H178169   2.867   0.416   2.449 -0.8628  0.6774 -1.1317
18918TIP3    H278170   2.991   0.369   2.376 -0.8800 -2.3441  0.6244
18919TIP3   OH278171   3.839   6.050  13.356 -0.0074  0.0926 -0.4740
18919TIP3    H178172   3.779   6.124  13.344  1.1010  0.9403 -1.0566
18919TIP3    H278173   3.862   6.053  13.449 -1.3435 -0.6399 -0.1039
18920TIP3   OH278174   3.363   4.224   3.837  0.2079  0.0853  0.0048
18920TIP3    H178175   3.297   4.159   3.814 -0.7446  1.7784 -2.5495
18920TIP3    H278176   3.441   4.197   3.790  0.4845 -0.3466  0.6950
18921TIP3   OH278177   4.353   3.884   3.409 -0.0185  0.2149 -0.7010
18921TIP3    H178178   4.271   3.847   3.439 -0.8580  0.6437 -2.3358
18921TIP3    H278179   4.410   3.884   3.486 -2.1245  1.5745  0.9752
18922TIP3   OH278180   4.293   3.049  15.307  0.3381  0.5162  0.5082
18922TIP3    H178181   4.318   3.104  15.233  2.1953 -0.3869  0.4005
18922TIP3    H278182   4.198   3.055  15.310  0.3820  2.6394 -0.3086
18923TIP3   OH278183   2.504   3.971   1.628  0.3376  0.0581  0.0537
18923TIP3    H178184   2.592   3.963   1.592  0.4481 -1.8249  0.6724
18923TIP3    H278185   2.451   3.909   1.578 -0.4673  0.5285  0.2884
18924TIP3   OH278186   5.262   6.084  12.786 -0.6221  0.3401  0.1029
18924TIP3    H178187   5.330   6.145  12.814  1.0501 -1.1330 -0.5742
18924TIP3    H278188   5.213   6.132  12.718 -0.0221  1.2872  0.3199
18925TIP3   OH278189   0.027   5.410  13.314 -0.2011  0.0011  0.2966
18925TIP3    H178190   0.099   5.428  13.254  0.0841 -1.9914 -0.0472
18925TIP3    H278191  -0.032   5.484  13.305  1.7259  1.6481  0.5080
18926TIP3   OH278192   6.138   0.350  16.904 -0.1788 -0.1037  0.0321
18926TIP3    H178193   6.092   0.434  16.904  0.7638  0.4226  0.2616
18926TIP3    H278194   6.078   0.291  16.949 -0.9342  0.3954 -0.2942
18927TIP3   OH278195   2.476   6.419   2.782 -0.3176  0.1805 -0.2163
18927TIP3    H178196   2.472   6.434   2.687 -2.1217 -1.0336 -0.3828
18927TIP3    H278197   2.484   6.324   2.791  0.8629  0.3580  0.8717
18928TIP3   OH278198   6.505   3.297   5.164 -0.3248  0.6466  0.1520
18928TIP3    H178199   6.540   3.383   5.142  0.0775  0.4130 -0.1465
18928TIP3    H278200   6.505   3.295   5.260 -0.3331  0.9785  0.1589
18929TIP3   OH278201   3.240   0.426   2.118  0.2658 -0.0649 -0.3311
18929TIP3    H178202   3.257   0.506   2.168  0.1912  0.0897 -0.5513
18929TIP3    H278203   3.233   0.357   2.184 -0.6225  0.2659 -0.0589
18930TIP3   OH278204   4.830   2.530   0.628 -0.1038  0.1264 -0.1649
18930TIP3    H178205   4.857   2.541   0.719 -0.0789  0.9709 -0.2714
18930TIP3    H278206   4.907   2.555   0.577 -0.9846  2.3873 -0.4677
18931TIP3   OH278207   3.097   1.781  14.822 -0.0114 -0.5888 -0.9110
18931TIP3    H178208   3.012   1.788  14.866 -0.0660 -0.4759 -1.0326
18931TIP3    H278209   3.097   1.854  14.760  0.2281 -0.5130 -0.8199
18932TIP3   OH278210   2.319   6.364   1.189  0.2903  0.1608 -0.3296
18932TIP3    H178211   2.318   6.378   1.095  3.1595 -0.5594 -0.5757
18932TIP3    H278212   2.317   6.268   1.199 -0.9988  0.2396  0.4221
18933TIP3   OH278213   6.541   1.237   2.142 -0.3390 -0.2252 -0.1834
18933TIP3    H178214   6.550   1.332   2.152 -0.7622 -0.0528 -1.2845
18933TIP3    H278215   6.452   1.218   2.171  0.1965 -0.4935  1.3296
18934TIP3   OH278216   4.591   4.062  14.576  0.0126 -0.3697  0.1533
18934TIP3    H178217   4.567   4.064  14.669 -2.7480  2.4205 -0.4563
18934TIP3    H278218   4.646   4.139  14.564  0.0555 -0.5078 -0.5744
18935TIP3   OH278219   4.369   0.351   1.338 -0.0375  0.1602 -0.9589
18935TIP3    H178220   4.462   0.346   1.317 -0.2819 -1.6311 -1.8687
18935TIP3    H278221   4.341   0.435   1.304  1.4088  1.1558  0.1648
18936TIP3   OH278222   4.627   4.328   6.074 -0.1499 -0.9397  0.4865
18936TIP3    H178223   4.594   4.266   6.140  1.4770 -1.4448  0.8615
18936TIP3    H278224   4.713   4.353   6.105 -0.5567  1.1517  0.0537
18937TIP3   OH278225   1.496   3.161   2.138  0.2062 -0.0358 -0.1803
18937TIP3    H178226   1.478   3.073   2.105  1.6193  0.4539 -2.4739
18937TIP3    H278227   1.416   3.186   2.184 -1.2666 -1.4954 -1.8110
18938TIP3   OH278228   4.417   6.440  12.651 -0.0344  0.2555 -0.0329
18938TIP3    H178229   4.480   6.512  12.658  0.0841  0.2811 -1.1552
18938TIP3    H278230   4.443   6.378  12.719  0.3385  0.9198  0.4378
18939TIP3   OH278231   5.127   4.915  13.913  0.0949 -0.0284 -0.0742
18939TIP3    H178232   5.165   4.976  13.849 -0.5678 -0.3245 -0.7651
18939TIP3    H278233   5.201   4.861  13.940  0.0491 -1.1874 -2.0679
18940TIP3   OH278234   0.026   2.747   1.090  0.2699  0.2217  0.0034
18940TIP3    H178235   0.057   2.816   1.149 -1.2350  0.3291  0.6965
18940TIP3    H278236  -0.056   2.780   1.054 -0.2333 -0.9834 -0.0286
18941TIP3   OH278237   0.947   1.590   0.219  0.4417 -0.6097  0.3564
18941TIP3    H178238   0.980   1.501   0.205  0.1792 -0.6100 -0.3162
18941TIP3    H278239   0.868   1.578   0.272  0.9887 -0.6868  1.1595
18942TIP3   OH278240   1.597   5.864  14.320  0.3810  0.2118 -0.2007
18942TIP3    H178241   1.513   5.819  14.331 -0.5574  1.0936 -2.7967
18942TIP3    H278242   1.602   5.924  14.394 -1.2846  0.1012  0.0435
18943TIP3   OH278243   2.700   4.663   3.236 -0.2801  0.4494  0.3801
18943TIP3    H178244   2.712   4.617   3.153  0.3051  0.8459  0.2364
18943TIP3    H278245   2.623   4.622   3.275 -0.4110  0.0845 -0.2397
18944TIP3   OH278246   3.186   2.601   3.547  0.1142  0.0176  0.0776
18944TIP3    H178247   3.115   2.663   3.562  0.6633  0.5943  0.3267
18944TIP3    H278248   3.202   2.605   3.453 -0.0374  0.0463  0.0529
18945TIP3   OH278249   3.683   0.955  12.711 -0.2524 -0.2803 -0.2388
18945TIP3    H178250   3.603   0.959  12.658  0.4467 -0.0391 -1.3118
18945TIP3    H278251   3.727   1.039  12.696  0.7726 -0.8616 -0.6115
18946TIP3   OH278252   2.959   5.690  12.523  0.6191  0.0169 -0.5480
18946TIP3    H178253   2.949   5.680  12.429 -0.0106 -3.8510 -0.2363
18946TIP3    H278254   3.031   5.631  12.546  0.7647  0.8834  1.4261
18947TIP3   OH278255   0.448   6.667  14.763  0.3375 -0.8411 -0.4356
18947TIP3    H178256   0.444   6.651  14.668 -1.1652  0.7706 -0.6969
18947TIP3    H278257   0.360   6.693  14.786  0.2544 -2.7789  1.7747
18948TIP3   OH278258   4.912   5.530   0.192  0.4789 -0.5101  0.0417
18948TIP3    H178259   4.868   5.530   0.277  2.5097 -1.7074  1.1511
18948TIP3    H278260   4.929   5.622   0.173  0.3650 -0.2647  1.1043
18949TIP3   OH278261   4.896   2.800  15.879 -0.0605 -0.4094 -0.5882
18949TIP3    H178262   4.886   2.880  15.931  0.1121 -0.9493  0.3042
18949TIP3    H278263   4.887   2.829  15.788  0.2554  0.6570 -0.2929
18950TIP3   OH278264   6.156   6.670   1.907 -0.3075  0.6851  0.3207
18950TIP3    H178265   6.211   6.658   1.985 -0.6241  0.7243  0.5533
18950TIP3    H278266   6.070   6.694   1.942 -0.4779  0.6046 -0.0399
18951TIP3   OH278267   3.867   0.359   3.205  0.3736 -0.5097 -0.3887
18951TIP3    H178268   3.778   0.351   3.171  1.0316 -0.0770 -2.3465
18951TIP3    H278269   3.856   0.389   3.295 -1.4716  2.1561 -1.3695
18952TIP3   OH278270   6.165   6.305  12.343  0.0847 -0.3640 -0.6806
18952TIP3    H178271   6.142   6.395  12.320  0.9011 -0.6491 -2.8446
18952TIP3    H278272   6.107   6.283  12.416 -0.8543  1.5583 -0.7993
18953TIP3   OH278273   1.848   2.191  16.613 -0.1644 -0.2370  0.1094
18953TIP3    H178274   1.871   2.260  16.551  1.5802 -1.0011 -0.1579
18953TIP3    H278275   1.860   2.232  16.699  1.6889 -0.4027 -0.0319
18954TIP3   OH278276   2.632   4.538  17.043 -0.1139 -0.0619  0.1702
18954TIP3    H178277   2.556   4.501  17.088 -0.0350  0.0664  0.4110
18954TIP3    H278278   2.595   4.584  16.967 -0.8664  4.2462  2.8018
18955TIP3   OH278279   6.088   2.156  15.721  0.0246  0.4679  0.2967
18955TIP3    H178280   6.097   2.086  15.786  0.6995  0.0610 -0.2130
18955TIP3    H278281   6.000   2.144  15.685 -0.0732  0.2298  0.6093
18956TIP3   OH278282   4.523   4.824  11.445  0.4758  0.0764 -0.2842
18956TIP3    H178283   4.551   4.756  11.507 -1.1077  0.5900  1.0392
18956TIP3    H278284   4.601   4.879  11.434  1.3977 -1.1810 -0.3853
18957TIP3   OH278285   2.254   4.142  11.548  0.0259  0.9733  0.0192
18957TIP3    H178286   2.322   4.208  11.534  0.8792 -0.2159 -1.9999
18957TIP3    H278287   2.203   4.144  11.467 -0.4906 -0.1900  0.3033
18958TIP3   OH278288   3.177   4.150   2.963 -0.3171 -0.0039 -0.5678
18958TIP3    H178289   3.168   4.233   2.914 -1.6791  0.7609  0.8923
18958TIP3    H278290   3.169   4.082   2.896  0.8190  1.0317 -1.8022
18959TIP3   OH278291   1.584   6.639   4.685  0.0551 -0.1302 -0.4377
18959TIP3    H178292   1.540   6.707   4.736  1.5645  0.7365 -0.2364
18959TIP3    H278293   1.547   6.557   4.718 -1.3030  0.5402 -0.2112
18960TIP3   OH278294   5.707   5.514  16.990  0.0694 -0.0252 -0.0081
18960TIP3    H178295   5.629   5.488  17.040 -0.3658  1.3627  0.0534
18960TIP3    H278296   5.707   5.609  16.992  0.7112  0.0459 -1.6407
18961TIP3   OH278297   3.160   6.365   5.601  0.1501 -0.5310 -0.2891
18961TIP3    H178298   3.107   6.359   5.681  0.5334 -0.4255 -0.0260
18961TIP3    H278299   3.249   6.347   5.629  0.0669 -2.2571 -1.0042
18962TIP3   OH278300   3.279   5.954  15.480 -0.7979  0.1083  0.4680
18962TIP3    H178301   3.219   5.950  15.554 -2.1726 -1.3014 -0.6436
18962TIP3    H278302   3.223   5.969  15.404 -0.0230 -2.6256 -0.7987
18963TIP3   OH278303   4.797   1.226  12.104 -0.0428  0.0519 -0.0801
18963TIP3    H178304   4.870   1.231  12.042  0.0457 -0.9095 -0.0628
18963TIP3    H278305   4.838   1.196  12.186 -0.4178 -0.2631 -0.0071
18964TIP3   OH278306   5.230   2.466  15.444  0.7660  0.1075 -0.5364
18964TIP3    H178307   5.299   2.413  15.484 -0.8879 -1.2847  0.5846
18964TIP3    H278308   5.155   2.459  15.503 -0.1145  2.3080 -1.2440
18965TIP3   OH278309   6.698   2.249  14.060 -0.0950 -0.2053  0.2886
18965TIP3    H178310   6.772   2.297  14.097 -1.2418  1.2641  0.7917
18965TIP3    H278311   6.700   2.269  13.966  0.5204 -0.7382  0.1781
18966TIP3   OH278312   6.248   4.517  11.263 -0.0259  0.0545 -0.0927
18966TIP3    H178313   6.235   4.429  11.228 -1.0544 -0.9438  2.4858
18966TIP3    H278314   6.339   4.518  11.293 -0.3903 -0.7214  1.1533
18967TIP3   OH278315   4.473   3.420   4.669 -0.4666 -0.2217 -0.4473
18967TIP3    H178316   4.473   3.337   4.715  2.1188  0.5767  1.1624
18967TIP3    H278317   4.433   3.482   4.730 -0.2365  0.1724 -0.6863
18968TIP3   OH278318   0.371   0.667  16.751 -0.3996  0.2900 -0.0631
18968TIP3    H178319   0.289   0.619  16.746 -0.8242  0.9772  0.1731
18968TIP3    H278320   0.383   0.703  16.662  0.3100 -0.8580 -0.4580
18969TIP3   OH278321   2.867   5.608   5.492 -0.4538 -0.4069  1.0315
18969TIP3    H178322   2.947   5.660   5.487 -0.9138  0.3782  1.6265
18969TIP3    H278323   2.889   5.525   5.449  0.7899 -0.3565  1.5518
18970TIP3   OH278324   3.663   5.976   0.307 -0.5199 -0.2895 -0.2898
18970TIP3    H178325   3.678   6.070   0.298  0.1434 -0.4751 -1.3500
18970TIP3    H278326   3.576   5.969   0.345 -0.1102  0.7705  0.9123
18971TIP3   OH278327   1.389   4.037   3.412  0.0419 -0.3787 -0.7409
18971TIP3    H178328   1.390   4.016   3.318 -0.1728  0.3650 -0.9169
18971TIP3    H278329   1.298   4.060   3.430 -0.0247 -1.0243 -0.2243
18972TIP3   OH278330   4.938   3.492   1.115 -0.8860 -0.1034 -0.0930
18972TIP3    H178331   4.974   3.521   1.031 -0.9125 -2.7225 -1.1188
18972TIP3    H278332   4.999   3.526   1.180  0.5308 -0.0223 -1.3871
18973TIP3   OH278333   2.374   5.479  14.162 -0.0449  0.0643 -0.6180
18973TIP3    H178334   2.393   5.412  14.228 -0.4135 -0.0976 -0.6768
18973TIP3    H278335   2.319   5.435  14.098  0.2626  0.2382 -1.0098
18974TIP3   OH278336   1.189   1.309   3.690 -0.8092  0.0069  0.1074
18974TIP3    H178337   1.197   1.231   3.635  0.6718 -0.0581  0.3719
18974TIP3    H278338   1.133   1.282   3.763 -2.5160 -0.0033 -1.1268
18975TIP3   OH278339   6.128   0.317  16.395  0.1733  0.2480 -0.3172
18975TIP3    H178340   6.096   0.227  16.389  1.3207 -0.2317  0.4024
18975TIP3    H278341   6.204   0.312  16.454 -0.5474  1.8961  0.8492
18976TIP3   OH278342   2.306   1.516   1.947  0.1673  0.0309 -0.1904
18976TIP3    H178343   2.283   1.591   2.002 -1.2381 -2.0194  2.2343
18976TIP3    H278344   2.393   1.490   1.978  0.9088  0.9173 -1.4263
18977TIP3   OH278345   0.502   6.570   1.684 -0.4462  0.4743 -0.2128
18977TIP3    H178346   0.520   6.487   1.639 -0.7289  1.0319 -1.4019
18977TIP3    H278347   0.573   6.579   1.748 -0.4913 -0.7472  0.0257
18978TIP3   OH278348   6.671   4.251   6.144  0.0016 -0.0280  0.2669
18978TIP3    H178349   6.739   4.246   6.211  0.2420  0.6561  0.0736
18978TIP3    H278350   6.695   4.325   6.089 -0.8248  0.1450  0.1186
18979TIP3   OH278351   6.747   0.250  12.095  0.3425  0.1514 -0.3557
18979TIP3    H178352   6.778   0.264  12.006  1.2729 -0.8684 -0.2281
18979TIP3    H278353   6.673   0.189  12.086  1.9328 -1.9055 -0.3240
18980TIP3   OH278354   5.931   6.519  12.008 -0.6412  0.7154  0.0940
18980TIP3    H178355   5.837   6.506  11.993 -0.8187  1.4286  0.5670
18980TIP3    H278356   5.948   6.609  11.982  0.0592  0.3895 -0.6443
18981TIP3   OH278357   1.151   5.756   4.685  0.0733 -0.3271 -0.0729
18981TIP3    H178358   1.090   5.830   4.685 -1.4021 -1.4690  0.3408
18981TIP3    H278359   1.121   5.701   4.613  1.9518  0.0518 -1.2021
18982TIP3   OH278360   1.415   0.241  13.698 -0.5846 -0.1549  0.1513
18982TIP3    H178361   1.433   0.320  13.750  0.4553  0.2568 -0.8139
18982TIP3    H278362   1.501   0.204  13.679 -0.9693 -0.5159 -0.9507
18983TIP3   OH278363   3.605   6.695  13.896  0.5158  0.2409  0.1066
18983TIP3    H178364   3.636   6.744  13.972  1.6697 -0.6349  0.2393
18983TIP3    H278365   3.627   6.604  13.917  1.3473  0.0490 -1.4937
18984TIP3   OH278366   2.806   4.977  15.134  0.2913 -0.0947  0.1215
18984TIP3    H178367   2.793   4.883  15.146  1.4606 -0.1401  1.3050
18984TIP3    H278368   2.790   5.014  15.220  3.6752  0.2817  0.6980
18985TIP3   OH278369   1.214   6.269   0.973 -0.0669 -0.1416  0.1594
18985TIP3    H178370   1.165   6.221   0.905 -0.1202 -0.1846  0.2284
18985TIP3    H278371   1.302   6.232   0.970  0.2731  0.6961 -0.7297
18986TIP3   OH278372   6.223   3.748  14.489  0.2883 -0.6133  0.1066
18986TIP3    H178373   6.204   3.708  14.405  1.7260  0.5141 -0.8005
18986TIP3    H278374   6.187   3.836  14.483  2.7155  0.4078 -0.4034
18987TIP3   OH278375   3.013   2.371   3.578  0.0594 -0.5061 -0.2464
18987TIP3    H178376   3.078   2.439   3.594 -0.3709  0.0208 -0.6853
18987TIP3    H278377   2.972   2.356   3.663 -0.3165  0.2907 -0.2758
18988TIP3   OH278378   1.281   0.443  16.908 -0.2145  0.5405  0.1360
18988TIP3    H178379   1.222   0.392  16.853 -1.1511  2.1570 -0.4023
18988TIP3    H278380   1.363   0.393  16.907 -0.4551  0.0909 -2.0524
18989TIP3   OH278381   1.048   5.154   3.258  0.3166  0.6744  0.0129
18989TIP3    H178382   1.032   5.063   3.283 -1.2470  0.8299 -0.3292
18989TIP3    H278383   1.125   5.150   3.202 -0.7319 -0.7007 -1.4122
18990TIP3   OH278384   2.676   4.238  12.692  0.0720  0.7252  0.4210
18990TIP3    H178385   2.712   4.150  12.678  0.9873  1.3398 -1.3569
18990TIP3    H278386   2.631   4.232  12.776 -0.0745 -1.5017  0.2496
18991TIP3   OH278387   0.091   0.077   2.896 -0.1329 -0.0190 -0.0351
18991TIP3    H178388   0.171   0.085   2.845  0.0928 -1.7036 -0.0129
18991TIP3    H278389   0.021   0.105   2.836  0.0513 -2.5561 -1.5836
18992TIP3   OH278390   2.538   6.636  15.214  0.1787 -0.3741  0.0192
18992TIP3    H178391   2.603   6.568  15.199 -0.1733 -0.6489 -0.2675
18992TIP3    H278392   2.460   6.606  15.168  0.2375  0.5725 -0.7398
18993TIP3   OH278393   3.626   3.255  12.273 -0.4474  0.6819 -0.3025
18993TIP3    H178394   3.591   3.171  12.302 -0.0039  0.7088  0.3212
18993TIP3    H278395   3.557   3.291  12.217  0.5914 -1.5142 -3.2835
18994TIP3   OH278396   1.675   2.948  11.838 -0.0239 -0.0513  0.4502
18994TIP3    H178397   1.627   2.939  11.755  1.1880 -1.2345 -0.1729
18994TIP3    H278398   1.607   2.945  11.905 -0.8527 -2.4993 -0.3598
18995TIP3   OH278399   3.565   0.600  13.521 -0.4217  0.1623 -0.8960
18995TIP3    H178400   3.541   0.693  13.510 -0.9296 -0.0734 -2.0057
18995TIP3    H278401   3.609   0.578  13.439 -0.2049 -0.5580 -0.5891
18996TIP3   OH278402   3.200   6.630  11.944 -0.2232  0.3957  0.8695
18996TIP3    H178403   3.187   6.709  11.892  1.4790  0.4898  0.5030
18996TIP3    H278404   3.296   6.622  11.949 -0.3765 -1.4188  1.2384
18997TIP3   OH278405   0.531   0.504   0.081 -0.3664  0.1752 -0.0723
18997TIP3    H178406   0.441   0.490   0.111 -0.5674  0.2625 -0.6337
18997TIP3    H278407   0.566   0.568   0.142 -0.6228 -0.0034  0.2682
18998TIP3   OH278408   3.236   1.026   0.468  0.0201 -0.1467 -0.5490
18998TIP3    H178409   3.268   1.060   0.385  1.9466 -0.0627  0.1624
18998TIP3    H278410   3.215   1.104   0.520  0.0778 -0.1600 -0.5052
18999TIP3   OH278411   1.354   2.968  13.484 -0.6010  0.0725 -0.2494
18999TIP3    H178412   1.394   2.912  13.417  2.3175  1.2056  0.3776
18999TIP3    H278413   1.352   2.914  13.562 -0.3257 -0.0084 -0.2981
19000TIP3   OH278414   3.485   1.565  11.283  0.1194  0.6985 -0.0646
19000TIP3    H178415   3.538   1.490  11.311 -0.0194  0.5387 -0.2263
19000TIP3    H278416   3.541   1.641  11.298  0.7878  0.4527 -1.1476
19001TIP3   OH278417   3.145   5.715  17.343  0.3402  0.5572  0.2034
19001TIP3    H178418   3.093   5.780  17.390 -0.2814  0.4502 -0.3117
19001TIP3    H278419   3.157   5.752  17.256 -0.6823 -0.3249 -0.3459
19002TIP3   OH278420   4.827   1.419   2.974  0.5445 -0.0131  0.1275
19002TIP3    H178421   4.871   1.401   3.058  1.6449  0.8929 -0.2310
19002TIP3    H278422   4.861   1.352   2.915  1.3246  0.5733 -0.1012
19003TIP3   OH278423   1.858   2.513   5.318 -0.0317  0.4915  0.3918
19003TIP3    H178424   1.899   2.596   5.342 -0.6416  1.5296 -1.8526
19003TIP3    H278425   1.911   2.481   5.245 -0.6657 -0.3673  0.2944
19004TIP3   OH278426   3.331   0.912   3.960  0.3699 -0.4132  0.6831
19004TIP3    H178427   3.387   0.839   3.986 -0.6378 -0.4997  2.8404
19004TIP3    H278428   3.271   0.875   3.896  0.8183 -1.1049  0.6620
19005TIP3   OH278429   2.847   4.653   1.008  0.4105  0.0641  0.2353
19005TIP3    H178430   2.884   4.620   0.926 -2.9958  0.8445 -1.8261
19005TIP3    H278431   2.788   4.584   1.037 -0.5333  0.9247  0.4355
19006TIP3   OH278432   0.664   0.684  16.263  0.3215 -0.2059 -0.2214
19006TIP3    H178433   0.758   0.674  16.245 -0.0765 -1.7374 -1.8262
19006TIP3    H278434   0.652   0.777  16.279  2.5491 -0.3136  3.0650
19007TIP3   OH278435   3.190   4.131   4.415  0.2499  0.6821  1.1760
19007TIP3    H178436   3.167   4.038   4.411  0.2914  0.5800  2.6216
19007TIP3    H278437   3.245   4.138   4.493  1.6885  1.6328  0.1285
19008TIP3   OH278438   4.571   3.674   5.602  0.2498 -0.3082  0.6837
19008TIP3    H178439   4.660   3.666   5.568 -0.7945 -1.4774 -2.0346
19008TIP3    H278440   4.566   3.764   5.634  2.6792 -0.5276  1.9092
19009TIP3   OH278441   4.002   5.556   2.012  0.5096 -0.3018 -0.2360
19009TIP3    H178442   3.958   5.512   2.084 -0.5493  1.9185  0.5358
19009TIP3    H278443   4.068   5.612   2.054 -0.7616  1.7482 -0.8359
19010TIP3   OH278444   2.911   3.532   0.998  0.0236 -0.2785  0.8321
19010TIP3    H178445   2.902   3.472   0.925 -0.5390  1.6201 -0.7635
19010TIP3    H278446   2.996   3.512   1.036  0.3156 -1.3513 -0.3232
19011TIP3   OH278447   2.539   5.629  11.608 -0.1671  0.0836  0.2412
19011TIP3    H178448   2.466   5.588  11.561 -0.0412  0.7839 -0.5778
19011TIP3    H278449   2.496   5.681  11.677 -0.4833  0.8674 -0.5284
19012TIP3   OH278450   4.605   5.238   4.765 -0.6141 -0.5592  0.2767
19012TIP3    H178451   4.551   5.215   4.689  0.0950 -2.1890  0.2275
19012TIP3    H278452   4.651   5.157   4.787  0.1722  0.2289  1.6582
19013TIP3   OH278453   5.390   2.820  16.335 -0.6571  0.1406 -0.1707
19013TIP3    H178454   5.294   2.819  16.336 -0.6546 -0.0001 -0.1000
19013TIP3    H278455   5.413   2.839  16.244 -0.7590  0.6546 -0.0939
19014TIP3   OH278456   5.057   4.030  11.933 -0.1463  0.1868 -0.4120
19014TIP3    H178457   4.978   3.983  11.907  0.1681 -0.3548 -0.4219
19014TIP3    H278458   5.121   3.961  11.950 -0.1616  0.5407  1.2686
19015TIP3   OH278459   6.236   2.179   1.682 -0.1409  0.4978  0.1687
19015TIP3    H178460   6.290   2.257   1.696  0.0828  0.8947 -2.4033
19015TIP3    H278461   6.192   2.165   1.766 -0.2769  3.4615  0.7141
19016TIP3   OH278462   3.052   6.057   5.135  0.4204  0.3997  0.2150
19016TIP3    H178463   3.023   6.093   5.051 -0.5299  0.0197  0.3697
19016TIP3    H278464   3.114   5.988   5.110  0.3038  0.4286 -0.1666
19017TIP3   OH278465   3.634   0.685   2.542  0.1376 -0.2121 -0.2761
19017TIP3    H178466   3.549   0.729   2.546  0.3663  0.1174  1.3460
19017TIP3    H278467   3.633   0.622   2.614  1.7350  0.7032  0.6127
19018TIP3   OH278468   4.402   5.833  12.493  0.1386  0.1645  0.2271
19018TIP3    H178469   4.342   5.796  12.428  2.3381 -0.8504 -1.3508
19018TIP3    H278470   4.446   5.904  12.447 -0.6385  1.6890  1.7394
19019TIP3   OH278471   3.486   3.284   1.906  0.4028  0.2021  0.2883
19019TIP3    H178472   3.417   3.339   1.943  0.2481  0.8706 -0.9330
19019TIP3    H278473   3.446   3.197   1.899  0.4017  0.0786  1.5336
19020TIP3   OH278474   5.977   3.270   0.627 -0.4569 -0.2022  0.0709
19020TIP3    H178475   6.029   3.273   0.546 -1.7722 -0.0755 -0.8070
19020TIP3    H278476   6.035   3.232   0.692  0.2234 -1.5794 -1.2717
19021TIP3   OH278477   3.138   3.503   5.327  0.3654  0.1071  0.2143
19021TIP3    H178478   3.063   3.557   5.303  0.7948  0.4916 -0.2979
19021TIP3    H278479   3.146   3.512   5.422 -0.4521 -0.2295  0.3216
19022TIP3   OH278480   4.105   0.531   0.234 -0.1725  0.3272 -0.6190
19022TIP3    H178481   4.107   0.573   0.148 -0.6342  1.4767 -0.0794
19022TIP3    H278482   4.110   0.603   0.296  1.6720 -0.5782  0.3393
19023TIP3   OH278483   3.122   4.976  13.762 -0.3604 -0.3291 -0.1352
19023TIP3    H178484   3.179   5.049  13.786  1.6304 -1.7762 -0.2436
19023TIP3    H278485   3.035   5.003  13.792  0.4957  1.6256  0.7712
19024TIP3   OH278486   0.864   2.417   2.628  0.8283  0.1667 -0.2787
19024TIP3    H178487   0.874   2.372   2.711  1.6006  0.4159 -0.2358
19024TIP3    H278488   0.953   2.434   2.598  0.5674  1.5151 -0.3676
19025TIP3   OH278489   5.087   2.572  16.549 -0.2554  0.1094  0.1771
19025TIP3    H178490   5.124   2.655  16.580  0.0348 -0.5582  1.7371
19025TIP3    H278491   5.155   2.507  16.569 -0.3109 -0.4790 -1.3919
19026TIP3   OH278492   5.392   0.274   3.892 -0.5769 -0.1447  0.1228
19026TIP3    H178493   5.336   0.323   3.832 -2.3657 -1.1480  0.8630
19026TIP3    H278494   5.460   0.335   3.918 -1.2687  1.1161 -0.9184
19027TIP3   OH278495   3.967   2.202  12.108 -0.7637 -0.1745  0.0885
19027TIP3    H178496   4.014   2.284  12.090 -1.6749  0.1086 -1.0919
19027TIP3    H278497   3.896   2.228  12.167 -1.2782 -0.0443 -0.5865
19028TIP3   OH278498   4.590   5.280   5.364 -0.6592 -0.4537 -0.1776
19028TIP3    H178499   4.583   5.371   5.335  2.0675 -0.3347 -0.7934
19028TIP3    H278500   4.631   5.286   5.450 -0.8765 -1.0820 -0.0299
19029TIP3   OH278501   0.684   2.718   1.947  0.0228  0.1546 -0.4698
19029TIP3    H178502   0.602   2.675   1.924  0.2092  0.1146 -1.0646
19029TIP3    H278503   0.733   2.652   1.996 -0.6517  0.4621  0.6625
19030TIP3   OH278504   3.886   3.131   2.097  0.5228 -0.1560 -0.0354
19030TIP3    H178505   3.926   3.121   2.011 -2.0939  0.3692 -1.3947
19030TIP3    H278506   3.817   3.196   2.085 -0.8516 -1.0930  2.1274
19031TIP3   OH278507   2.442   2.371  12.801 -0.2668 -0.6163  0.3154
19031TIP3    H178508   2.527   2.331  12.818 -1.2626 -2.3328  1.5790
19031TIP3    H278509   2.381   2.322  12.856 -1.8837  1.4418  0.4859
19032TIP3   OH278510   6.650   4.232  14.219 -0.1498 -0.6925  0.6412
19032TIP3    H178511   6.654   4.172  14.293  1.7806 -0.5593  0.6770
19032TIP3    H278512   6.563   4.273  14.227  0.4818  0.3162  3.6515
19033TIP3   OH278513   0.429   6.446  12.574 -0.1122  0.0396 -0.5973
19033TIP3    H178514   0.423   6.350  12.569  1.0424 -0.0646 -0.2708
19033TIP3    H278515   0.356   6.472  12.629 -1.5580 -0.4821 -2.1948
19034TIP3   OH278516   2.270   0.862   4.024 -0.7480  0.4985  0.0205
19034TIP3    H178517   2.177   0.865   4.046 -0.5462 -0.2451  0.9998
19034TIP3    H278518   2.307   0.796   4.082  0.2538  0.2184 -0.9057
19035TIP3   OH278519   5.763   1.339   5.691  0.3452  0.3505  0.3826
19035TIP3    H178520   5.696   1.364   5.627  0.5276 -0.2428 -0.0537
19035TIP3    H278521   5.755   1.403   5.761 -0.2376  0.6777  0.0231
19036TIP3   OH278522   2.876   3.362  10.766 -0.1824 -0.3187 -0.1520
19036TIP3    H178523   2.971   3.348  10.759 -0.0836  0.9727 -2.5652
19036TIP3    H278524   2.838   3.293  10.711 -0.5297  0.1503 -0.5059
19037TIP3   OH278525   3.179   6.063  13.338  0.1963  0.0782  0.1394
19037TIP3    H178526   3.088   6.058  13.307  0.4044 -1.1470 -0.3285
19037TIP3    H278527   3.198   6.157  13.341 -0.4714  0.3170 -1.6039
19038TIP3   OH278528   0.266   5.830  13.701 -0.0906  0.0092 -0.1405
19038TIP3    H178529   0.211   5.908  13.703 -0.1086 -0.0126  1.0965
19038TIP3    H278530   0.205   5.757  13.693 -0.1856  0.0379  0.2976
19039TIP3   OH278531   4.963   3.706  13.048 -0.4073 -0.0406  0.1768
19039TIP3    H178532   5.037   3.666  13.095 -1.8092 -0.1727  2.4251
19039TIP3    H278533   4.894   3.641  13.053 -1.8443  1.4862  1.4706
19040TIP3   OH278534   6.384   1.756   2.084 -0.2489 -0.0901  0.1496
19040TIP3    H178535   6.291   1.765   2.063 -0.3495 -0.4000  0.4524
19040TIP3    H278536   6.401   1.824   2.148  0.0210  0.7511 -0.7853
19041TIP3   OH278537   3.009   2.692   4.782 -0.2700  0.0062 -0.5566
19041TIP3    H178538   2.965   2.610   4.803 -2.5324  1.3739  0.4733
19041TIP3    H278539   3.045   2.679   4.695  0.1794 -2.3209 -0.0891
19042TIP3   OH278540   4.552   3.109  12.478 -0.0881  0.0152 -0.5386
19042TIP3    H178541   4.555   3.046  12.551 -1.3461  0.0966 -0.3916
19042TIP3    H278542   4.464   3.146  12.483  0.5603  1.6429 -0.7616
19043TIP3   OH278543   5.194   3.450   5.397 -0.2458 -0.1590  0.2230
19043TIP3    H178544   5.257   3.379   5.405  1.5361  1.0696 -1.6450
19043TIP3    H278545   5.234   3.524   5.444 -0.4907  0.5015 -0.5723
19044TIP3   OH278546   5.723   6.268  16.650  0.2469  0.5719 -1.1812
19044TIP3    H178547   5.804   6.317  16.638 -0.2691  1.9435  0.5815
19044TIP3    H278548   5.704   6.274  16.744 -1.6802 -0.0733 -1.4787
19045TIP3   OH278549   5.292   3.797  12.439  0.2407  0.4414 -0.2616
19045TIP3    H178550   5.243   3.720  12.410  0.5154  0.0970  0.1777
19045TIP3    H278551   5.243   3.829  12.515  0.0137  0.8238 -0.5652
19046TIP3   OH278552   1.412   2.904  12.571 -0.0462  0.1194  0.1269
19046TIP3    H178553   1.432   2.997  12.567  2.5485 -0.4003 -2.5525
19046TIP3    H278554   1.456   2.873  12.650 -0.6483  1.0671  0.8557
19047TIP3   OH278555   2.019   6.676   3.989  0.1711  0.3276 -0.1043
19047TIP3    H178556   2.094   6.683   4.048 -0.9427 -0.2319  1.4242
19047TIP3    H278557   2.015   6.583   3.965  0.3635  0.4783 -0.7662
19048TIP3   OH278558   1.227   1.140   2.734 -0.6524  0.5441  0.5705
19048TIP3    H178559   1.213   1.204   2.804  0.0612  1.6879 -0.2952
19048TIP3    H278560   1.313   1.102   2.753 -0.4242  0.9112  0.2700
19049TIP3   OH278561   2.240   3.914   6.440  0.0629  0.3627  0.1312
19049TIP3    H178562   2.212   4.000   6.406 -0.2843  1.4715  2.9213
19049TIP3    H278563   2.332   3.908   6.416 -0.0011  1.3368 -0.4463
19050TIP3   OH278564   2.396   5.706   4.944  0.1008 -0.3964  0.1595
19050TIP3    H178565   2.305   5.682   4.956  0.3256 -0.7328  1.3426
19050TIP3    H278566   2.397   5.759   4.865 -1.1850 -0.0027  0.3874
19051TIP3   OH278567   3.559   2.009   2.038 -0.4476  0.5674 -0.5706
19051TIP3    H178568   3.495   1.956   2.086  0.9634 -1.4848 -0.8104
19051TIP3    H278569   3.641   1.997   2.086  0.7196 -0.5051 -2.6761
19052TIP3   OH278570   0.496   6.571  15.270 -0.1867 -0.3830  0.8149
19052TIP3    H178571   0.464   6.661  15.280  0.6086  0.1949 -1.2777
19052TIP3    H278572   0.591   6.578  15.277 -0.1635 -1.2175  1.5051
19053TIP3   OH278573   4.757   0.575   4.139  0.2137 -0.1146  0.6279
19053TIP3    H178574   4.847   0.559   4.112  0.3254  0.1887  0.8186
19053TIP3    H278575   4.717   0.619   4.064  0.0057 -0.9423  0.2418
19054TIP3   OH278576   1.471   2.620   1.338  0.3947 -0.4148 -0.1836
19054TIP3    H178577   1.383   2.614   1.374  0.7899 -1.3572  0.6835
19054TIP3    H278578   1.489   2.531   1.306  0.5021  0.1115 -1.6609
19055TIP3   OH278579   6.342   1.034   4.473  0.0715 -0.1233  0.4393
19055TIP3    H178580   6.279   1.029   4.545 -1.8967  0.7746 -1.1129
19055TIP3    H278581   6.387   1.118   4.486  0.8461 -0.6617  1.4204
19056TIP3   OH278582   6.139   4.972   6.151  0.2540 -0.3796  0.4524
19056TIP3    H178583   6.109   4.980   6.242  0.5497 -0.0858  0.5247
19056TIP3    H278584   6.181   5.055   6.132  2.3129 -1.2836  0.8302
19057TIP3   OH278585   2.756   6.228  11.526 -0.0458 -0.2923 -0.1188
19057TIP3    H178586   2.728   6.318  11.506  0.4204 -0.1126  0.0242
19057TIP3    H278587   2.836   6.217  11.476  0.0803 -0.5149  0.1326
19058TIP3   OH278588   1.159   3.873  16.487  0.0192 -0.3216 -0.1151
19058TIP3    H178589   1.254   3.864  16.481  0.0005 -1.3921  0.8342
19058TIP3    H278590   1.141   3.962  16.457  1.6236  0.9489  2.3467
19059TIP3   OH278591   3.296   6.080  16.748  0.1949  0.3577 -0.3006
19059TIP3    H178592   3.334   5.994  16.730 -0.1970 -0.1432  1.1544
19059TIP3    H278593   3.219   6.062  16.802 -1.9768  1.3749 -2.8198
19060TIP3   OH278594   2.130   3.616   6.230 -0.0776  0.0770  0.1214
19060TIP3    H178595   2.079   3.691   6.263  0.2085  1.8040 -2.9628
19060TIP3    H278596   2.220   3.636   6.254 -0.2436 -0.5231  1.3312
19061TIP3   OH278597   2.081   2.424   0.616  0.7930  0.0418  0.1777
19061TIP3    H178598   1.994   2.456   0.642  0.3509 -0.7688 -0.2387
19061TIP3    H278599   2.133   2.426   0.697  1.0324  2.4751  0.0348
19062TIP3   OH278600   1.005   1.788  11.034  0.0962 -0.0703 -0.4162
19062TIP3    H178601   0.988   1.726  10.964 -1.6597 -1.8381  1.4494
19062TIP3    H278602   1.027   1.734  11.110  1.5147  1.7371  0.5482
19063TIP3   OH278603   0.180   6.360   4.835  0.2103 -0.5018  0.3204
19063TIP3    H178604   0.260   6.387   4.789  0.2441  1.3843  1.4007
19063TIP3    H278605   0.109   6.387   4.777  0.3171 -0.6042  0.1405
19064TIP3   OH278606   2.343   3.283  11.685 -0.8285  0.4301  0.2466
19064TIP3    H178607   2.268   3.317  11.635 -0.8287 -0.7246 -0.5798
19064TIP3    H278608   2.377   3.211  11.631 -0.4360 -0.4531  1.6386
19065TIP3   OH278609   5.829   4.234  15.865  0.6231 -0.2666  0.0247
19065TIP3    H178610   5.812   4.285  15.945  0.2562  0.7283 -0.6699
19065TIP3    H278611   5.924   4.235  15.855  0.7048 -0.7507  0.6613
19066TIP3   OH278612   1.111   1.826   3.405 -0.4364  0.0002  0.1341
19066TIP3    H178613   1.077   1.736   3.409  1.1050 -0.6667 -0.9846
19066TIP3    H278614   1.075   1.868   3.483  0.1047 -2.0508  1.5900
19067TIP3   OH278615   6.088   5.488  15.169  0.5524  0.0331 -0.7049
19067TIP3    H178616   5.993   5.484  15.178  0.6327 -0.9393 -0.0727
19067TIP3    H278617   6.109   5.421  15.103  0.7671  0.5122 -1.1254
19068TIP3   OH278618   1.700   5.432   3.570  0.0047 -0.7501 -0.1512
19068TIP3    H178619   1.729   5.361   3.514 -0.6586 -0.3348 -1.0342
19068TIP3    H278620   1.605   5.433   3.562  0.0859  1.2693 -1.4681
19069TIP3   OH278621   0.621   2.546   4.166 -0.4713 -0.3236 -0.4118
19069TIP3    H178622   0.711   2.568   4.192 -0.3697 -0.3401 -0.7404
19069TIP3    H278623   0.626   2.533   4.071 -0.8819 -0.0117 -0.4819
19070TIP3   OH278624   4.904   2.048   4.919 -0.1851  0.1736  0.5091
19070TIP3    H178625   4.860   2.129   4.895 -0.1625 -0.2214 -0.9910
19070TIP3    H278626   4.897   1.993   4.841  0.9214 -0.7841  1.0494
19071TIP3   OH278627   1.269   0.898  16.124  0.0018  0.2463  0.5953
19071TIP3    H178628   1.303   0.811  16.107 -1.0450 -0.1251  0.3407
19071TIP3    H278629   1.322   0.931  16.197  0.0425 -0.8176  1.0564
19072TIP3   OH278630   2.301   6.597  17.169 -0.0356  0.4804  0.3651
19072TIP3    H178631   2.255   6.663  17.118 -0.6996 -0.6690 -0.5645
19072TIP3    H278632   2.299   6.518  17.115  1.1440 -0.1900  1.2402
19073TIP3   OH278633   5.989   6.337   3.948 -0.1482  0.2672 -0.0772
19073TIP3    H178634   5.952   6.303   3.867 -1.4322  3.2467 -0.8939
19073TIP3    H278635   5.928   6.309   4.016 -0.1292 -0.6109 -0.4134
19074TIP3   OH278636   2.124   1.676  12.605  0.1105  0.5395 -0.1831
19074TIP3    H178637   2.060   1.744  12.627  0.5636  0.9112  0.0107
19074TIP3    H278638   2.076   1.594  12.617 -0.2250  0.8006  0.3192
19075TIP3   OH278639   6.051   0.912  16.563  0.1182  0.0324  0.0945
19075TIP3    H178640   5.958   0.924  16.543  0.0240  0.4654  0.7658
19075TIP3    H278641   6.080   0.845  16.501 -0.7914 -0.5654  0.2862
19076TIP3   OH278642   4.041   2.915   4.256  0.5980  0.1937  0.1598
19076TIP3    H178643   4.074   2.978   4.320 -0.1325  0.3550  0.3878
19076TIP3    H278644   4.112   2.851   4.246  1.4093  1.1196 -0.1822
19077TIP3   OH278645   0.494   6.302   5.381 -0.1413  0.4818 -0.5893
19077TIP3    H178646   0.424   6.246   5.348 -1.7909  0.2905  2.8417
19077TIP3    H278647   0.502   6.372   5.316 -1.2483 -1.1965 -2.6446
19078TIP3   OH278648   2.963   3.649  13.538  0.0581  0.1152  0.0606
19078TIP3    H178649   2.896   3.692  13.590  0.5511  0.8445  0.1089
19078TIP3    H278650   2.996   3.579  13.594  0.7716  1.0582  0.8551
19079TIP3   OH278651   1.352   6.473   6.745  0.6273  0.2850 -0.0299
19079TIP3    H178652   1.287   6.430   6.689  0.3384  1.2218 -0.4271
19079TIP3    H278653   1.351   6.565   6.718  0.8518  0.6615  1.1572
19080TIP3   OH278654   2.852   4.449  13.908 -0.0012 -0.5979  0.5236
19080TIP3    H178655   2.817   4.360  13.909  0.4971 -0.8534 -1.0011
19080TIP3    H278656   2.776   4.505  13.915 -0.5418 -1.1545 -0.5553
19081TIP3   OH278657   3.005   2.547   2.492  0.1188 -0.3238  0.6927
19081TIP3    H178658   2.985   2.453   2.489  1.2382 -0.5671  0.2760
19081TIP3    H278659   2.924   2.588   2.522 -0.6260 -1.3552  0.1723
19082TIP3   OH278660   0.859   3.782   0.695 -0.2214  0.1701  0.4019
19082TIP3    H178661   0.946   3.761   0.731 -0.1388  0.5944  0.4526
19082TIP3    H278662   0.816   3.697   0.686  1.7783 -0.6857 -3.8369
19083TIP3   OH278663   2.646   1.929   1.115 -1.0854 -0.1498 -0.3791
19083TIP3    H178664   2.595   1.853   1.086 -1.3470  0.1722 -0.7778
19083TIP3    H278665   2.583   1.984   1.162 -0.9743 -0.0331 -0.3660
19084TIP3   OH278666   3.070   6.151   1.292 -0.6036 -0.0900  0.1664
19084TIP3    H178667   3.105   6.154   1.203 -1.5635  0.6549 -0.2027
19084TIP3    H278668   3.102   6.068   1.327 -0.3304 -0.4688 -0.9213
19085TIP3   OH278669   3.027   6.208   0.900  0.0427  0.1136  0.2406
19085TIP3    H178670   3.079   6.267   0.846 -1.6001  1.9887  0.5867
19085TIP3    H278671   3.090   6.169   0.960  1.1358  2.2140  0.5647
19086TIP3   OH278672   2.826   5.153  12.886  0.2266  0.4049 -0.6168
19086TIP3    H178673   2.795   5.078  12.836 -1.0262  0.2764  0.3172
19086TIP3    H278674   2.747   5.195  12.919  0.8989  2.2491 -1.2460
19087TIP3   OH278675   5.276   4.471   3.935 -0.1798 -0.3037 -0.0365
19087TIP3    H178676   5.216   4.531   3.979 -1.2936 -1.0742 -0.4627
19087TIP3    H278677   5.220   4.417   3.880  0.9815 -0.6706 -0.8909
19088TIP3   OH278678   4.497   4.371   3.976 -0.0787  0.3403  0.1561
19088TIP3    H178679   4.452   4.424   4.041 -1.5202 -0.8579  0.1834
19088TIP3    H278680   4.451   4.287   3.977  1.3869 -0.5158 -0.7215
19089TIP3   OH278681   0.264   3.291   1.732  0.3829 -0.0345  0.4653
19089TIP3    H178682   0.323   3.240   1.789  0.5690 -1.6023 -1.0487
19089TIP3    H278683   0.323   3.340   1.674  0.2976 -2.0693 -1.4591
19090TIP3   OH278684   6.455   5.413   4.937  0.1014  0.0909  0.2493
19090TIP3    H178685   6.475   5.501   4.968 -2.4685  0.2178  1.8037
19090TIP3    H278686   6.510   5.356   4.990  0.5651  0.6722  0.4051
19091TIP3   OH278687   4.876   2.249   1.391  0.7144  0.4818 -0.2854
19091TIP3    H178688   4.936   2.265   1.464  0.3760 -0.3908  0.1906
19091TIP3    H278689   4.888   2.157   1.370 -1.1422  0.0313  0.4549
19092TIP3   OH278690   2.622   0.235   3.414 -0.4743 -0.2045  0.5474
19092TIP3    H178691   2.559   0.218   3.483 -2.5369  1.9928 -0.6514
19092TIP3    H278692   2.623   0.331   3.405  3.7447 -0.0009  1.0677
19093TIP3   OH278693   3.809   0.159  15.064  0.0460  0.0402  0.1500
19093TIP3    H178694   3.783   0.147  15.155  1.5021  1.0102  0.7358
19093TIP3    H278695   3.882   0.221  15.068 -0.7845  1.2374 -1.7999
19094TIP3   OH278696   5.177   3.837   5.031  0.1619  0.1460 -0.1835
19094TIP3    H178697   5.125   3.868   5.105 -2.1043 -0.9288 -1.2214
19094TIP3    H278698   5.203   3.748   5.056 -0.3670 -0.1150 -0.5557
19095TIP3   OH278699   5.758   3.385   3.115 -0.3924  0.1096  0.5046
19095TIP3    H178700   5.818   3.422   3.179 -0.2291  0.1322  0.3386
19095TIP3    H278701   5.758   3.447   3.043 -1.7315  0.8531  1.1059
19096TIP3   OH278702   0.594   5.245  16.116 -0.5892 -0.1694  0.5166
19096TIP3    H178703   0.540   5.321  16.138  1.1002  0.8995  1.2085
19096TIP3    H278704   0.532   5.174  16.103 -2.2377  1.3434 -0.2220
19097TIP3   OH278705   0.433   2.610  17.018  0.1859 -0.7379 -0.3652
19097TIP3    H178706   0.415   2.549  17.089 -0.2747  0.0253  0.1972
19097TIP3    H278707   0.464   2.556  16.946 -1.4457 -1.7825 -0.3330
19098TIP3   OH278708   6.148   6.546   3.626  0.2354 -0.9012  0.1792
19098TIP3    H178709   6.197   6.628   3.618 -0.0253 -0.8807 -1.7376
19098TIP3    H278710   6.214   6.481   3.650  0.7712 -0.4246  0.0150
19099TIP3   OH278711   3.475   0.985  13.177 -0.2258 -0.3054  0.4577
19099TIP3    H178712   3.505   0.985  13.087 -0.0634  0.5814  0.5022
19099TIP3    H278713   3.471   0.892  13.201 -1.3238 -0.6135 -0.8021
19100TIP3   OH278714   4.143   5.955   3.366  0.4518  0.0416 -0.1561
19100TIP3    H178715   4.147   6.050   3.372 -1.5209  0.1583 -0.1961
19100TIP3    H278716   4.228   5.926   3.399  1.6198  1.8350 -1.3926
19101TIP3   OH278717   6.696   2.425   3.666 -0.4148 -0.5922  0.6234
19101TIP3    H178718   6.702   2.509   3.710 -2.0327  0.6946 -1.4275
19101TIP3    H278719   6.602   2.409   3.657 -0.1326 -1.8496 -0.3761
19102TIP3   OH278720   0.853   2.683   1.673 -0.2802  0.0502 -0.0363
19102TIP3    H178721   0.772   2.673   1.622 -1.9717  5.4551  1.0031
19102TIP3    H278722   0.829   2.655   1.762 -0.2860 -0.3368 -0.1550
19103TIP3   OH278723   0.601   4.124   4.573  0.3637 -0.0638 -0.1397
19103TIP3    H178724   0.598   4.204   4.625 -1.2876 -0.4588  0.4264
19103TIP3    H278725   0.534   4.136   4.506  1.2187 -0.3202 -1.0668
19104TIP3   OH278726   2.029   4.616  15.159 -0.0035  0.1420 -0.0620
19104TIP3    H178727   2.084   4.558  15.106 -0.5487 -1.8456  1.4268
19104TIP3    H278728   1.976   4.663  15.094 -1.0696 -2.6214 -1.3721
19105TIP3   OH278729   2.312   1.874  15.017  0.3262 -0.4115  0.3792
19105TIP3    H178730   2.229   1.911  15.047  0.6152  0.3837  0.2235
19105TIP3    H278731   2.369   1.879  15.093  1.0449  1.5645 -0.2411
19106TIP3   OH278732   3.982   6.465   2.464  0.2822 -0.2011 -0.0582
19106TIP3    H178733   4.043   6.482   2.392 -0.2320  1.3253 -0.1790
19106TIP3    H278734   3.975   6.370   2.468  0.4453 -0.3293 -1.9233
19107TIP3   OH278735   5.018   3.742   4.773 -0.4576  0.0480  0.1176
19107TIP3    H178736   4.937   3.694   4.787 -0.2448 -0.5607 -0.6254
19107TIP3    H278737   5.041   3.777   4.859 -0.8303 -0.8484  0.5966
19108TIP3   OH278738   2.760   4.544   5.588  0.1059  0.5187  0.7300
19108TIP3    H178739   2.715   4.626   5.568  1.4075  1.3218  0.9583
19108TIP3    H278740   2.836   4.571   5.640  0.5516 -0.8306  0.8048
19109TIP3   OH278741   2.363   5.172   0.315  0.2597  0.4045 -0.4988
19109TIP3    H178742   2.429   5.225   0.270 -0.1106  1.1791 -0.1481
19109TIP3    H278743   2.280   5.217   0.298 -0.0571 -0.0623 -0.1923
19110TIP3   OH278744   1.988   6.695  16.696  0.1855  0.3012 -0.1869
19110TIP3    H178745   1.907   6.703  16.745  0.3384  1.0438 -0.0570
19110TIP3    H278746   1.960   6.667  16.609 -0.2231  0.6899 -0.1856
19111TIP3   OH278747   4.855   1.632   6.383 -0.1253 -0.0519  0.3450
19111TIP3    H178748   4.838   1.726   6.387  0.0053 -0.0123 -0.0350
19111TIP3    H278749   4.950   1.625   6.379 -0.1769 -0.0987 -2.0322
19112TIP3   OH278750   0.142   1.664  14.499 -0.2189  0.0406  0.2346
19112TIP3    H178751   0.200   1.620  14.437 -0.8815  0.7939 -0.9531
19112TIP3    H278752   0.065   1.687  14.447 -0.9127  0.4372  1.4148
19113TIP3   OH278753   0.869   5.847  12.519 -0.4758  0.3649  0.1130
19113TIP3    H178754   0.870   5.890  12.434 -0.7949 -0.4525 -0.3149
19113TIP3    H278755   0.919   5.905  12.576  2.8612 -0.7661 -1.4552
19114TIP3   OH278756   0.875   4.418  11.177 -0.6682 -0.1193 -0.3830
19114TIP3    H178757   0.835   4.343  11.220  2.8119 -0.2719  3.0589
19114TIP3    H278758   0.944   4.381  11.123  0.6667  0.4816  0.8506
19115TIP3   OH278759   4.089   2.209   2.669 -0.2909 -0.0977 -0.1191
19115TIP3    H178760   4.059   2.189   2.757 -0.5338 -1.7339 -0.5479
19115TIP3    H278761   4.019   2.178   2.612 -0.1073  0.8786 -0.9059
19116TIP3   OH278762   4.794   3.917  14.825  0.0962 -0.3363  0.2306
19116TIP3    H178763   4.819   3.886  14.738 -2.8092 -0.7480 -0.5522
19116TIP3    H278764   4.771   3.838  14.874  0.4409 -0.0063  0.9366
19117TIP3   OH278765   6.446   1.208   4.086 -0.0138 -0.1981 -0.3304
19117TIP3    H178766   6.485   1.264   4.153 -2.3511 -1.0955  1.9296
19117TIP3    H278767   6.517   1.147   4.062  1.7572  1.9441 -0.9537
19118TIP3   OH278768   3.914   2.379   4.409  0.3448  0.3370 -0.1693
19118TIP3    H178769   3.845   2.420   4.357  0.3792  0.7291  0.0888
19118TIP3    H278770   3.994   2.393   4.358  0.9872  3.6745  1.4310
19119TIP3   OH278771   3.240   2.429   0.847 -0.1588 -0.2861  0.1987
19119TIP3    H178772   3.212   2.386   0.927  0.5829 -0.3903  0.4074
19119TIP3    H278773   3.258   2.358   0.786  1.1518 -0.3008  0.5715
19120TIP3   OH278774   2.250   0.801  11.370  0.3899 -0.3309  0.4548
19120TIP3    H178775   2.291   0.745  11.304  0.2449 -0.8491  0.7929
19120TIP3    H278776   2.185   0.745  11.412 -0.6938  0.4943 -0.0875
19121TIP3   OH278777   0.171   6.031  16.736  0.0204  0.5537 -0.5189
19121TIP3    H178778   0.206   6.115  16.764 -0.6043  0.7599 -0.3317
19121TIP3    H278779   0.247   5.974  16.729  0.4362  1.1051 -0.5432
19122TIP3   OH278780   4.380   3.638   0.886 -0.0006  0.0991 -0.0761
19122TIP3    H178781   4.396   3.660   0.978  0.6644 -1.1734  0.1314
19122TIP3    H278782   4.466   3.621   0.850 -0.1408  1.7429 -1.2794
19123TIP3   OH278783   2.901   4.553  13.274 -0.2542 -0.3003  0.4137
19123TIP3    H178784   2.942   4.468  13.289  0.3212  0.1964  1.8175
19123TIP3    H278785   2.810   4.540  13.303 -1.3754 -1.5433 -3.1658
19124TIP3   OH278786   5.795   2.763   5.351 -0.2308 -0.8146  0.3435
19124TIP3    H178787   5.794   2.669   5.332 -0.0803 -0.9749  1.0727
19124TIP3    H278788   5.867   2.773   5.414  0.2275 -0.0976 -0.2697
19125TIP3   OH278789   5.160   1.242   1.922 -0.8302 -0.1621  0.0462
19125TIP3    H178790   5.120   1.227   1.837  0.2346  0.7285 -0.6463
19125TIP3    H278791   5.191   1.332   1.919  0.1877 -0.4532  0.9634
19126TIP3   OH278792   4.493   4.346  13.518  0.2851 -0.1299  0.3289
19126TIP3    H178793   4.440   4.370  13.593 -2.0371  0.0596 -1.2560
19126TIP3    H278794   4.535   4.264  13.543 -0.1541  0.0953  1.9203
19127TIP3   OH278795   4.198   0.122  13.458 -0.0654 -0.4701 -0.5132
19127TIP3    H178796   4.259   0.067  13.408 -1.0739 -2.2192  0.1008
19127TIP3    H278797   4.178   0.195  13.400  1.1577 -0.8505 -1.4472
19128TIP3   OH278798   6.324   5.933  14.902  0.4372 -0.4211  0.0739
19128TIP3    H178799   6.278   5.863  14.949 -0.6167 -0.7709 -1.4038
19128TIP3    H278800   6.399   5.953  14.958 -0.1813 -1.5187  1.3866
19129TIP3   OH278801   2.789   1.863  12.101  0.3813 -0.0367 -0.4857
19129TIP3    H178802   2.834   1.873  12.185 -0.2634 -0.6139 -0.0656
19129TIP3    H278803   2.848   1.809  12.049  0.7272  0.2177 -0.3638
19130TIP3   OH278804   5.125   2.602   0.602  0.7026 -0.2234 -0.0345
19130TIP3    H178805   5.157   2.592   0.513 -0.2353 -1.1063 -0.3008
19130TIP3    H278806   5.164   2.529   0.650  0.1063 -0.5668 -0.0626
19131TIP3   OH278807   3.998   3.130  14.075  0.0888  0.2195  0.2343
19131TIP3    H178808   3.933   3.164  14.013  0.0493  0.1384  0.2317
19131TIP3    H278809   3.952   3.060  14.122  0.4060 -0.3581 -0.2947
19132TIP3   OH278810   6.470   4.602  10.916 -0.1425  0.4645  0.6388
19132TIP3    H178811   6.502   4.663  10.850 -1.5815  0.1319 -0.4101
19132TIP3    H278812   6.379   4.585  10.891 -0.4296 -0.4177  2.1634
19133TIP3   OH278813   5.347   4.683   5.544 -0.3318 -0.1165  0.1495
19133TIP3    H178814   5.253   4.664   5.542 -0.3176 -0.2845  1.0679
19133TIP3    H278815   5.355   4.766   5.497 -1.0510  0.3394  0.8026
19134TIP3   OH278816   2.893   0.058  14.068  0.2767 -0.3141  0.0748
19134TIP3    H178817   2.937   0.142  14.076 -0.3041  0.0183 -0.2105
19134TIP3    H278818   2.932   0.004  14.137  1.4984 -0.1978 -0.5050
19135TIP3   OH278819   4.838   5.502   5.240 -0.0494  0.0203 -0.0569
19135TIP3    H178820   4.911   5.564   5.234 -0.4247  0.6164  1.2604
19135TIP3    H278821   4.821   5.476   5.150  1.3766  0.3635 -0.4480
19136TIP3   OH278822   1.430   3.830  14.144  0.5063 -0.3483  0.6189
19136TIP3    H178823   1.481   3.809  14.066  1.7934  0.5654  1.1582
19136TIP3    H278824   1.345   3.859  14.111  1.4851  1.3847 -0.5642
19137TIP3   OH278825   6.447   1.737  13.696  0.0232  0.2858  0.2562
19137TIP3    H178826   6.428   1.645  13.714 -0.0447  0.0373 -0.9867
19137TIP3    H278827   6.367   1.771  13.657 -0.3185  1.1734  1.6582
19138TIP3   OH278828   4.824   6.456  12.203  0.6435 -0.0964 -0.4433
19138TIP3    H178829   4.919   6.446  12.200  0.6181 -0.6956  0.3648
19138TIP3    H278830   4.810   6.527  12.265  0.5761  0.3296 -0.9406
19139TIP3   OH278831   5.416   2.596  16.925 -0.2982 -0.2054 -0.1901
19139TIP3    H178832   5.507   2.580  16.898 -0.1851  1.9062 -1.2247
19139TIP3    H278833   5.422   2.659  16.996 -0.9479 -0.2880 -0.0565
19140TIP3   OH278834   6.370   0.016  14.587 -0.0136 -0.2268  0.0569
19140TIP3    H178835   6.415  -0.062  14.553  1.7774 -0.6353  2.9622
19140TIP3    H278836   6.410   0.089  14.539 -0.5815 -0.9475 -1.5852
19141TIP3   OH278837   0.473   6.651  14.488 -0.2417 -0.3691 -0.1525
19141TIP3    H178838   0.551   6.658  14.432 -1.1374  0.2843 -1.3745
19141TIP3    H278839   0.455   6.557  14.491  1.6525 -0.7278  1.7137
19142TIP3   OH278840   4.873   6.483   3.954 -0.5400 -0.9364  0.0080
19142TIP3    H178841   4.825   6.530   4.023  0.0978 -1.7481  1.0393
19142TIP3    H278842   4.860   6.536   3.875 -1.9823 -0.4273  0.5622
19143TIP3   OH278843   1.587   3.862  12.966  0.4717  0.0971 -0.7271
19143TIP3    H178844   1.607   3.954  12.985  0.2032 -0.2017  1.2064
19143TIP3    H278845   1.666   3.815  12.992  0.6907 -0.2090 -1.9252
19144TIP3   OH278846   4.630   6.622   3.154  0.0852 -0.1418 -0.8228
19144TIP3    H178847   4.689   6.658   3.221 -0.3053  1.1070 -1.1355
19144TIP3    H278848   4.586   6.549   3.198 -0.5408  0.9731  0.4663
19145TIP3   OH278849   5.302   0.102   1.535  0.1473 -0.4371  0.4478
19145TIP3    H178850   5.239   0.044   1.492 -1.0774 -0.2455  1.8993
19145TIP3    H278851   5.348   0.045   1.597  0.3061 -0.2657  0.4873
19146TIP3   OH278852   4.539   1.319   3.056 -0.5578 -0.2709  0.1978
19146TIP3    H178853   4.631   1.343   3.057 -0.8996  1.2104  2.2771
19146TIP3    H278854   4.516   1.315   2.963  1.5008 -0.3771 -0.3531
19147TIP3   OH278855   6.133   0.091  13.998 -0.2190 -0.3636  0.5244
19147TIP3    H178856   6.178   0.164  14.040  0.5720 -0.0174 -0.8437
19147TIP3    H278857   6.167   0.013  14.040  0.3415 -0.0159  0.7187
19148TIP3   OH278858   1.106   4.682  16.633  0.2229  0.2115  0.0283
19148TIP3    H178859   1.048   4.667  16.708 -0.1937 -1.6381 -0.5956
19148TIP3    H278860   1.049   4.672  16.556  1.1416 -0.5719 -0.5743
19149TIP3   OH278861   2.099   3.687  12.902 -0.3538  1.0145  0.7416
19149TIP3    H178862   2.163   3.707  12.833 -0.3876  0.1754  0.4506
19149TIP3    H278863   2.147   3.698  12.984 -0.3910  2.2996  0.6058
19150TIP3   OH278864   0.465   0.434   5.093 -0.1322 -0.6217 -0.3844
19150TIP3    H178865   0.545   0.394   5.060  1.1994 -0.3990  2.3782
19150TIP3    H278866   0.410   0.360   5.120  0.5986 -0.7314  0.8665
19151TIP3   OH278867   3.430   0.320   3.273  0.2382  0.4704  0.4789
19151TIP3    H178868   3.475   0.346   3.192  0.1578 -1.9732 -0.4313
19151TIP3    H278869   3.497   0.278   3.326 -0.1929  0.0560  0.7052
19152TIP3   OH278870   5.429   1.250  17.098  0.2462  0.6149 -0.0739
19152TIP3    H178871   5.471   1.188  17.157 -0.4833 -0.4182 -0.6083
19152TIP3    H278872   5.499   1.279  17.039  0.2990 -0.9205 -0.8151
19153TIP3   OH278873   2.580   5.170   4.164  0.2126  0.0915  0.4009
19153TIP3    H178874   2.655   5.228   4.170 -0.0227  0.2461  3.4813
19153TIP3    H278875   2.510   5.223   4.125  1.2291  0.4017 -1.0606
19154TIP3   OH278876   0.457   4.049  11.856  0.8159  0.0709  0.3094
19154TIP3    H178877   0.476   3.998  11.778 -0.8239  0.7177 -0.5736
19154TIP3    H278878   0.497   4.134  11.840 -0.8264  0.7278 -0.5941
19155TIP3   OH278879   1.515   3.437  11.115  0.2781 -0.0671 -0.0601
19155TIP3    H178880   1.569   3.503  11.160  0.8526  0.3766 -1.3712
19155TIP3    H278881   1.577   3.388  11.062 -0.4924 -0.1300 -0.9105
19156TIP3   OH278882   6.700   0.837  12.082  0.6897 -0.9019  0.3811
19156TIP3    H178883   6.707   0.915  12.138  1.1645  0.5143 -1.5565
19156TIP3    H278884   6.618   0.849  12.035  1.5589 -0.6902 -1.1484
19157TIP3   OH278885   1.420   3.182  14.537 -0.7240  0.9460  0.6269
19157TIP3    H178886   1.494   3.232  14.504 -0.7740 -0.5964 -2.1744
19157TIP3    H278887   1.442   3.161  14.627  1.3241  2.1987  0.4579
19158TIP3   OH278888   2.996   6.364   1.435 -0.5859  0.3996  0.2556
19158TIP3    H178889   2.906   6.358   1.464 -0.2093  0.9135  1.5921
19158TIP3    H278890   3.009   6.286   1.380 -2.5049  1.5384 -1.9747
19159TIP3   OH278891   3.826   6.074   0.005 -0.4163  0.1214 -0.2728
19159TIP3    H178892   3.876   6.010   0.056  0.5444  0.0230 -1.3014
19159TIP3    H278893   3.738   6.070   0.042  0.3677  0.4882  1.7599
19160TIP3   OH278894   4.111   6.299  13.512  0.2758  0.2325 -0.5063
19160TIP3    H178895   4.201   6.330  13.524 -0.3219  1.2978  1.8784
19160TIP3    H278896   4.062   6.378  13.488 -0.3125  0.0590  0.0879
19161TIP3   OH278897   2.053   0.495   4.633 -0.2759 -0.1572 -0.0721
19161TIP3    H178898   2.069   0.472   4.724 -1.5950  1.6398  0.6549
19161TIP3    H278899   2.130   0.547   4.607 -0.2509 -0.0335  0.2483
19162TIP3   OH278900   6.105   3.280   0.348  0.5629 -0.1109  0.4881
19162TIP3    H178901   6.076   3.190   0.339  0.1315  0.0919 -0.2445
19162TIP3    H278902   6.025   3.332   0.334  0.2712  0.3467  3.2652
19163TIP3   OH278903   2.715   5.300   4.829 -0.1596  0.1111 -0.2121
19163TIP3    H178904   2.648   5.367   4.839 -0.4516 -0.2353  0.2068
19163TIP3    H278905   2.790   5.346   4.791 -0.7966  0.4006 -1.1445
19164TIP3   OH278906   1.933   4.221   4.718  0.1988 -0.1576  0.3098
19164TIP3    H178907   1.883   4.258   4.646  0.4250 -0.8757 -0.2319
19164TIP3    H278908   1.876   4.154   4.755  1.1395 -1.7863 -1.0380
19165TIP3   OH278909   3.662   6.393  16.605 -0.1122 -0.1448 -0.8262
19165TIP3    H178910   3.714   6.407  16.526  0.1865  0.2177 -0.5674
19165TIP3    H278911   3.584   6.447  16.592  1.1065  1.9952  0.2340
19166TIP3   OH278912   5.086   4.560   0.104  0.1366  0.6516 -0.5824
19166TIP3    H178913   5.181   4.552   0.091 -0.0467  0.3316 -1.9012
19166TIP3    H278914   5.049   4.543   0.017 -1.1140  1.1351 -0.1631
19167TIP3   OH278915   6.000   1.317   0.533 -0.1461 -0.9604  0.2190
19167TIP3    H178916   5.987   1.338   0.625 -0.3688 -1.9888  0.4409
19167TIP3    H278917   5.977   1.224   0.526  0.0155 -0.9399 -0.8421
19168TIP3   OH278918   6.152   3.121   5.719  0.4995  0.4255  0.1779
19168TIP3    H178919   6.204   3.164   5.787  0.1684 -0.1809  0.8338
19168TIP3    H278920   6.062   3.126   5.751  0.2683  0.6176 -0.4873
19169TIP3   OH278921   5.386   0.302  16.438  0.5344 -0.6398 -0.2305
19169TIP3    H178922   5.371   0.367  16.506 -0.2320 -2.1545  1.0887
19169TIP3    H278923   5.318   0.319  16.373  1.9039  1.4893 -1.2400
19170TIP3   OH278924   1.380   3.671  12.439  0.8848 -0.5295 -0.0483
19170TIP3    H178925   1.433   3.750  12.444 -1.0531  0.9034 -0.8938
19170TIP3    H278926   1.337   3.676  12.353 -1.0187 -1.3213  0.7964
19171TIP3   OH278927   5.436   3.644   4.327 -0.5404  0.1430 -0.1837
19171TIP3    H178928   5.437   3.548   4.329  0.2350  0.1424  1.9124
19171TIP3    H278929   5.347   3.666   4.300 -0.5006 -1.1436 -1.4913
19172TIP3   OH278930   5.772   5.819  12.123  0.0563  0.1351  0.1185
19172TIP3    H178931   5.854   5.773  12.109  0.7227 -0.0080  3.5712
19172TIP3    H278932   5.704   5.751  12.119  0.8467 -1.0439  3.3159
19173TIP3   OH278933   4.790   4.722   4.027  0.2806 -0.1147  0.3278
19173TIP3    H178934   4.725   4.684   3.968  0.1034 -3.1060  2.2693
19173TIP3    H278935   4.857   4.757   3.969 -2.4041  2.0880 -1.7204
19174TIP3   OH278936   0.902   0.791  17.085  0.1958 -0.2567  0.1567
19174TIP3    H178937   0.872   0.879  17.062  0.0560 -0.2129  0.4966
19174TIP3    H278938   0.929   0.752  17.002  0.6646  0.2563  0.0666
19175TIP3   OH278939   2.159   0.478  15.990  0.2788 -0.2151  0.2546
19175TIP3    H178940   2.071   0.456  15.961  0.3647  0.2212 -0.3564
19175TIP3    H278941   2.216   0.417  15.942  0.4491  0.7441 -0.7908
19176TIP3   OH278942   5.991   1.613   1.334 -0.4867  0.1153 -0.2927
19176TIP3    H178943   6.056   1.647   1.395  1.1551 -0.8915 -1.4001
19176TIP3    H278944   5.931   1.562   1.389  0.2538  0.2064  0.6279
19177TIP3   OH278945   4.118   6.171   1.108  0.7168  0.1339 -0.5061
19177TIP3    H178946   4.067   6.235   1.059 -0.1741 -0.7340 -0.7602
19177TIP3    H278947   4.122   6.094   1.051  3.6911  0.6681 -1.1637
19178TIP3   OH278948   2.750   2.079  11.868  0.7005  0.0175  0.2009
19178TIP3    H178949   2.810   2.065  11.941  0.3155 -0.3613  0.4486
19178TIP3    H278950   2.667   2.043  11.898  1.2227 -2.8778 -1.5133
19179TIP3   OH278951   5.076   3.130   0.402  0.1463 -0.2023 -0.3235
19179TIP3    H178952   4.997   3.158   0.357  0.0011 -0.1368 -0.0292
19179TIP3    H278953   5.045   3.072   0.471  0.2750  0.5200  0.3571
19180TIP3   OH278954   6.078   1.459  15.620  0.2071 -0.5425 -0.2623
19180TIP3    H178955   6.073   1.364  15.635 -2.4364 -0.2095  1.8779
19180TIP3    H278956   6.011   1.475  15.553  2.3358 -0.3557 -2.4897
19181TIP3   OH278957   6.462   2.146   0.909 -0.6972  0.1125 -0.7374
19181TIP3    H178958   6.404   2.087   0.860 -1.1496  0.0864 -0.1815
19181TIP3    H278959   6.523   2.087   0.954  1.7716  0.2085 -3.6915
19182TIP3   OH278960   3.857   6.019   3.540  0.4157 -0.3708 -0.4554
19182TIP3    H178961   3.936   6.070   3.518  0.2520 -0.6197 -1.7047
19182TIP3    H278962   3.827   6.056   3.623  1.3190  0.3607 -0.4387
19183TIP3   OH278963   5.009   1.641   1.742  0.3181  0.0423 -0.2756
19183TIP3    H178964   5.013   1.550   1.715 -1.1062 -0.9575  2.4134
19183TIP3    H278965   5.096   1.676   1.725  0.9465 -1.8593 -1.2197
19184TIP3   OH278966   3.673   1.956  13.558  0.0945  0.0619  0.3651
19184TIP3    H178967   3.671   2.000  13.643 -0.4628  0.4318  0.1651
19184TIP3    H278968   3.614   2.007  13.503  1.8888  0.9622 -0.8128
19185TIP3   OH278969   3.261   4.573   4.441 -0.1191 -0.1585  0.0287
19185TIP3    H178970   3.332   4.622   4.483 -0.6884 -1.2643  2.5213
19185TIP3    H278971   3.186   4.585   4.500 -1.2725 -1.0780 -1.1907
19186TIP3   OH278972   1.886   6.573  12.145 -0.4239  0.0556 -0.1267
19186TIP3    H178973   1.823   6.644  12.158 -1.2643 -0.3425 -1.8080
19186TIP3    H278974   1.945   6.606  12.077  0.8351  0.1660  0.9701
19187TIP3   OH278975   2.945   4.154  15.240  0.6569  0.2960  0.1828
19187TIP3    H178976   2.905   4.241  15.240  0.3551  0.1614  0.6062
19187TIP3    H278977   3.020   4.162  15.181  0.3086  0.6927 -0.2101
19188TIP3   OH278978   5.474   3.431  13.805  0.1557 -0.2649 -0.6800
19188TIP3    H178979   5.394   3.425  13.752 -0.2821  0.1032 -0.0695
19188TIP3    H278980   5.540   3.465  13.745 -0.6276  1.2880 -0.6907
19189TIP3   OH278981   4.929   1.631   4.092  0.0291  0.1055 -0.1510
19189TIP3    H178982   4.971   1.566   4.036  0.9109  1.1747 -0.7776
19189TIP3    H278983   4.989   1.642   4.166  0.2977  0.7833 -0.4575
19190TIP3   OH278984   4.207   0.817  11.529  0.4076  0.0097  0.3802
19190TIP3    H178985   4.173   0.891  11.579  0.8941 -0.4165  1.3579
19190TIP3    H278986   4.250   0.762  11.594  1.8210 -0.1225 -0.6299
19191TIP3   OH278987   3.466   3.103  15.955 -0.1296 -0.2369 -0.4128
19191TIP3    H178988   3.495   3.188  15.989 -1.0574  1.1077 -2.7137
19191TIP3    H278989   3.535   3.077  15.893  0.3922 -1.4609  0.6326
19192TIP3   OH278990   2.358   5.651   1.546  0.6270  0.0963  0.4780
19192TIP3    H178991   2.386   5.580   1.604 -2.6581 -2.6646 -0.9361
19192TIP3    H278992   2.276   5.683   1.585 -0.4301 -0.2480 -1.3378
19193TIP3   OH278993   1.457   5.054   5.695 -0.3896 -0.1142 -0.1850
19193TIP3    H178994   1.446   5.080   5.604  2.4391 -0.7787 -0.8106
19193TIP3    H278995   1.433   4.961   5.697  0.1928 -0.2788 -0.4454
19194TIP3   OH278996   0.812   3.687   1.154 -0.2253 -0.2317  0.0813
19194TIP3    H178997   0.819   3.622   1.083  0.4402  0.0616 -0.1299
19194TIP3    H278998   0.720   3.713   1.153 -0.1662 -0.0048 -0.8919
19195TIP3   OH278999   4.918   0.386   2.541 -0.0302 -0.0652 -0.6490
19195TIP3    H179000   4.922   0.408   2.634  0.3002  2.1664 -1.1426
19195TIP3    H279001   4.989   0.323   2.529  1.2720  1.1733  0.2481
19196TIP3   OH279002   3.865   4.325  16.537  0.1797  0.1397  0.3875
19196TIP3    H179003   3.894   4.305  16.626  0.1830  0.3567  0.4348
19196TIP3    H279004   3.909   4.260  16.483  1.0461  0.6847  0.4148
19197TIP3   OH279005   0.271   1.896  12.418  0.1503  0.2308  0.1168
19197TIP3    H179006   0.309   1.864  12.335 -1.0616 -0.6560 -0.1154
19197TIP3    H279007   0.268   1.991  12.407  0.2367  0.1444 -0.7599
19198TIP3   OH279008   1.215   6.747  17.302  0.4123 -0.3360  0.1516
19198TIP3    H179009   1.234   6.800  17.224 -0.0896  1.1029  0.9512
19198TIP3    H279010   1.300   6.734  17.344  0.8742 -2.1947 -1.2378
19199TIP3   OH279011   3.745   4.541  17.260 -0.0337 -0.0648 -0.5815
19199TIP3    H179012   3.685   4.597  17.310  0.5175  0.6551 -0.7048
19199TIP3    H279013   3.782   4.599  17.193  0.9855 -0.4242 -0.3516
19200TIP3   OH279014   5.842   1.374   2.378 -0.2059  0.2627 -0.1264
19200TIP3    H179015   5.837   1.337   2.290 -0.1552  0.0343 -0.0351
19200TIP3    H279016   5.904   1.446   2.371  0.3797 -0.2327 -0.1141
19201TIP3   OH279017   0.506   3.534   1.282  0.0485  0.1626  0.4599
19201TIP3    H179018   0.522   3.627   1.270  0.0780  0.0746 -0.2553
19201TIP3    H279019   0.591   3.498   1.309  0.2641  0.2067 -0.1406
19202TIP3   OH279020   6.349   0.106  12.988 -0.0248  0.1905  0.3347
19202TIP3    H179021   6.285   0.169  13.023  0.1053 -0.5428  1.9584
19202TIP3    H279022   6.342   0.030  13.045 -0.2752 -1.3744 -1.6703
19203TIP3   OH279023   1.449   6.428  13.466 -0.8827  0.6634  0.6855
19203TIP3    H179024   1.438   6.476  13.384 -2.2817 -1.7553 -0.6696
19203TIP3    H279025   1.510   6.480  13.517  2.5295  0.8391 -3.0993
19204TIP3   OH279026   5.598   3.371  14.362 -0.5249 -1.0811  0.0048
19204TIP3    H179027   5.645   3.392  14.281  1.3739 -0.8343  1.0983
19204TIP3    H279028   5.541   3.299  14.339 -0.2500 -0.8195 -1.6260
19205TIP3   OH279029   3.921   3.313   4.067 -0.1165  0.1979 -0.3550
19205TIP3    H179030   3.835   3.343   4.039 -0.5517 -1.8419 -1.4065
19205TIP3    H279031   3.923   3.220   4.044  2.5847  0.2901 -0.8863
19206TIP3   OH279032   2.381   3.415   0.199 -0.1657 -0.1396 -0.4883
19206TIP3    H179033   2.416   3.431   0.287 -1.5451  1.8802 -0.2242
19206TIP3    H279034   2.422   3.482   0.145  1.1746 -1.7706 -1.6023
19207TIP3   OH279035   1.762   1.237  15.305 -0.4455 -0.4609  0.5943
19207TIP3    H179036   1.711   1.229  15.224  0.2334 -0.8204  0.1920
19207TIP3    H279037   1.787   1.329  15.308 -1.0264 -0.3025  0.7441
19208TIP3   OH279038   3.739   6.042  14.432 -0.1690 -0.4238  0.2825
19208TIP3    H179039   3.808   5.985  14.466 -0.9639 -0.2323  2.3325
19208TIP3    H279040   3.786   6.107  14.379  0.9889 -1.5178 -0.0782
19209TIP3   OH279041   3.383   1.418   4.633  0.7996 -0.1395 -0.6242
19209TIP3    H179042   3.411   1.460   4.552  0.7144 -0.0964 -0.6310
19209TIP3    H279043   3.453   1.438   4.696  1.0556 -0.5012 -0.7920
19210TIP3   OH279044   0.783   6.370  16.539 -0.2292  0.3474  0.2195
19210TIP3    H179045   0.797   6.457  16.577 -1.9572  1.3018 -1.1718
19210TIP3    H279046   0.775   6.386  16.445 -0.4455 -1.3446 -0.0793
19211TIP3   OH279047   6.353   5.223  12.679  0.4945 -0.3638 -0.0421
19211TIP3    H179048   6.388   5.194  12.763  1.6382 -2.1886 -1.0662
19211TIP3    H279049   6.359   5.145  12.623 -0.9029  0.5929 -1.6173
19212TIP3   OH279050   5.776   6.684  11.872  0.2478 -0.2064  0.1760
19212TIP3    H179051   5.826   6.677  11.790 -0.8971  1.6067 -0.7327
19212TIP3    H279052   5.685   6.691  11.843 -0.2956 -0.6985  1.6903
19213TIP3   OH279053   0.866   1.647   2.756  0.1304  0.0401  0.3891
19213TIP3    H179054   0.892   1.557   2.774  1.2331 -0.1341 -1.7541
19213TIP3    H279055   0.914   1.670   2.677 -1.3214  2.0054  0.0212
19214TIP3   OH279056   4.145   1.665  12.033 -0.0809  0.4838  0.4872
19214TIP3    H179057   4.122   1.689  11.943 -0.8489 -0.6973  0.3545
19214TIP3    H279058   4.236   1.635  12.028 -0.8605 -1.9486 -0.3975
19215TIP3   OH279059   1.059   4.209   6.268  0.1271  0.1390 -0.0618
19215TIP3    H179060   1.114   4.132   6.283  0.8828  0.6918  0.0489
19215TIP3    H279061   1.024   4.230   6.354 -2.8388 -2.0616 -0.5550
19216TIP3   OH279062   6.556   0.521  16.431  0.1370  0.2702  0.8989
19216TIP3    H179063   6.576   0.458  16.500  0.9037 -0.8623 -0.2931
19216TIP3    H279064   6.546   0.467  16.352 -0.7684  1.5077  0.1328
19217TIP3   OH279065   2.838   5.398   3.351 -0.1654  0.3012  0.0568
19217TIP3    H179066   2.800   5.345   3.422 -0.9311  0.7357 -0.0180
19217TIP3    H279067   2.762   5.428   3.301  0.3184  0.7749 -0.3968
19218TIP3   OH279068   2.917   3.712   1.727 -0.2225  0.1582 -0.7116
19218TIP3    H179069   2.950   3.788   1.679  0.5827  0.7024  0.6403
19218TIP3    H279070   2.925   3.737   1.819 -1.1427 -1.0853 -0.2684
19219TIP3   OH279071   5.319   0.890  12.692  0.3707  0.3296  0.0735
19219TIP3    H179072   5.227   0.865  12.690  0.8222 -1.5185  0.4992
19219TIP3    H279073   5.345   0.897  12.600  0.3360 -1.3912 -0.1017
19220TIP3   OH279074   1.663   4.284  13.583  0.6064  0.4688 -0.2866
19220TIP3    H179075   1.740   4.291  13.640  1.5035  0.6697 -1.4750
19220TIP3    H279076   1.632   4.374  13.574  0.6406  0.4774 -0.3225
19221TIP3   OH279077   6.287   5.632   0.306 -0.0291 -0.5646  0.0233
19221TIP3    H179078   6.281   5.544   0.269 -0.5958 -0.8852  0.8235
19221TIP3    H279079   6.274   5.691   0.232 -3.2175 -1.1810 -0.0563
19222TIP3   OH279080   3.397   0.129   4.624  0.2222 -0.3225  0.1506
19222TIP3    H179081   3.330   0.071   4.588 -0.7239  0.7125  0.1746
19222TIP3    H279082   3.366   0.217   4.602  1.8685  0.1785 -0.3359
19223TIP3   OH279083   0.210   4.816   4.311  0.5977 -0.5905 -0.0890
19223TIP3    H179084   0.296   4.807   4.352  0.5632 -0.4105  0.0253
19223TIP3    H279085   0.163   4.878   4.367  0.8077  0.2346 -0.8008
19224TIP3   OH279086   3.857   3.105  11.225  0.6524  0.2927  0.1992
19224TIP3    H179087   3.788   3.152  11.179  0.3565  0.3900  0.7331
19224TIP3    H279088   3.839   3.012  11.205 -0.3261  0.2261  1.2396
19225TIP3   OH279089   2.407   6.220  14.847  0.5822  0.4260 -0.4573
19225TIP3    H179090   2.476   6.216  14.781  0.5501 -2.2351 -0.4274
19225TIP3    H279091   2.453   6.213  14.931  0.3531 -1.1227 -0.4295
19226TIP3   OH279092   5.231   2.498   0.072 -0.0148  0.4990 -0.0396
19226TIP3    H179093   5.296   2.561   0.041  2.1675 -0.6989  1.8049
19226TIP3    H279094   5.252   2.417   0.026 -0.2794  0.1259  0.4906
19227TIP3   OH279095   1.761   1.747   5.177  0.8294 -0.0184 -0.5948
19227TIP3    H179096   1.812   1.818   5.217 -0.6117  0.0981  1.1466
19227TIP3    H279097   1.822   1.673   5.175  0.8619 -0.2456  2.5588
19228TIP3   OH279098   4.709   2.980  14.360  0.2090 -0.6518  0.6029
19228TIP3    H179099   4.710   3.054  14.420  0.9342  0.9161 -1.2092
19228TIP3    H279100   4.799   2.947  14.363  0.7105  0.4644 -0.7207
19229TIP3   OH279101   5.498   1.645  11.074  0.2220  0.1104  0.3736
19229TIP3    H179102   5.441   1.586  11.026 -0.6428  1.6986 -0.6192
19229TIP3    H279103   5.561   1.677  11.009  1.1541 -0.2634  1.0661
19230TIP3   OH279104   0.298   4.923   4.659 -0.1983  0.1739  0.3061
19230TIP3    H179105   0.258   4.836   4.666 -0.2511  0.2369  0.8298
19230TIP3    H279106   0.264   4.971   4.734  0.0715  0.5508  0.1895
19231TIP3   OH279107   0.781   1.672  11.279  0.0129 -0.0981 -0.0750
19231TIP3    H179108   0.731   1.631  11.209  1.7901  0.5812 -1.8273
19231TIP3    H279109   0.868   1.631  11.274  0.0222 -0.5076  2.1912
19232TIP3   OH279110   1.418   0.045  15.479  1.2936  0.6884  0.1258
19232TIP3    H179111   1.502   0.029  15.437  1.8373 -0.5152  1.5621
19232TIP3    H279112   1.389   0.129  15.444  2.8398  0.8735 -0.8000
19233TIP3   OH279113   2.388   0.300  16.237 -0.1137  0.5606 -0.5959
19233TIP3    H179114   2.456   0.355  16.198 -0.5347  0.5590 -1.3535
19233TIP3    H279115   2.397   0.216  16.192 -1.2563  0.8640 -1.4453
19234TIP3   OH279116   4.129   0.493  12.772  0.3439  0.8565 -0.2145
19234TIP3    H179117   4.077   0.571  12.792  0.1588  0.5052  0.7414
19234TIP3    H279118   4.071   0.439  12.718 -0.0928  0.7190  0.3760
19235TIP3   OH279119   0.521   1.027   3.844  0.1574 -0.0206 -0.5449
19235TIP3    H179120   0.436   0.987   3.865  0.8919 -0.5591  1.7146
19235TIP3    H279121   0.508   1.120   3.859 -0.4338  0.1074 -1.7516
19236TIP3   OH279122   0.175   0.247   0.757  0.8048  0.3388 -0.1340
19236TIP3    H179123   0.248   0.300   0.790 -0.3635  0.6146  2.1863
19236TIP3    H279124   0.121   0.309   0.708  1.2421  0.5017 -0.4178
19237TIP3   OH279125   5.525   3.474   1.041  0.0287 -0.1001 -0.2653
19237TIP3    H179126   5.471   3.484   1.119 -2.0829 -0.3569 -1.6089
19237TIP3    H279127   5.610   3.510   1.066 -1.4474  2.7755  1.2001
19238TIP3   OH279128   6.750   1.536   5.327  0.5112  0.1905  0.6141
19238TIP3    H179129   6.720   1.451   5.358  1.7069 -2.0092 -3.5842
19238TIP3    H279130   6.839   1.543   5.361  0.1237  0.2325  1.6704
19239TIP3   OH279131   6.404   2.464  14.669  0.2983  0.7187  0.4884
19239TIP3    H179132   6.499   2.473  14.655  0.3672 -1.4638 -1.0261
19239TIP3    H279133   6.397   2.406  14.745  0.1656  1.0732  0.7477
19240TIP3   OH279134   0.752   5.430  13.794 -0.7220 -0.4026  0.0760
19240TIP3    H179135   0.675   5.423  13.737  0.2287  1.9427 -1.6808
19240TIP3    H279136   0.814   5.368  13.757 -0.5561  0.2192 -0.7220
19241TIP3   OH279137   3.193   2.510   4.321 -0.9944  0.2127  0.0057
19241TIP3    H179138   3.242   2.503   4.238 -1.0614  0.6881 -0.0724
19241TIP3    H279139   3.102   2.492   4.296 -0.8426 -0.9040  0.1886
19242TIP3   OH279140   3.981   5.298  13.602  0.5179 -0.2605  0.0039
19242TIP3    H179141   3.968   5.359  13.529  2.2381  1.0781  0.7364
19242TIP3    H279142   4.052   5.241  13.574 -1.0019 -1.9545 -0.6252
19243TIP3   OH279143   3.595   2.523  15.738  0.1209  0.2919  0.1073
19243TIP3    H179144   3.639   2.593  15.787  0.2885  0.3387 -0.1109
19243TIP3    H279145   3.588   2.451  15.801  0.6217  0.2411  0.1101
19244TIP3   OH279146   1.038   6.540  15.146  0.2599 -0.0273  0.5232
19244TIP3    H179147   0.943   6.534  15.134  0.5510 -0.7859 -1.9353
19244TIP3    H279148   1.070   6.452  15.127  1.5825  0.5838 -0.1959
19245TIP3   OH279149   1.657   4.143  15.014  0.3638 -0.0176 -0.6604
19245TIP3    H179150   1.711   4.162  14.937  0.9253  0.5390 -0.1426
19245TIP3    H279151   1.590   4.083  14.982  1.8716 -1.5401 -1.1162
19246TIP3   OH279152   6.273   1.815  11.065  1.4701  0.2587  0.0790
19246TIP3    H179153   6.220   1.858  10.998  1.6711  1.4055  0.6305
19246TIP3    H279154   6.260   1.722  11.050  1.0989  0.5039 -1.2174
19247TIP3   OH279155   0.211   1.488  17.090 -0.1520 -0.1427  0.3104
19247TIP3    H179156   0.306   1.487  17.091 -0.1603 -0.8942  0.7948
19247TIP3    H279157   0.188   1.570  17.046  0.7094  0.2658  0.6172
19248TIP3   OH279158   1.198   1.757  14.470  0.0878 -0.1729 -0.2962
19248TIP3    H179159   1.167   1.819  14.404  0.8889  0.7190  0.1365
19248TIP3    H279160   1.261   1.701  14.424  0.2624  0.1145 -0.4059
19249TIP3   OH279161   2.434   0.730   0.766 -0.1148 -0.0707  0.0829
19249TIP3    H179162   2.437   0.734   0.670 -0.2221 -0.6093  0.0573
19249TIP3    H279163   2.523   0.707   0.792 -0.2229 -0.4801  0.0866
19250TIP3   OH279164   3.595   1.125  14.301 -0.0814 -0.3530 -0.1614
19250TIP3    H179165   3.612   1.057  14.366  1.5244  1.5706  1.5524
19250TIP3    H279166   3.504   1.150  14.316 -0.1209 -0.8381  0.4447
19251TIP3   OH279167   6.272   3.082   2.620  0.3228 -0.0103 -0.0425
19251TIP3    H179168   6.308   3.137   2.690  1.0585  0.0564 -0.4685
19251TIP3    H279169   6.186   3.055   2.653 -0.0631  1.4095  0.1652
19252TIP3   OH279170   2.736   2.568  14.202 -0.0533 -0.2343 -0.6016
19252TIP3    H179171   2.650   2.561  14.161 -0.7141  0.1709  0.6616
19252TIP3    H279172   2.722   2.542  14.293  0.7722  1.4945  0.0643
19253TIP3   OH279173   5.129   1.341   4.143  0.4528  0.0305 -0.3561
19253TIP3    H179174   5.205   1.395   4.166 -0.9377  1.4276  1.2531
19253TIP3    H279175   5.087   1.388   4.071 -0.1024  0.4946  0.2571
19254TIP3   OH279176   4.502   6.698   1.873 -0.2135 -0.6616 -0.2233
19254TIP3    H179177   4.563   6.673   1.943 -0.0022  1.5946  0.4833
19254TIP3    H279178   4.417   6.707   1.917 -0.0675  0.8311 -0.1860
19255TIP3   OH279179   4.609   6.407  16.272 -0.6875  0.0500  0.7066
19255TIP3    H179180   4.630   6.412  16.365  0.7782 -0.1251  0.4188
19255TIP3    H279181   4.691   6.430  16.228 -1.1657 -0.5307 -0.5466
19256TIP3   OH279182   5.376   6.613  15.406 -0.3362 -0.3893  0.0206
19256TIP3    H179183   5.402   6.679  15.470 -0.9538  0.5074 -0.6235
19256TIP3    H279184   5.285   6.636  15.384 -0.3099 -1.0145 -0.7613
19257TIP3   OH279185   1.377   5.696  17.079  0.5030  0.2380  0.1511
19257TIP3    H179186   1.290   5.700  17.039  0.4005  0.0985  0.3597
19257TIP3    H279187   1.436   5.728  17.010  0.2925  0.2966 -0.0039
19258TIP3   OH279188   0.471   4.063  13.701  0.3091 -0.1600  0.1169
19258TIP3    H179189   0.453   4.024  13.787 -1.0643  0.5828  0.1926
19258TIP3    H279190   0.492   3.988  13.645  0.9232 -0.6822  1.0221
19259TIP3   OH279191   4.335   0.517  16.059  0.4524 -0.0942 -0.3191
19259TIP3    H179192   4.420   0.523  16.103  0.7053 -0.1382 -0.7911
19259TIP3    H279193   4.312   0.608  16.039  0.6774 -0.1276 -0.7308
19260TIP3   OH279194   5.538   5.754  10.790 -0.5664 -0.1738 -0.1911
19260TIP3    H179195   5.550   5.847  10.806 -1.4928  0.1111 -1.0881
19260TIP3    H279196   5.573   5.739  10.703  0.3837 -0.8539  0.2828
19261TIP3   OH279197   1.371   1.580  12.854  0.6404 -0.1950  0.0889
19261TIP3    H179198   1.409   1.579  12.942  0.0539 -1.9499  0.3668
19261TIP3    H279199   1.277   1.568  12.868  0.3299  1.0888 -0.7290
19262TIP3   OH279200   0.541   3.437  13.413  0.4357 -0.5195 -0.0329
19262TIP3    H179201   0.603   3.459  13.482 -0.4127 -1.1214  0.9440
19262TIP3    H279202   0.591   3.381  13.353  1.1934  0.0664  0.0435
19263TIP3   OH279203   1.439   6.166   3.697  0.6273 -0.6056  0.3685
19263TIP3    H179204   1.473   6.236   3.753  0.4183 -1.1491  1.1788
19263TIP3    H279205   1.435   6.089   3.753 -2.0407 -0.5481  0.3850
19264TIP3   OH279206   5.686   0.264   3.546 -0.1873  0.8869 -0.1913
19264TIP3    H179207   5.712   0.324   3.616  1.5023 -0.5103  0.4651
19264TIP3    H279208   5.696   0.176   3.584  1.7685  0.0248 -2.4422
19265TIP3   OH279209   0.556   2.278  13.173 -0.0759  0.1690 -0.0762
19265TIP3    H179210   0.614   2.335  13.123  3.0629 -1.3348  1.5448
19265TIP3    H279211   0.598   2.271  13.259 -1.7493 -2.3900  0.6548
19266TIP3   OH279212   6.262   6.667   4.200 -0.0950 -0.2115  0.0618
19266TIP3    H179213   6.270   6.758   4.172  0.5965 -0.1649  0.3926
19266TIP3    H279214   6.286   6.616   4.123 -2.7845 -0.1917 -0.8963
19267TIP3   OH279215   4.082   4.055  17.123  0.6316 -0.0672  0.3388
19267TIP3    H179216   4.057   4.065  17.031 -0.0904  1.9550  0.7156
19267TIP3    H279217   4.000   4.065  17.172  1.2565  0.6509  1.2773
19268TIP3   OH279218   5.452   3.438   1.507  0.0297 -1.0366 -0.0339
19268TIP3    H179219   5.474   3.361   1.456 -0.1338 -1.3011  0.2890
19268TIP3    H279220   5.536   3.470   1.539  0.1254 -0.9052 -0.4168
19269TIP3   OH279221   6.647   1.148   6.035 -0.1610  0.0983 -0.3224
19269TIP3    H179222   6.693   1.213   5.982  0.7832 -0.3426 -0.0538
19269TIP3    H279223   6.600   1.094   5.972 -0.4266  0.6281 -0.5878
19270TIP3   OH279224   6.710   2.574   4.556  0.8375 -0.6568 -0.5506
19270TIP3    H179225   6.752   2.533   4.632 -0.1110 -0.2283  0.2325
19270TIP3    H279226   6.700   2.503   4.493 -1.4161 -1.8728  1.0414
19271TIP3   OH279227   5.393   4.150  16.421  0.0720 -0.5560  0.6737
19271TIP3    H179228   5.464   4.087  16.431 -0.3325 -1.2598 -0.7486
19271TIP3    H279229   5.318   4.099  16.391 -0.2609  0.5947 -0.5485
19272TIP3   OH279230   1.796   6.620   2.315  0.0654  0.2305 -0.0744
19272TIP3    H179231   1.846   6.620   2.396 -3.2426 -1.0596  2.1911
19272TIP3    H279232   1.779   6.712   2.297  0.4429  0.5278  1.0015
19273TIP3   OH279233   5.583   0.283   2.632 -0.0153  0.2786 -0.4027
19273TIP3    H179234   5.588   0.376   2.608 -0.2635 -0.1461 -2.1993
19273TIP3    H279235   5.498   0.275   2.676 -0.9521  0.5359 -2.0834
19274TIP3   OH279236   3.000   4.850   0.300  0.2812 -0.2411  0.1843
19274TIP3    H179237   3.069   4.853   0.233 -0.6256  2.1875 -0.7456
19274TIP3    H279238   2.925   4.811   0.256  0.0172  0.3531  0.0962
19275TIP3   OH279239   1.665   1.117   3.274  0.5909 -0.2586  0.2183
19275TIP3    H179240   1.584   1.113   3.324  0.1322 -2.5601 -0.6188
19275TIP3    H279241   1.728   1.066   3.325  1.5265  1.3783  0.7839
19276TIP3   OH279242   1.047   2.592  10.821  0.4835  0.0587 -0.4723
19276TIP3    H179243   1.034   2.665  10.760 -0.2317 -0.2744 -0.7390
19276TIP3    H279244   0.985   2.525  10.791  0.2440 -0.1787  0.5201
19277TIP3   OH279245   2.981   3.384   2.490  0.1092  0.2180  0.0410
19277TIP3    H179246   3.063   3.392   2.441  1.1594  3.3783  2.0108
19277TIP3    H279247   2.929   3.460   2.461 -0.9166 -0.1354  0.9025
19278TIP3   OH279248   1.939   5.567   0.575 -0.0180 -0.7233  0.2315
19278TIP3    H179249   1.976   5.655   0.578 -1.0993 -0.2274 -0.6019
19278TIP3    H279250   1.859   5.576   0.524  0.0778 -2.2808 -0.2382
19279TIP3   OH279251   0.668   1.942   1.728  0.1867 -0.9432 -0.5868
19279TIP3    H179252   0.656   2.011   1.663 -0.2209 -0.6828 -0.2408
19279TIP3    H279253   0.604   1.875   1.704  2.4371 -2.5456 -2.6321
19280TIP3   OH279254   1.933   3.638  15.829 -0.2606 -0.9048 -0.1248
19280TIP3    H179255   1.873   3.703  15.865 -0.8695 -0.6702 -1.4859
19280TIP3    H279256   1.956   3.672  15.742  0.0626 -2.0981 -0.5271
19281TIP3   OH279257   5.209   5.464  15.610  0.0507  0.0622 -0.4425
19281TIP3    H179258   5.297   5.489  15.638  1.4845 -2.0771 -2.6287
19281TIP3    H279259   5.169   5.545  15.578  1.0198  1.1365  0.9621
19282TIP3   OH279260   4.293   3.014  15.752  0.5685 -0.0996  0.5753
19282TIP3    H179261   4.209   3.027  15.708  0.5395 -0.6294  0.4658
19282TIP3    H279262   4.357   3.008  15.681  0.7019  0.2957  0.6571
19283TIP3   OH279263   5.877   5.738  14.195  0.7224  0.1540  0.4242
19283TIP3    H179264   5.893   5.790  14.116  1.8669 -0.7191  0.0442
19283TIP3    H279265   5.958   5.748  14.246  0.8778 -1.0609  0.4382
19284TIP3   OH279266   3.222   5.585  10.636 -0.0157 -0.2851 -0.1073
19284TIP3    H179267   3.298   5.531  10.657 -0.8107 -1.0255  0.9724
19284TIP3    H279268   3.235   5.664  10.689  0.4270 -0.0178 -0.5988
19285TIP3   OH279269   0.643   2.339   3.240 -0.7535 -0.3931 -0.4450
19285TIP3    H179270   0.716   2.397   3.262 -0.4379 -0.2705 -1.7407
19285TIP3    H279271   0.608   2.312   3.325 -0.1532  0.7348  0.1879
19286TIP3   OH279272   4.501   1.778  12.150 -0.0071  0.0178 -0.5917
19286TIP3    H179273   4.491   1.873  12.137  0.5250  0.7877  3.2085
19286TIP3    H279274   4.430   1.755  12.210  0.6566 -1.7225 -0.4372
19287TIP3   OH279275   0.893   1.683  14.210 -0.4296 -0.1001 -0.7308
19287TIP3    H179276   0.820   1.638  14.254  1.2135 -1.5406  0.7120
19287TIP3    H279277   0.943   1.612  14.169  1.0408  0.6439 -0.2830
19288TIP3   OH279278   2.066   1.739   3.285  0.0423 -0.3207 -0.1594
19288TIP3    H179279   1.977   1.771   3.270  0.4521  0.3523 -1.2629
19288TIP3    H279280   2.057   1.644   3.291 -0.8286 -0.2127  0.3734
19289TIP3   OH279281   1.134   0.445   5.304  0.2866 -0.1093  0.3363
19289TIP3    H179282   1.055   0.495   5.323 -0.4515 -0.5696 -1.2746
19289TIP3    H279283   1.204   0.510   5.303 -0.3356  0.5809  0.2189
19290TIP3   OH279284   1.788   5.499   2.584 -0.3632 -0.1017  0.5016
19290TIP3    H179285   1.813   5.486   2.493  0.8484  1.1349  0.6145
19290TIP3    H279286   1.707   5.549   2.579 -0.6458 -0.5860  0.1118
19291TIP3   OH279287   6.305   6.704   2.448 -0.1755 -0.4523  0.5583
19291TIP3    H179288   6.231   6.762   2.468  1.4765  2.7161 -1.6331
19291TIP3    H279289   6.271   6.644   2.382 -0.8669  0.8338 -0.2985
19292TIP3   OH279290   1.526   5.224   4.133  0.2127 -0.1395 -0.5372
19292TIP3    H179291   1.459   5.170   4.091 -0.1637  0.8028 -1.1806
19292TIP3    H279292   1.609   5.178   4.115 -0.1977 -1.0920 -0.0902
19293TIP3   OH279293   3.492   6.634  15.352  0.4832  0.3344 -0.1073
19293TIP3    H179294   3.483   6.612  15.444  1.3879  1.5788  0.3026
19293TIP3    H279295   3.446   6.563  15.306  0.6310 -0.6847  1.2458
19294TIP3   OH279296   2.616   2.160  13.187 -0.0184  0.1329 -0.4995
19294TIP3    H179297   2.594   2.111  13.266  1.5454  2.7393  1.6862
19294TIP3    H279298   2.551   2.231  13.184  0.3673  0.4680 -1.1741
19295TIP3   OH279299   1.760   0.949  16.643  0.5312  0.1357 -0.0526
19295TIP3    H179300   1.757   0.993  16.558 -2.7444  0.1233 -0.0644
19295TIP3    H279301   1.751   1.020  16.707 -1.0658 -0.1430  0.0714
19296TIP3   OH279302   6.245   1.052  11.931  0.3563  0.1406  0.3665
19296TIP3    H179303   6.180   0.996  11.888  0.4285  0.2369  0.1284
19296TIP3    H279304   6.207   1.140  11.928  0.6170  0.2429 -0.0219
19297TIP3   OH279305   1.826   3.564  14.097 -0.5080 -0.0069  0.3711
19297TIP3    H179306   1.901   3.511  14.123 -1.0553 -0.2116  1.5614
19297TIP3    H279307   1.859   3.654  14.099  0.1643 -0.2106 -0.7705
19298TIP3   OH279308   4.073   5.745   3.719 -0.4376  0.4301 -0.3360
19298TIP3    H179309   4.007   5.785   3.775 -0.2305 -0.6077  0.6904
19298TIP3    H279310   4.051   5.775   3.631 -1.4057  1.2518  0.1674
19299TIP3   OH279311   5.554   5.507   4.324 -0.4162  0.4592 -0.1731
19299TIP3    H179312   5.482   5.521   4.387 -1.6291 -1.0471 -1.1399
19299TIP3    H279313   5.622   5.464   4.375 -0.2063  1.8141  0.7410
19300TIP3   OH279314   1.360   5.596   4.372 -0.2491  0.1786  0.6965
19300TIP3    H179315   1.384   5.599   4.280 -1.7600  2.0547  0.2922
19300TIP3    H279316   1.275   5.553   4.374  0.6192 -1.6229  1.4921
19301TIP3   OH279317   2.994   1.487   5.235 -0.0776 -0.8868 -0.1825
19301TIP3    H179318   2.966   1.576   5.215 -1.3185 -1.3422 -0.5783
19301TIP3    H279319   3.011   1.448   5.149  1.0822 -0.8624  0.0156
19302TIP3   OH279320   1.100   2.462  12.632 -0.4545  0.5213 -0.1717
19302TIP3    H179321   1.127   2.372  12.648  1.5504  1.2022  0.6174
19302TIP3    H279322   1.022   2.474  12.687 -1.0031 -0.8185 -0.6164
19303TIP3   OH279323   0.339   0.023  16.804 -0.0065 -0.2497  0.1614
19303TIP3    H179324   0.254  -0.006  16.772  0.0670  0.5736 -0.8107
19303TIP3    H279325   0.402  -0.011  16.740  0.6276 -2.3130  1.7405
19304TIP3   OH279326   3.368   4.374  15.763  0.1631 -0.0672 -0.2863
19304TIP3    H179327   3.303   4.421  15.709 -0.6600  0.4353  1.0980
19304TIP3    H279328   3.452   4.399  15.725 -0.3869  0.3875 -1.2562
19305TIP3   OH279329   3.178   5.073   6.808 -0.2923  0.0503 -0.2705
19305TIP3    H179330   3.153   4.998   6.862  0.4717  0.3003  0.4534
19305TIP3    H279331   3.195   5.035   6.722 -0.4661 -0.5201 -0.0648
19306TIP3   OH279332   2.068   5.549  12.489  0.1097  0.0439  0.0263
19306TIP3    H179333   2.164   5.550  12.495  0.0742 -0.5114  0.8216
19306TIP3    H279334   2.045   5.457  12.484 -0.5023 -0.0285  2.5880
19307TIP3   OH279335   1.835   5.484   2.314 -0.6873 -0.4691 -0.6033
19307TIP3    H179336   1.856   5.565   2.266 -0.9394 -1.7690 -3.0402
19307TIP3    H279337   1.816   5.420   2.246 -0.7185 -2.5581  1.2710
19308TIP3   OH279338   6.725   1.987   2.538 -0.1555 -0.8711 -0.4971
19308TIP3    H179339   6.726   1.933   2.617  1.5507 -0.4366 -0.1917
19308TIP3    H279340   6.789   2.056   2.555 -1.3694  0.5342 -1.3880
19309TIP3   OH279341   1.655   0.322   5.592  0.2083 -0.0260  0.4878
19309TIP3    H179342   1.707   0.397   5.620 -0.1179  1.1642 -1.7986
19309TIP3    H279343   1.719   0.254   5.571  0.6493  0.3322  0.6570
19310TIP3   OH279344   5.340   1.486   0.924 -0.4041 -0.1128 -0.3813
19310TIP3    H179345   5.380   1.489   1.011 -0.2768 -0.1232 -0.4388
19310TIP3    H279346   5.288   1.566   0.918  0.4739  0.4489 -0.7184
19311TIP3   OH279347   2.779   2.696  17.300  0.3672  0.0706  0.0697
19311TIP3    H179348   2.848   2.761  17.310  0.7683  0.2091 -2.6245
19311TIP3    H279349   2.729   2.701  17.381  2.6828  0.9286  1.5414
19312TIP3   OH279350   3.384   5.256   6.684  0.1803  0.3233  0.4647
19312TIP3    H179351   3.417   5.173   6.650 -1.0738 -0.2111  0.4936
19312TIP3    H279352   3.308   5.231   6.738 -1.3387  1.6029 -0.9676
19313TIP3   OH279353   3.083   6.713   0.567 -0.6978  0.9701 -0.2389
19313TIP3    H179354   3.038   6.695   0.650 -0.7790 -0.2540 -0.5279
19313TIP3    H279355   3.038   6.657   0.503  0.1192  1.0184 -0.8707
19314TIP3   OH279356   3.746   4.558   2.826 -0.0792 -0.3374  0.4752
19314TIP3    H179357   3.831   4.515   2.835 -0.8659 -2.4307 -1.1478
19314TIP3    H279358   3.753   4.610   2.746  0.2161  1.0007  1.3388
19315TIP3   OH279359   2.032   0.978   0.985  0.1845 -0.2658 -0.4612
19315TIP3    H179360   1.994   1.046   0.928  1.8593  0.5062 -0.7223
19315TIP3    H279361   2.112   0.952   0.939 -0.7860 -3.0146 -0.7530
19316TIP3   OH279362   4.277   0.740   4.636  0.5202 -0.1032  0.1252
19316TIP3    H179363   4.276   0.694   4.720 -0.3326  1.1882  0.8604
19316TIP3    H279364   4.189   0.731   4.601  0.2246  1.2088  0.4546
19317TIP3   OH279365   3.595   4.720   6.336 -0.2721 -0.1208 -0.0599
19317TIP3    H179366   3.594   4.626   6.349 -0.8801 -0.1288 -0.1688
19317TIP3    H279367   3.529   4.754   6.396  1.0439  0.4064  1.1750
19318TIP3   OH279368   0.647   1.379   2.206  0.5272  0.2136  0.0713
19318TIP3    H179369   0.567   1.329   2.223  0.6349  0.1478  0.3881
19318TIP3    H279370   0.692   1.328   2.138  0.3124  0.2393 -0.0922
19319TIP3   OH279371   2.875   0.618  13.130 -0.1664 -0.4079  0.4190
19319TIP3    H179372   2.874   0.683  13.060 -0.5061  0.6409  1.3715
19319TIP3    H279373   2.810   0.553  13.103 -2.0109  1.1698  0.8001
19320TIP3   OH279374   3.829   6.160  13.946 -0.3189  0.9897  0.3141
19320TIP3    H179375   3.779   6.081  13.926 -1.2858  2.0281 -1.6708
19320TIP3    H279376   3.875   6.140  14.027 -1.3259 -1.2295  0.3946
19321TIP3   OH279377   2.724   0.025  11.769 -0.1599  0.5417 -0.1910
19321TIP3    H179378   2.746   0.079  11.846  0.0245 -0.2475  0.3240
19321TIP3    H279379   2.629   0.023  11.768 -0.1724  1.0240 -0.3202
19322TIP3   OH279380   4.208   3.095   1.433 -0.2704 -0.0996  0.3528
19322TIP3    H179381   4.121   3.083   1.473 -0.8619  0.8215 -0.6035
19322TIP3    H279382   4.206   3.040   1.355  0.5427 -1.1781  1.0791
19323TIP3   OH279383   0.741   0.079   2.859 -0.1013  0.4263 -0.0614
19323TIP3    H179384   0.831   0.048   2.860 -0.1718 -0.1869 -3.2718
19323TIP3    H279385   0.745   0.166   2.820 -0.7991  0.9027  0.8829
19324TIP3   OH279386   0.104   3.301  11.459  0.1200 -0.7631 -0.4424
19324TIP3    H179387   0.100   3.361  11.533 -0.5226 -1.1817 -0.1230
19324TIP3    H279388   0.122   3.215  11.499  2.7571 -0.5733 -1.0167
19325TIP3   OH279389   4.166   5.975  15.135 -0.3614 -0.4082 -0.3237
19325TIP3    H179390   4.138   5.968  15.226  0.0845  2.8501  0.1932
19325TIP3    H279391   4.253   5.934  15.133 -0.1780 -0.1227  0.8687
19326TIP3   OH279392   5.841   4.495  11.308 -0.0512 -0.4366  0.1874
19326TIP3    H179393   5.872   4.460  11.224  1.3979 -1.4192  1.0736
19326TIP3    H279394   5.894   4.450  11.374 -1.2147  0.2316  1.6546
19327TIP3   OH279395   5.351   2.970  16.889  0.1449 -0.1858 -0.5676
19327TIP3    H179396   5.372   2.948  16.980 -1.8877 -0.5663 -0.1368
19327TIP3    H279397   5.255   2.981  16.889  0.2152  0.8238 -2.4526
19328TIP3   OH279398   2.448   0.633  15.227 -0.2040 -0.2425  0.3422
19328TIP3    H179399   2.541   0.653  15.234 -0.5139  1.1499  0.8725
19328TIP3    H279400   2.445   0.549  15.181  1.4371 -2.0809  3.2797
19329TIP3   OH279401   6.394   4.188  11.678  0.3115 -0.1324 -0.2773
19329TIP3    H179402   6.381   4.097  11.705  0.8108  0.0806  0.7207
19329TIP3    H279403   6.458   4.182  11.607  0.3713 -0.5656 -0.1932
19330TIP3   OH279404   5.366   4.414   6.514  0.1746  0.5819  0.1854
19330TIP3    H179405   5.334   4.399   6.604  0.9883  0.1746  0.4224
19330TIP3    H279406   5.342   4.334   6.467  0.5212  0.4233  0.2733
19331TIP3   OH279407   2.073   0.580   1.380  0.1189 -0.3254  0.2942
19331TIP3    H179408   2.124   0.584   1.299  0.2832 -0.0005  0.4091
19331TIP3    H279409   2.015   0.657   1.376 -0.5260 -0.8119  0.0605
19332TIP3   OH279410   4.698   2.212  12.800 -0.1891 -0.0499 -0.5925
19332TIP3    H179411   4.777   2.162  12.822 -0.7854 -0.9039 -0.3655
19332TIP3    H279412   4.681   2.190  12.708 -0.5879 -0.4639 -0.4236
19333TIP3   OH279413   0.830   3.687   0.087  0.2140 -0.0422 -0.0879
19333TIP3    H179414   0.858   3.688   0.178  1.8593  0.2570 -0.5634
19333TIP3    H279415   0.838   3.778   0.058 -3.1116  0.4627  0.2194
19334TIP3   OH279416   0.818   2.638  12.124  0.0506  0.2054 -0.2157
19334TIP3    H179417   0.752   2.620  12.191  1.2194 -4.0702  0.0651
19334TIP3    H279418   0.768   2.637  12.042 -0.7348  0.8805  0.2345
19335TIP3   OH279419   0.877   2.541   0.290  0.1594 -0.6937 -0.2425
19335TIP3    H179420   0.866   2.635   0.278 -1.3711 -1.0370 -1.8454
19335TIP3    H279421   0.845   2.502   0.209  0.8264 -2.6121  0.3590
19336TIP3   OH279422   4.900   5.190   5.089 -0.3696  0.0361 -0.3185
19336TIP3    H179423   4.837   5.256   5.061  0.3777  0.3935 -1.2150
19336TIP3    H279424   4.930   5.149   5.007 -0.3834 -1.0033  0.1784
19337TIP3   OH279425   0.977   3.483  16.873  0.3810 -0.4431  0.3826
19337TIP3    H179426   1.024   3.425  16.933  1.0639 -0.6582 -0.3346
19337TIP3    H279427   1.047   3.533  16.828 -0.1711  0.6459  0.6931
19338TIP3   OH279428   4.628   1.041   1.062  0.2583  0.0141  0.6718
19338TIP3    H179429   4.667   1.029   1.148  1.0329  1.5452  0.5604
19338TIP3    H279430   4.559   0.974   1.057 -1.5775  1.5238  3.4866
19339TIP3   OH279431   1.564   3.464  12.811  0.1957  0.5326  0.4760
19339TIP3    H179432   1.648   3.438  12.848 -0.0089  0.0622  0.6169
19339TIP3    H279433   1.504   3.466  12.886 -0.3383 -0.9152  0.1267
19340TIP3   OH279434   4.985   5.640  15.917 -0.0154  0.1721  0.4147
19340TIP3    H179435   4.932   5.685  15.851  1.3409  1.2874  0.0321
19340TIP3    H279436   4.941   5.658  16.000 -0.0892  1.3300  0.1401
19341TIP3   OH279437   4.544   3.695  11.551 -0.0916  0.0377  0.2824
19341TIP3    H179438   4.489   3.720  11.625 -0.9353 -2.2227  0.5066
19341TIP3    H279439   4.609   3.636  11.589  1.0013  0.7537 -0.4066
19342TIP3   OH279440   3.798   1.742  13.678  0.1995 -0.0094  0.5188
19342TIP3    H179441   3.892   1.760  13.669  0.5278 -0.5482  2.4537
19342TIP3    H279442   3.756   1.813  13.629  1.5837 -1.4968 -3.1580
19343TIP3   OH279443   3.897   2.576  14.328 -0.3050 -0.3447 -0.1208
19343TIP3    H179444   3.849   2.503  14.291 -2.0096  0.3867  0.5347
19343TIP3    H279445   3.915   2.550  14.419 -0.9411  0.0431  0.1225
19344TIP3   OH279446   4.743   1.925  12.698 -0.2108 -0.1490 -0.0957
19344TIP3    H179447   4.834   1.927  12.666  0.0471 -0.7967  0.5703
19344TIP3    H279448   4.692   1.902  12.621  0.2712 -0.4892 -0.3197
19345TIP3   OH279449   6.289   5.001  14.778  0.4735  0.2659 -0.2416
19345TIP3    H179450   6.242   4.975  14.857 -1.1278  1.7743 -0.6682
19345TIP3    H279451   6.368   5.044  14.811  0.6916 -0.6546  0.4957
19346TIP3   OH279452   4.820   1.276  15.667 -0.5338  0.2916 -0.2662
19346TIP3    H179453   4.913   1.298  15.664  0.0680 -1.7596  0.9330
19346TIP3    H279454   4.796   1.283  15.760 -1.4774  0.3736 -0.5013
19347TIP3   OH279455   0.444   6.384  14.567 -0.6741  0.4604 -0.1511
19347TIP3    H179456   0.355   6.394  14.533 -0.6297 -0.1274 -0.4463
19347TIP3    H279457   0.443   6.300  14.613 -0.8986  1.5104  1.8700
19348TIP3   OH279458   3.711   3.979  10.714  0.0168 -0.2768  0.0788
19348TIP3    H179459   3.770   4.005  10.643  1.3426 -1.1650  0.8129
19348TIP3    H279460   3.623   3.998  10.680  0.4671 -2.1186 -2.4452
19349TIP3   OH279461   3.098   3.291   5.836  0.5219 -0.0271  0.1141
19349TIP3    H179462   3.071   3.199   5.833  1.2357 -0.2177 -0.9778
19349TIP3    H279463   3.187   3.291   5.802 -0.9585  1.5751 -4.6901
19350TIP3   OH279464   3.877   2.526   2.032  0.4540 -0.2530 -0.0915
19350TIP3    H179465   3.798   2.580   2.035  1.5688  1.3776  1.0287
19350TIP3    H279466   3.902   2.514   2.124  2.2218  0.3794 -0.4491
19351TIP3   OH279467   0.116   0.593  16.502 -0.4600 -0.2885  0.0083
19351TIP3    H179468   0.032   0.562  16.467  0.1741 -1.5551 -0.4554
19351TIP3    H279469   0.119   0.558  16.591 -1.5586  1.9745  1.0186
19352TIP3   OH279470   1.250   4.101   5.257 -0.1722  0.0646 -0.4289
19352TIP3    H179471   1.276   4.039   5.325 -0.3245  0.0028 -0.4258
19352TIP3    H279472   1.332   4.131   5.219 -0.0785  0.1938 -0.1336
19353TIP3   OH279473   2.258   4.283   1.484  0.4231 -0.3401 -1.0386
19353TIP3    H179474   2.185   4.242   1.435 -1.0722  0.6065  0.2965
19353TIP3    H279475   2.249   4.248   1.572  0.2761  1.3838 -0.3370
19354TIP3   OH279476   2.483   3.968  12.790  0.0273 -0.6568  0.2779
19354TIP3    H179477   2.526   3.984  12.874 -1.6863  3.6190  0.6035
19354TIP3    H279478   2.424   3.894  12.807 -0.1566 -0.0248  2.8637
19355TIP3   OH279479   4.988   1.978  12.578  0.3079 -0.0677 -0.1391
19355TIP3    H179480   4.950   1.930  12.505  1.0259  0.6264 -0.9915
19355TIP3    H279481   5.081   1.958  12.574  0.3582 -0.0004  0.5792
19356TIP3   OH279482   1.452   0.667   0.825  0.2867 -0.4468 -0.6920
19356TIP3    H179483   1.382   0.707   0.774  0.7273 -0.6968 -1.5158
19356TIP3    H279484   1.516   0.638   0.760  1.3552  0.1444  0.0589
19357TIP3   OH279485   5.067   1.912  14.674  0.4288 -0.1992  0.0278
19357TIP3    H179486   5.161   1.896  14.688  0.3756  0.1661  0.8944
19357TIP3    H279487   5.024   1.832  14.704  0.3777  0.2133  1.0983
19358TIP3   OH279488   4.148   2.496  13.048  0.7874  0.2438 -0.2094
19358TIP3    H179489   4.184   2.491  13.136  2.1841 -0.0015 -0.7667
19358TIP3    H279490   4.122   2.406  13.028  0.6171  0.2699 -0.1048
19359TIP3   OH279491   3.373   0.408   6.478  0.5350  0.2835  0.1038
19359TIP3    H179492   3.336   0.335   6.528  0.8085  0.1739  0.1504
19359TIP3    H279493   3.300   0.469   6.467  0.0146 -0.4956 -0.8775
19360TIP3   OH279494   0.651   3.545   2.987  0.8992 -0.1325  0.0673
19360TIP3    H179495   0.652   3.485   2.912  1.3126 -0.4043  0.2831
19360TIP3    H279496   0.593   3.616   2.961 -0.9104 -1.4092  0.4177
19361TIP3   OH279497   1.692   6.569  13.595  0.1496  0.3826  0.6029
19361TIP3    H179498   1.788   6.566  13.589  0.0229 -0.8106 -1.5345
19361TIP3    H279499   1.676   6.619  13.675  2.5479  0.4800  1.1218
19362TIP3   OH279500   3.359   4.967   2.253  0.0144  0.0453  0.4979
19362TIP3    H179501   3.272   4.929   2.250  0.9465 -2.7276  3.1413
19362TIP3    H279502   3.408   4.923   2.184  0.5718 -2.3733  2.3166
19363TIP3   OH279503   3.629   5.367  16.214  0.3845 -0.1971  0.1371
19363TIP3    H179504   3.565   5.296  16.213  0.1615 -0.1082  2.6137
19363TIP3    H279505   3.713   5.324  16.193  0.3019 -1.2894  1.8744
19364TIP3   OH279506   3.429   0.412   6.219 -0.6398  0.1073  0.6764
19364TIP3    H179507   3.405   0.400   6.311  0.6112 -0.8926  0.8976
19364TIP3    H279508   3.518   0.377   6.212 -0.5771  0.4816 -0.8458
19365TIP3   OH279509   0.794   1.574  12.680 -0.1320 -0.4694 -0.3378
19365TIP3    H179510   0.796   1.570  12.585 -1.3675 -1.1770 -0.3597
19365TIP3    H279511   0.719   1.519  12.705 -0.6743  0.7992  0.9746
19366TIP3   OH279512   2.556   2.245   6.909  0.1888 -0.2664  0.1321
19366TIP3    H179513   2.528   2.169   6.858  1.0693 -0.5009 -0.0099
19366TIP3    H279514   2.529   2.224   6.999  0.0692 -0.5695  0.0265
19367TIP3   OH279515   4.771   3.481  17.319 -0.0724 -0.0458 -0.0963
19367TIP3    H179516   4.790   3.388  17.331  2.9865  0.5460  0.6349
19367TIP3    H279517   4.783   3.519  17.406 -0.5789  1.1269 -0.5190
19368TIP3   OH279518   3.472   4.050   5.442 -0.1653 -0.7486  0.4750
19368TIP3    H179519   3.444   3.967   5.404 -2.1643 -0.5967  1.4655
19368TIP3    H279520   3.461   4.114   5.372 -3.6924 -0.4844  1.0845
19369TIP3   OH279521   0.404   1.607   4.172  0.5209  0.2007 -0.2301
19369TIP3    H179522   0.313   1.631   4.191 -0.0104 -2.4738  1.1502
19369TIP3    H279523   0.406   1.593   4.077 -0.5088  0.2861 -0.2785
19370TIP3   OH279524   4.947   5.698   4.982 -0.0554 -0.4411 -0.0499
19370TIP3    H179525   4.963   5.716   5.075  1.5700 -0.5724 -0.2721
19370TIP3    H279526   4.924   5.783   4.946 -1.1792 -0.4731  0.5486
19371TIP3   OH279527   1.314   3.372  11.290  0.4149  0.3635  0.2558
19371TIP3    H179528   1.312   3.280  11.265 -0.6007  0.5348 -0.3839
19371TIP3    H279529   1.365   3.415  11.222  1.2743  0.2274  0.7930
19372TIP3   OH279530   2.082   5.827  16.174 -0.4415 -0.2135  0.0269
19372TIP3    H179531   2.049   5.826  16.264  0.0369  0.1582  0.2069
19372TIP3    H279532   2.096   5.734  16.153  0.6159 -0.2373  0.7707
19373TIP3   OH279533   2.131   2.051  15.590 -0.0748 -0.6742 -0.2531
19373TIP3    H179534   2.162   1.979  15.535  0.5083  0.8913 -2.0993
19373TIP3    H279535   2.061   2.012  15.643  0.7125 -2.7506 -0.6197
19374TIP3   OH279536   3.394   0.577   2.728  0.5065  0.1613 -0.8469
19374TIP3    H179537   3.312   0.540   2.761  1.3703 -0.0178  1.2211
19374TIP3    H279538   3.431   0.509   2.673 -1.2185  0.6533 -2.7295
19375TIP3   OH279539   5.714   1.875   5.673 -0.1490 -0.7691  0.8501
19375TIP3    H179540   5.667   1.957   5.658 -0.3814 -1.0638 -0.1228
19375TIP3    H279541   5.690   1.850   5.763 -0.3630  0.0301  1.0258
19376TIP3   OH279542   2.238   5.870   1.036  0.5479  0.5406 -0.3823
19376TIP3    H179543   2.245   5.865   0.941  1.4836  0.0373 -0.2981
19376TIP3    H279544   2.218   5.781   1.064 -0.6743  0.8613 -0.1607
19377TIP3   OH279545   4.454   2.541   5.329  0.4781  0.2765  0.0711
19377TIP3    H179546   4.545   2.543   5.358  0.9073 -0.9377 -1.0997
19377TIP3    H279547   4.445   2.619   5.274  0.4221  1.0972  1.2041
19378TIP3   OH279548   0.598   2.441  15.879 -0.8097 -0.4658  0.0683
19378TIP3    H179549   0.662   2.511  15.876  1.1561 -2.1887  0.0350
19378TIP3    H279550   0.571   2.430  15.788  0.9624 -1.5355 -0.3719
19379TIP3   OH279551   5.688   6.687  15.406  0.3521  0.2637 -0.1634
19379TIP3    H179552   5.646   6.741  15.340  1.4106  1.6818  0.2585
19379TIP3    H279553   5.638   6.704  15.486  0.3240  0.1513 -0.1572
19380TIP3   OH279554   0.521   0.787  17.024  0.6213 -1.2058 -0.4875
19380TIP3    H179555   0.470   0.706  17.032 -0.9318 -0.1332  1.1556
19380TIP3    H279556   0.468   0.842  16.967  0.8283 -0.7210 -0.2144
19381TIP3   OH279557   3.389   2.010  16.527 -0.0326 -0.5679 -0.1131
19381TIP3    H179558   3.434   1.962  16.596  0.8864  0.9008  0.3295
19381TIP3    H279559   3.331   1.945  16.487 -2.0551 -1.0640  3.2571
19382TIP3   OH279560   6.437   2.839   3.733 -0.1214 -0.4135  0.4259
19382TIP3    H179561   6.476   2.844   3.645 -3.5845  0.0462 -1.2845
19382TIP3    H279562   6.455   2.925   3.772 -1.3475  0.6876 -1.2677
19383TIP3   OH279563   4.035   0.337   5.655  0.1029 -0.0879 -0.8041
19383TIP3    H179564   4.006   0.393   5.727  1.0381 -1.7592  0.9500
19383TIP3    H279565   3.979   0.260   5.662 -2.0397  0.9614 -3.9632
19384TIP3   OH279566   4.030   3.241  11.654 -0.1454  0.2261  0.2111
19384TIP3    H179567   3.947   3.223  11.698 -0.4055  0.8945  0.0029
19384TIP3    H279568   4.027   3.188  11.574  0.1700 -0.7075  0.8125
19385TIP3   OH279569   2.133   3.586  15.556  0.7787  0.1362  0.0558
19385TIP3    H179570   2.218   3.610  15.520  0.5648 -0.3131 -0.7621
19385TIP3    H279571   2.079   3.664  15.545  0.7716  0.0649 -0.4216
19386TIP3   OH279572   0.645   4.194   4.165  0.6083 -0.1057 -0.5145
19386TIP3    H179573   0.633   4.264   4.101  0.4309  1.5118  1.2297
19386TIP3    H279574   0.727   4.215   4.209  0.5193 -0.9723  0.0937
19387TIP3   OH279575   1.500   2.477  13.528  0.0551  0.2565  0.3346
19387TIP3    H179576   1.443   2.440  13.460  0.7675  0.9125 -0.6392
19387TIP3    H279577   1.449   2.549  13.565  1.3631  3.0456 -2.7929
19388TIP3   OH279578   1.093   6.006   5.248  0.1911 -0.4543  0.2537
19388TIP3    H179579   1.180   5.992   5.286  1.3076 -0.0083 -1.9759
19388TIP3    H279580   1.059   5.918   5.233  1.7442 -0.7629 -1.9235
19389TIP3   OH279581   5.889   5.968  12.314 -0.2849  0.2052 -0.3264
19389TIP3    H179582   5.952   5.904  12.347  0.8836  2.0914  1.3503
19389TIP3    H279583   5.830   5.918  12.258  0.5154 -2.3136  0.9615
19390TIP3   OH279584   2.597   4.371  14.586 -0.0482 -0.1623  0.1621
19390TIP3    H179585   2.563   4.417  14.509 -0.1828 -0.0910  0.2634
19390TIP3    H279586   2.688   4.399  14.593  0.2664 -0.9677 -0.5772
19391TIP3   OH279587   3.005   6.593   1.717 -0.2705 -0.3356 -0.2998
19391TIP3    H179588   2.983   6.597   1.624  0.5053  0.0622 -0.4701
19391TIP3    H279589   3.028   6.683   1.741  1.5345 -0.7691 -0.2405
19392TIP3   OH279590   4.454   4.127   4.155  0.1245  0.2604 -0.1972
19392TIP3    H179591   4.468   4.095   4.244 -1.1094 -3.9002 -1.2789
19392TIP3    H279592   4.385   4.192   4.163  0.1962  0.1284  1.9052
19393TIP3   OH279593   0.078   4.753   0.298 -0.6530  0.2986  0.4154
19393TIP3    H179594   0.039   4.686   0.355  1.0500  0.0120  1.2971
19393TIP3    H279595   0.097   4.826   0.356  3.4306 -0.9208  0.9135
19394TIP3   OH279596   3.732   0.769   6.604 -0.4189 -0.5496  0.0013
19394TIP3    H179597   3.664   0.796   6.542 -0.4381 -0.9309 -0.1523
19394TIP3    H279598   3.705   0.681   6.630 -0.8386 -0.0890  1.1595
19395TIP3   OH279599   0.596   3.640  16.753 -0.4841 -0.0021 -0.1056
19395TIP3    H179600   0.537   3.666  16.824  1.3349  0.6257  1.2332
19395TIP3    H279601   0.633   3.556  16.782  0.9380  0.6871  0.1442
19396TIP3   OH279602   0.286   5.895  13.353 -0.5813 -0.4685 -0.5598
19396TIP3    H179603   0.296   5.855  13.266  1.3765 -1.0144 -0.1131
19396TIP3    H279604   0.302   5.824  13.414 -0.5341  0.2420  0.2684
19397TIP3   OH279605   6.109   6.237   0.157  0.5064  0.0435 -0.2973
19397TIP3    H179606   6.060   6.157   0.135  0.7615 -0.2677  0.2405
19397TIP3    H279607   6.057   6.278   0.226  0.9971 -0.2956  0.2864
19398TIP3   OH279608   2.599   0.877   1.118 -0.7485 -0.3594 -0.1114
19398TIP3    H179609   2.576   0.800   1.066 -1.4886 -1.1814  1.3666
19398TIP3    H279610   2.554   0.950   1.073  0.6329 -0.5886 -2.0015
19399TIP3   OH279611   3.665   2.260  11.939 -0.1480  0.4686  0.1285
19399TIP3    H179612   3.667   2.225  12.028 -2.1363  0.3742  0.1726
19399TIP3    H279613   3.682   2.354  11.950 -1.0723  0.5787  0.7020
19400TIP3   OH279614   0.668   2.696  15.860  0.3642 -0.3614 -0.0352
19400TIP3    H179615   0.718   2.742  15.793  0.1440 -0.4254 -0.2454
19400TIP3    H279616   0.592   2.751  15.876  1.3459  0.6082  1.5336
19401TIP3   OH279617   5.154   3.339   2.286  0.1143  0.1126  0.0203
19401TIP3    H179618   5.112   3.256   2.263  1.4898 -0.5475 -0.2568
19401TIP3    H279619   5.232   3.342   2.230 -0.7980  2.4509 -1.2561
19402TIP3   OH279620   5.447   4.195  11.788 -0.7461  0.2833 -0.0230
19402TIP3    H179621   5.428   4.283  11.754 -2.4319 -0.4116 -0.9673
19402TIP3    H279622   5.364   4.148  11.781  0.4949 -1.8795 -1.0103
19403TIP3   OH279623   2.946   5.767  12.210 -0.0258  0.6360  0.1887
19403TIP3    H179624   2.987   5.853  12.201  1.2376  0.0697  0.4013
19403TIP3    H279625   2.877   5.766  12.144 -1.0403  2.3660  1.1474
19404TIP3   OH279626   1.523   4.567  10.814 -0.4547 -0.0019 -0.4689
19404TIP3    H179627   1.450   4.508  10.795 -1.3598  1.6172 -2.3109
19404TIP3    H279628   1.598   4.508  10.826 -1.4382 -1.5611 -1.5749
19405TIP3   OH279629   5.407   1.671  14.968 -0.4703 -0.3223  0.2274
19405TIP3    H179630   5.487   1.720  14.982 -0.7995 -0.4456  3.1067
19405TIP3    H279631   5.337   1.730  14.996 -1.2553 -0.8678 -0.5057
19406TIP3   OH279632   2.228   1.518  11.192 -0.0303  0.3468 -0.2179
19406TIP3    H179633   2.160   1.495  11.255  0.1077  1.6035  0.4126
19406TIP3    H279634   2.185   1.507  11.106 -0.8630  0.6184  0.1497
19407TIP3   OH279635   4.791   2.090  12.241 -0.7809 -0.4888  0.8570
19407TIP3    H179636   4.881   2.109  12.213 -0.7214 -1.9348 -0.0071
19407TIP3    H279637   4.751   2.176  12.252  1.2542  0.2859  3.1712
19408TIP3   OH279638   2.861   4.398   3.625  0.2454  0.0819 -0.3420
19408TIP3    H179639   2.799   4.469   3.643  3.1708  2.9139 -0.5314
19408TIP3    H279640   2.912   4.390   3.705  1.7532  0.1947 -1.2473
19409TIP3   OH279641   5.378   2.949   2.822 -0.4023  0.2913  0.4496
19409TIP3    H179642   5.441   3.014   2.853 -0.7794  1.5662 -1.2589
19409TIP3    H279643   5.297   2.970   2.869 -0.2932  0.5047  0.5444
19410TIP3   OH279644   6.229   3.869  16.763  0.0805  0.6069 -0.3072
19410TIP3    H179645   6.137   3.892  16.751 -0.1726 -1.2653 -2.4198
19410TIP3    H279646   6.240   3.785  16.719  2.7457  0.6072  0.1562
19411TIP3   OH279647   5.666   5.034  12.553 -0.5443  0.3247  0.1528
19411TIP3    H179648   5.649   5.128  12.560  0.7710  0.7429 -1.4386
19411TIP3    H279649   5.745   5.020  12.605 -0.0877  0.3539 -0.5075
19412TIP3   OH279650   4.866   0.084   5.554 -0.0236  0.3148  0.0699
19412TIP3    H179651   4.935   0.018   5.552  0.0532  0.4068 -0.3832
19412TIP3    H279652   4.865   0.120   5.466 -0.1527  0.8301  0.2810
19413TIP3   OH279653   2.884   4.672   2.262  0.3724  0.3304 -0.2558
19413TIP3    H179654   2.816   4.707   2.204  0.2963 -0.3354 -0.5815
19413TIP3    H279655   2.858   4.699   2.350 -0.7160 -0.5346 -0.2945
19414TIP3   OH279656   5.654   4.443  11.648 -0.6683  0.0625 -0.3158
19414TIP3    H179657   5.638   4.522  11.597 -0.3505  0.6222  0.4330
19414TIP3    H279658   5.567   4.417  11.679 -0.6472  0.8571  0.4795
19415TIP3   OH279659   5.432   1.192   4.021 -0.1841  0.1850 -0.0258
19415TIP3    H179660   5.357   1.171   3.965  0.1517  0.3717 -0.5571
19415TIP3    H279661   5.413   1.279   4.056 -0.3346  0.1232  0.0464
19416TIP3   OH279662   0.273   5.440   0.180  0.3742  0.1735  0.0311
19416TIP3    H179663   0.219   5.371   0.220 -0.0674 -0.0308 -0.8950
19416TIP3    H279664   0.326   5.473   0.252 -0.7191  0.1156  0.8960
19417TIP3   OH279665   0.615   1.659  12.916 -0.3192 -0.1240  0.5431
19417TIP3    H179666   0.673   1.600  12.964  2.1459  0.5436 -1.4296
19417TIP3    H279667   0.565   1.602  12.858 -1.2612 -0.6386  1.8051
19418TIP3   OH279668   5.217   2.894  13.250 -0.9232  0.1809 -0.0473
19418TIP3    H179669   5.285   2.862  13.190 -0.7296  0.7517 -0.1414
19418TIP3    H279670   5.229   2.989  13.250 -0.3698  0.1495  1.5506
19419TIP3   OH279671   2.358   0.542   3.636  0.0719 -0.0832  0.1132
19419TIP3    H179672   2.303   0.505   3.705 -1.2827  0.9407 -0.3501
19419TIP3    H279673   2.352   0.637   3.650  2.1118  0.0543  0.3021
19420TIP3   OH279674   2.818   1.629  15.491 -0.2649 -0.4620  0.3505
19420TIP3    H179675   2.767   1.666  15.563 -0.7650 -1.7524  0.6975
19420TIP3    H279676   2.768   1.649  15.412  0.6426  1.5964  0.2212
19421TIP3   OH279677   3.342   5.032   3.983  0.2593  0.0151 -0.3563
19421TIP3    H179678   3.405   5.097   3.951  0.1317  0.1291 -0.3772
19421TIP3    H279679   3.256   5.073   3.970  0.2621  0.7608  1.6922
19422TIP3   OH279680   1.532   2.917  12.813 -0.2929  0.0233 -0.2080
19422TIP3    H179681   1.487   2.867  12.880 -0.6112  1.6699  0.8593
19422TIP3    H279682   1.554   3.000  12.855  1.0430  0.4383 -1.6211
19423TIP3   OH279683   1.413   2.982  13.876 -0.1013  0.3378  0.3243
19423TIP3    H179684   1.417   2.887  13.865 -0.6075  0.4176 -0.6853
19423TIP3    H279685   1.457   2.999  13.959  2.0858 -0.5516 -0.5776
19424TIP3   OH279686   1.054   1.094  13.348 -0.5394  0.3134 -0.2523
19424TIP3    H179687   1.058   1.190  13.345 -2.6876  0.4494 -0.3239
19424TIP3    H279688   0.967   1.075  13.382  0.1433 -1.6374  0.5518
19425TIP3   OH279689   0.958   0.897  12.163  0.1371 -0.4538  0.0724
19425TIP3    H179690   0.886   0.840  12.137 -0.3960  0.0843  0.3361
19425TIP3    H279691   0.948   0.907  12.258  0.7422 -0.6202  0.1579
19426TIP3   OH279692   5.810   2.644   6.356  0.0613 -0.0827 -0.7253
19426TIP3    H179693   5.735   2.635   6.415  1.9606  1.3248  2.1038
19426TIP3    H279694   5.879   2.592   6.397  1.0934 -0.2099 -2.5145
19427TIP3   OH279695   6.625   6.145   1.645 -0.5146 -0.4430 -0.2607
19427TIP3    H179696   6.717   6.123   1.659 -0.5979 -1.9562 -1.8645
19427TIP3    H279697   6.617   6.235   1.677  1.6271 -0.1011 -0.5636
19428TIP3   OH279698   3.696   2.837   0.372  0.1825  0.2449  0.3127
19428TIP3    H179699   3.728   2.926   0.359 -0.6844  0.5926  0.4892
19428TIP3    H279700   3.609   2.848   0.410 -0.4824 -0.6531 -0.8783
19429TIP3   OH279701   3.923   3.124   4.821 -0.3232 -0.6427  0.2814
19429TIP3    H179702   3.990   3.188   4.798 -1.4875  1.4771  2.3723
19429TIP3    H279703   3.860   3.130   4.749 -0.8906  1.3655  0.8704
19430TIP3   OH279704   4.034   4.059   2.612 -0.4405  0.5436  0.0536
19430TIP3    H179705   4.071   4.101   2.689 -0.2960  1.3264 -0.4277
19430TIP3    H279706   4.096   4.079   2.542 -1.4278  1.3561 -0.6353
19431TIP3   OH279707   4.621   3.938   5.729  0.1837 -0.6018  0.0840
19431TIP3    H179708   4.616   3.954   5.823  1.2966 -0.8669  0.1977
19431TIP3    H279709   4.684   3.867   5.720  0.6189 -0.1095 -0.9055
19432TIP3   OH279710   5.764   2.671  11.948  0.5975  0.1404  0.3251
19432TIP3    H179711   5.761   2.576  11.932  1.6951  0.3768 -1.5704
19432TIP3    H279712   5.746   2.680  12.042 -0.1719 -1.8896  0.4214
19433TIP3   OH279713   4.419   4.003  10.839 -0.6790 -0.9353 -0.2013
19433TIP3    H179714   4.405   4.098  10.841 -0.8896 -0.9728  0.6190
19433TIP3    H279715   4.498   3.991  10.787 -0.4775 -0.2847 -0.0566
19434TIP3   OH279716   1.937   0.185   6.226  0.6635 -0.0778 -0.0917
19434TIP3    H179717   1.870   0.253   6.237  0.4610 -0.2293 -0.3823
19434TIP3    H279718   1.921   0.124   6.298  0.9416  0.2604  0.2595
19435TIP3   OH279719   2.004   5.108   2.367  0.4509  0.4926  0.2404
19435TIP3    H179720   2.025   5.182   2.424 -1.3179  0.2565  1.2816
19435TIP3    H279721   1.966   5.043   2.427 -1.5574  0.2556 -1.1921
19436TIP3   OH279722   4.544   5.994  15.561 -0.7057 -0.2607 -0.0759
19436TIP3    H179723   4.486   6.059  15.522 -1.1182 -0.7427 -0.2704
19436TIP3    H279724   4.515   5.911  15.525  0.1539 -0.5040 -0.2405
19437TIP3   OH279725   2.806   5.581   5.039 -1.0597  0.8381 -0.6776
19437TIP3    H179726   2.791   5.672   5.064 -0.3806  0.6979  0.2610
19437TIP3    H279727   2.755   5.530   5.102 -0.5382  0.5272 -0.5090
19438TIP3   OH279728   2.329   0.320  15.830  0.3034 -0.6853  0.4512
19438TIP3    H179729   2.350   0.342  15.739 -0.0264 -1.5378  0.1611
19438TIP3    H279730   2.407   0.277  15.864  0.9652  0.9057  1.0327
19439TIP3   OH279731   5.373   0.785  14.209  0.1001  0.0008  0.3047
19439TIP3    H179732   5.376   0.722  14.137  0.3592 -0.0079  0.3245
19439TIP3    H279733   5.329   0.861  14.172  0.9468  0.3028 -0.0997
19440TIP3   OH279734   1.438   4.270  16.678  0.0644  0.7099 -0.6486
19440TIP3    H179735   1.424   4.361  16.705 -2.8110  0.5917 -1.4189
19440TIP3    H279736   1.403   4.265  16.589  0.8019 -1.0153 -0.8852
19441TIP3   OH279737   6.040   5.932   0.418  0.0684  0.2739 -0.4905
19441TIP3    H179738   6.054   5.857   0.359 -1.3365  0.3197 -0.9200
19441TIP3    H279739   5.953   5.964   0.395 -0.1215  0.8838  0.9869
19442TIP3   OH279740   1.701   4.892  11.509 -0.2353  0.7005 -0.6017
19442TIP3    H179741   1.753   4.830  11.458  2.3608  1.1319  1.3344
19442TIP3    H279742   1.626   4.841  11.540  0.7756 -0.9191 -0.7030
19443TIP3   OH279743   3.607   4.618  12.113 -0.2053 -0.6042  0.2288
19443TIP3    H179744   3.623   4.680  12.185 -0.7520 -0.0334 -0.1341
19443TIP3    H279745   3.668   4.644  12.045 -1.8088  0.8553 -0.7162
19444TIP3   OH279746   5.995   0.230   0.982  0.2429 -0.4038 -0.0550
19444TIP3    H179747   5.982   0.167   1.052 -0.2533  0.5197  0.7150
19444TIP3    H279748   6.084   0.214   0.951  0.4696 -0.8318  0.7876
19445TIP3   OH279749   4.593   3.383  11.740  0.3581 -0.0788  0.0689
19445TIP3    H179750   4.657   3.409  11.674  1.1385  0.2841  0.9414
19445TIP3    H279751   4.551   3.305  11.704  1.0025 -0.0861 -0.6964
19446TIP3   OH279752   2.191   0.177  13.544 -0.2975  0.0312  0.1543
19446TIP3    H179753   2.225   0.230  13.472 -0.7189 -0.7372 -0.6262
19446TIP3    H279754   2.097   0.194  13.543 -0.4258 -0.6548 -0.0500
19447TIP3   OH279755   5.584   2.580  13.836  0.0411 -0.1907  0.1981
19447TIP3    H179756   5.630   2.534  13.766  0.1972 -0.8485  0.7204
19447TIP3    H279757   5.553   2.510  13.894  1.5131  0.4062  1.7836
19448TIP3   OH279758   1.055   0.050   4.640  0.1590 -0.0916  0.3846
19448TIP3    H179759   1.117  -0.023   4.650  1.2162  0.6802 -0.2830
19448TIP3    H279760   1.111   0.128   4.634 -0.9540  0.8309  1.4212
19449TIP3   OH279761   2.186   1.414   4.459 -0.7742  0.3472 -0.6373
19449TIP3    H179762   2.240   1.343   4.425 -0.8544  0.8790 -1.9551
19449TIP3    H279763   2.123   1.432   4.389 -0.7507  1.7205 -0.3378
19450TIP3   OH279764   5.990   0.777   6.455  0.1031 -0.0977 -0.0729
19450TIP3    H179765   5.917   0.738   6.503 -0.0526  1.7118  1.2844
19450TIP3    H279766   5.947   0.830   6.387  0.1663  0.4135  0.2814
19451TIP3   OH279767   3.144   3.280   3.447  0.0777 -0.2011 -0.4814
19451TIP3    H179768   3.052   3.257   3.461  0.5045 -1.9246 -0.2960
19451TIP3    H279769   3.145   3.376   3.447 -1.4426 -0.1233  1.3984
19452TIP3   OH279770   0.539   6.259  16.582  0.3422 -0.2340  0.0522
19452TIP3    H179771   0.545   6.207  16.663  0.2850  0.0280  0.2248
19452TIP3    H279772   0.626   6.296  16.571  0.1635  0.2952  0.3731
19453TIP3   OH279773   6.496   3.255   0.793 -0.3238 -0.2624  0.0903
19453TIP3    H179774   6.496   3.311   0.871  0.2763 -1.6597  1.1375
19453TIP3    H279775   6.580   3.273   0.751 -0.8863  0.9159 -0.5848
19454TIP3   OH279776   0.806   1.015   3.468 -0.3593 -0.4529 -0.1572
19454TIP3    H179777   0.711   1.027   3.473 -0.5441 -1.4877 -0.9315
19454TIP3    H279778   0.829   0.975   3.552 -0.6467 -0.4399 -0.0708
19455TIP3   OH279779   3.772   2.027   1.538  0.4011 -0.0404 -0.0064
19455TIP3    H179780   3.747   1.935   1.527 -0.3617  0.2218 -0.5751
19455TIP3    H279781   3.742   2.070   1.458  1.8174  0.4923 -0.2753
19456TIP3   OH279782   0.688   0.521  15.016 -0.4878  0.3764 -0.1198
19456TIP3    H179783   0.778   0.492  15.030 -0.3137  0.8969 -0.1495
19456TIP3    H279784   0.635   0.445  15.038 -0.1162  0.4990  1.2965
19457TIP3   OH279785   3.062   5.228  12.979  0.0331 -0.1057  0.2377
19457TIP3    H179786   2.978   5.198  12.945 -0.3186  1.0367  0.0461
19457TIP3    H279787   3.094   5.156  13.033 -0.7092 -0.8499 -0.2939
19458TIP3   OH279788   3.578   2.185   1.042  0.1873  0.0905  0.6305
19458TIP3    H179789   3.589   2.122   0.970  0.3731  1.0826 -0.2284
19458TIP3    H279790   3.626   2.146   1.115  3.1018  0.6915 -0.8093
19459TIP3   OH279791   2.546   6.604   4.744  0.2324  0.5171  0.0559
19459TIP3    H179792   2.453   6.598   4.766  0.0277  0.9238 -0.6501
19459TIP3    H279793   2.574   6.687   4.782  0.6084 -0.1659  1.2946
19460TIP3   OH279794   1.992   1.085  12.992 -0.2776 -0.2951 -0.4219
19460TIP3    H179795   2.084   1.084  13.017 -0.4011  0.5799  0.1205
19460TIP3    H279796   1.977   1.174  12.959 -0.1588 -1.3253 -3.5732
19461TIP3   OH279797   0.400   0.433  14.838 -0.2641  0.3025  0.2708
19461TIP3    H179798   0.362   0.500  14.895  1.2819 -0.6379  2.5423
19461TIP3    H279799   0.468   0.392  14.891  2.7129  0.6493 -2.9022
19462TIP3   OH279800   6.156   1.948  15.526 -0.0063  0.3806 -0.4023
19462TIP3    H179801   6.072   1.902  15.529 -0.6633  1.6068  0.7225
19462TIP3    H279802   6.221   1.879  15.539 -0.8970 -0.4148 -0.0627
19463TIP3   OH279803   2.793   0.944   2.975 -0.0739  0.5269 -0.1943
19463TIP3    H179804   2.782   0.937   3.070 -0.2454  0.5177 -0.2141
19463TIP3    H279805   2.786   1.037   2.957 -2.6216  0.3631 -0.4918
19464TIP3   OH279806   1.292   3.789  12.988 -0.0491  0.4246 -0.1490
19464TIP3    H179807   1.387   3.776  12.991 -0.1515 -0.1852  1.6480
19464TIP3    H279808   1.277   3.840  12.908  1.9056  1.4841  0.0972
19465TIP3   OH279809   2.001   3.825   0.638 -0.0347  0.0747 -0.5800
19465TIP3    H179810   1.971   3.821   0.547 -1.2019 -0.5886 -0.1942
19465TIP3    H279811   2.015   3.918   0.655 -0.6413  0.2825 -1.1918
19466TIP3   OH279812   3.203   3.277   4.936 -0.0070 -0.2098 -0.0513
19466TIP3    H179813   3.215   3.322   4.852  0.5722  0.0878  0.1840
19466TIP3    H279814   3.290   3.242   4.956  0.2370  0.9875  1.1408
19467TIP3   OH279815   0.560   4.894   1.844  0.4987 -0.1118  0.1782
19467TIP3    H179816   0.473   4.857   1.858  0.7771 -0.9928 -0.3421
19467TIP3    H279817   0.553   4.985   1.873  0.0927 -0.8502  2.5413
19468TIP3   OH279818   5.747   1.093  14.308 -0.0317 -0.4187 -0.1571
19468TIP3    H179819   5.715   1.067  14.222 -0.1551 -1.9754  0.3303
19468TIP3    H279820   5.674   1.075  14.367 -0.0143  0.8024  0.2727
19469TIP3   OH279821   5.366   0.311  13.838  0.3458  1.0179 -0.4025
19469TIP3    H179822   5.362   0.356  13.923 -0.5847  0.9065 -0.3785
19469TIP3    H279823   5.363   0.382  13.774 -1.5045  1.0117 -0.3731
19470TIP3   OH279824   1.721   6.344  12.152 -0.3601 -0.2197 -0.0500
19470TIP3    H179825   1.792   6.294  12.111 -0.0959  0.5577 -0.5719
19470TIP3    H279826   1.755   6.433  12.159 -0.9591 -0.0250  0.5184
19471TIP3   OH279827   0.556   1.630  10.832 -0.5970 -0.1362  0.0189
19471TIP3    H179828   0.460   1.627  10.832 -0.5846 -1.7400  0.6993
19471TIP3    H279829   0.580   1.637  10.740 -1.3836 -2.3563 -0.4347
19472TIP3   OH279830   6.052   2.946   2.280 -0.0528  0.3509  0.4234
19472TIP3    H179831   6.067   2.992   2.198  0.5323 -0.5959 -0.0174
19472TIP3    H279832   5.962   2.967   2.304  0.0063  1.2235 -0.0742
19473TIP3   OH279833   1.557   2.217  13.267  0.3697  0.4059 -0.4160
19473TIP3    H179834   1.648   2.195  13.248 -0.4267 -2.1224 -1.8249
19473TIP3    H279835   1.544   2.187  13.357  0.9543  0.9518 -0.1387
19474TIP3   OH279836   0.258   5.792  11.937 -0.2746 -0.0116  0.5984
19474TIP3    H179837   0.163   5.804  11.932 -0.4876 -1.6435  0.2514
19474TIP3    H279838   0.271   5.698  11.945  1.3289  0.1631  0.5262
19475TIP3   OH279839   4.123   5.926  11.199 -0.6742  0.2184  0.7079
19475TIP3    H179840   4.089   5.931  11.110 -1.3036  1.1448  0.9797
19475TIP3    H279841   4.176   5.847  11.201 -3.7563 -2.0269  0.5520
19476TIP3   OH279842   1.387   3.753  15.242 -0.2869 -0.0530  0.0296
19476TIP3    H179843   1.460   3.723  15.296  0.7126  0.9152 -0.7325
19476TIP3    H279844   1.423   3.757  15.153 -1.3400  0.2178 -0.3954
19477TIP3   OH279845   0.748   3.102  16.484 -0.2726  0.0604  0.2081
19477TIP3    H179846   0.679   3.051  16.441  0.1970  0.9295 -1.6927
19477TIP3    H279847   0.824   3.045  16.485 -0.5830 -0.3511  0.9048
19478TIP3   OH279848   3.741   5.515   1.176  0.0298 -0.0947 -0.2379
19478TIP3    H179849   3.802   5.588   1.162  2.5184 -1.9889  0.0317
19478TIP3    H279850   3.719   5.520   1.269  0.7065 -0.0346 -0.0721
19479TIP3   OH279851   5.654   6.489  13.066  0.6997  0.3124 -0.0273
19479TIP3    H179852   5.739   6.528  13.045  0.7016  0.2012 -0.2301
19479TIP3    H279853   5.591   6.561  13.058  0.8572  0.5367  0.7259
19480TIP3   OH279854   6.192   5.583   5.651  0.0423  0.1148  0.5914
19480TIP3    H179855   6.281   5.568   5.621 -0.1778  0.3505 -0.2073
19480TIP3    H279856   6.155   5.495   5.662  0.3254  0.0192  0.7791
19481TIP3   OH279857   6.531   6.424   1.070  0.2358 -1.0758  0.1152
19481TIP3    H179858   6.521   6.486   1.143 -0.8175 -0.3722 -0.5825
19481TIP3    H279859   6.482   6.465   0.998  0.8256 -1.9978 -0.8305
19482TIP3   OH279860   3.223   6.086   1.049  0.4180 -0.0212  0.0951
19482TIP3    H179861   3.203   5.995   1.071 -0.4713 -0.0431 -0.7431
19482TIP3    H279862   3.304   6.082   0.999  0.1260 -0.3987 -0.3438
19483TIP3   OH279863   4.026   4.158  16.389 -0.0211 -0.2332  0.1996
19483TIP3    H179864   4.116   4.135  16.367  0.3152  1.7363 -0.6727
19483TIP3    H279865   3.979   4.074  16.391  1.4117 -1.1215 -1.2598
19484TIP3   OH279866   2.291   3.448   1.995 -0.1697  0.3820  0.2785
19484TIP3    H179867   2.254   3.388   1.930 -0.6507 -0.2621  1.1367
19484TIP3    H279868   2.228   3.448   2.067  0.2529  1.2521  0.6714
19485TIP3   OH279869   4.157   0.199  16.547  0.1421  0.1626 -0.3007
19485TIP3    H179870   4.238   0.239  16.515 -0.0717 -0.3286 -1.5056
19485TIP3    H279871   4.088   0.257  16.515 -0.0229  0.2506  0.2109
19486TIP3   OH279872   1.048   2.761  13.357  0.0287  0.1719  0.9326
19486TIP3    H179873   1.064   2.675  13.396 -1.1884 -0.6121 -0.2177
19486TIP3    H279874   0.953   2.763  13.342  0.3655  0.6536 -1.4241
19487TIP3   OH279875   6.690   5.890   5.056  0.0462 -0.9438 -0.0687
19487TIP3    H179876   6.719   5.838   4.982  1.1422  0.0838 -0.3960
19487TIP3    H279877   6.649   5.967   5.016  0.4042 -0.5108  0.3812
19488TIP3   OH279878   3.778   5.881   0.684  0.4304  0.5382 -0.2062
19488TIP3    H179879   3.753   5.807   0.628  2.8262  0.4057 -1.2219
19488TIP3    H279880   3.727   5.955   0.651  0.1201 -0.0437 -1.0701
19489TIP3   OH279881   1.632   6.144  16.920 -0.4524 -0.0361  0.0811
19489TIP3    H179882   1.590   6.058  16.915  2.1665 -1.3646 -1.2969
19489TIP3    H279883   1.656   6.164  16.829 -0.0111  1.6422  0.5353
19490TIP3   OH279884   5.388   4.443  11.943 -1.0244  0.2330  0.0379
19490TIP3    H179885   5.329   4.518  11.954  0.1475  1.4176 -1.3657
19490TIP3    H279886   5.330   4.367  11.947 -2.4248  1.2642  0.2787
19491TIP3   OH279887   3.581   3.978   2.544 -0.6785  0.1429 -0.2891
19491TIP3    H179888   3.508   4.039   2.553  1.4433  2.9152 -0.2838
19491TIP3    H279889   3.605   3.984   2.451 -1.3919 -2.0215 -0.6739
19492TIP3   OH279890   1.912   3.091  12.218 -0.4111  0.1651 -0.0575
19492TIP3    H179891   1.817   3.078  12.218 -0.3775 -0.1567  0.7118
19492TIP3    H279892   1.943   3.043  12.296  0.3201  0.6846 -0.0160
19493TIP3   OH279893   5.976   3.039  11.201  0.3519 -0.1667 -0.0207
19493TIP3    H179894   6.032   2.987  11.143  0.5126  0.1765 -0.1771
19493TIP3    H279895   6.026   3.045  11.283 -0.1553 -1.1866  0.3780
19494TIP3   OH279896   1.182   4.440  14.525 -0.0542  0.3189 -0.6661
19494TIP3    H179897   1.126   4.456  14.450  0.2444  1.7598 -0.5981
19494TIP3    H279898   1.249   4.509  14.522 -0.3157  0.7219  1.1736
19495TIP3   OH279899   3.491   5.329   5.618 -0.3715  0.3251 -0.2478
19495TIP3    H179900   3.425   5.395   5.639 -0.3514  0.2458  0.0739
19495TIP3    H279901   3.575   5.373   5.638 -0.3975 -0.1347  0.9436
19496TIP3   OH279902   4.019   4.237   6.089  0.2822 -0.1566  0.3639
19496TIP3    H179903   3.947   4.241   6.152 -0.2617 -1.0680 -0.1787
19496TIP3    H279904   4.095   4.210   6.141  0.2371  0.8110  0.9387
19497TIP3   OH279905   2.452   6.659   2.887 -0.1171 -0.5018  0.2294
19497TIP3    H179906   2.538   6.701   2.884  0.8220 -1.9028  3.1386
19497TIP3    H279907   2.467   6.573   2.846  0.0868 -0.9681  1.2348
19498TIP3   OH279908   6.588   0.787  15.332 -0.2034 -0.0021 -0.2079
19498TIP3    H179909   6.499   0.816  15.310  0.2330  0.2909 -1.6764
19498TIP3    H279910   6.616   0.737  15.255  0.2018 -1.7772  1.0239
19499TIP3   OH279911   1.626   3.357   6.170 -0.1387 -0.1057  0.1706
19499TIP3    H179912   1.576   3.337   6.248 -2.5794 -0.1036 -1.3024
19499TIP3    H279913   1.659   3.272   6.140  0.8936 -0.0943  1.1931
19500TIP3   OH279914   0.286   4.855  14.810  0.0608 -0.2178  0.0023
19500TIP3    H179915   0.333   4.772  14.805 -0.1025 -0.3353  0.3746
19500TIP3    H279916   0.354   4.920  14.825  0.3729 -0.0697 -1.8727
19501TIP3   OH279917   0.658   0.597   0.844 -0.2750  0.1394 -0.2631
19501TIP3    H179918   0.699   0.679   0.872 -1.2585  0.2345  1.0112
19501TIP3    H279919   0.568   0.605   0.874 -0.5555 -1.1382 -0.7313
19502TIP3   OH279920   3.798   0.381  13.251 -0.3814 -0.3149  0.1195
19502TIP3    H179921   3.725   0.399  13.192 -0.5437  1.7482  0.8869
19502TIP3    H279922   3.772   0.301  13.298 -0.7884 -1.2843 -1.6772
19503TIP3   OH279923   1.835   4.449  15.905 -0.5359 -0.1004  0.2533
19503TIP3    H179924   1.767   4.391  15.940 -0.2874 -0.7692 -0.3625
19503TIP3    H279925   1.842   4.519  15.970 -0.0282 -1.3548  1.6171
19504TIP3   OH279926   4.738   2.334   3.287  0.0602  0.3798  0.1473
19504TIP3    H179927   4.704   2.258   3.240  0.2694 -0.0394  0.6617
19504TIP3    H279928   4.781   2.386   3.219  1.4199 -0.8196  0.0251
19505TIP3   OH279929   1.038   6.035   5.871  0.0942 -0.1333 -0.2429
19505TIP3    H179930   0.977   5.990   5.813  0.3351 -0.4039 -0.2905
19505TIP3    H279931   1.123   6.029   5.826  0.1211  0.4144 -0.2759
19506TIP3   OH279932   3.581   0.855   3.720  0.4719 -0.3494 -0.1506
19506TIP3    H179933   3.625   0.850   3.635 -0.3047  0.9422 -0.6611
19506TIP3    H279934   3.541   0.942   3.721 -0.1870 -0.6422  1.2224
19507TIP3   OH279935   5.854   0.805   0.391  0.2624  0.3883 -0.0151
19507TIP3    H179936   5.880   0.735   0.452  0.6335  0.9127  0.4407
19507TIP3    H279937   5.759   0.794   0.381  0.3387 -0.2591 -0.0485
19508TIP3   OH279938   5.772   2.254  11.553 -0.0871 -0.3900 -0.7879
19508TIP3    H179939   5.785   2.348  11.541 -0.9567 -0.3639 -1.7012
19508TIP3    H279940   5.845   2.226  11.608 -0.0555  0.8929 -0.1422
19509TIP3   OH279941   2.946   5.770  15.144  0.3797 -0.6810  0.0961
19509TIP3    H179942   2.935   5.846  15.202  0.7549 -1.7894  1.7057
19509TIP3    H279943   3.016   5.795  15.085 -0.1866  0.5922 -0.0778
19510TIP3   OH279944   1.616   3.728  13.236 -0.5182  0.3103 -0.3748
19510TIP3    H179945   1.570   3.650  13.204  0.8142  0.0529 -1.7706
19510TIP3    H279946   1.546   3.786  13.266 -1.7070 -0.3736 -1.7081
19511TIP3   OH279947   2.003   6.138  13.735 -0.5758  0.4456  0.5474
19511TIP3    H179948   1.918   6.097  13.717 -1.4915  2.5379 -0.3359
19511TIP3    H279949   2.017   6.123  13.828 -1.5770 -0.5305  0.5711
19512TIP3   OH279950   0.055   1.290   2.745 -0.1057 -0.1649  0.0215
19512TIP3    H179951   0.129   1.312   2.688  0.0268 -4.0023 -1.5583
19512TIP3    H279952   0.095   1.246   2.820 -0.5278  2.5006  1.9869
19513TIP3   OH279953   6.354   6.340   3.663 -0.0948  0.6948 -0.5036
19513TIP3    H179954   6.411   6.306   3.732 -0.5308  2.6539  0.9310
19513TIP3    H279955   6.294   6.268   3.644 -0.2090  0.2029  1.4708
19514TIP3   OH279956   0.202   1.448   0.594  0.2427  0.2513  0.3557
19514TIP3    H179957   0.131   1.496   0.637  0.6264  0.2341  1.0169
19514TIP3    H279958   0.186   1.356   0.615  0.9434  0.3214  1.2482
19515TIP3   OH279959   2.521   3.155  13.893 -0.5225 -0.7120  0.5262
19515TIP3    H179960   2.607   3.152  13.935 -0.0348 -0.9457 -0.4575
19515TIP3    H279961   2.462   3.114  13.957  0.4981 -2.6175  0.3337
19516TIP3   OH279962   3.937   0.826  12.750 -0.0439  0.2641  0.0507
19516TIP3    H179963   3.875   0.756  12.728  1.8581 -1.0613 -1.3776
19516TIP3    H279964   3.894   0.875  12.820 -2.3472 -1.0587 -0.3420
19517TIP3   OH279965   6.663   3.618  15.590  0.1794  0.6701  0.2857
19517TIP3    H179966   6.650   3.671  15.668 -0.2288  0.4828  0.3505
19517TIP3    H279967   6.574   3.595  15.562  0.3235  0.7012 -0.2055
19518TIP3   OH279968   2.753   6.645   5.451 -0.2095 -0.2269 -1.1875
19518TIP3    H179969   2.737   6.684   5.365 -0.2707 -1.9757 -2.0062
19518TIP3    H279970   2.679   6.585   5.464 -1.1475  1.2519  0.8952
19519TIP3   OH279971   2.548   3.721  15.744  0.0253 -0.1834 -0.3156
19519TIP3    H179972   2.640   3.728  15.719 -0.7099  1.2951 -2.9877
19519TIP3    H279973   2.538   3.784  15.815  0.8580  0.4439 -0.7349
19520TIP3   OH279974   5.045   4.449  11.806 -0.0031  0.6198  0.1933
19520TIP3    H179975   5.041   4.390  11.731 -0.0790 -0.2633  0.8762
19520TIP3    H279976   4.966   4.502  11.799 -0.0138  0.5387 -0.3500
19521TIP3   OH279977   4.453   5.548   3.124 -0.4553 -0.2121 -0.4620
19521TIP3    H179978   4.435   5.560   3.030  2.3171 -1.0265 -1.1761
19521TIP3    H279979   4.498   5.629   3.150 -0.2958 -0.4171 -0.0954
19522TIP3   OH279980   1.321   1.324  14.922  0.7055  0.4861  0.5292
19522TIP3    H179981   1.280   1.307  15.007  0.8546  0.5944  0.6235
19522TIP3    H279982   1.334   1.237  14.884  0.2376  0.4558  0.4261
19523TIP3   OH279983   4.471   4.089  17.040 -0.3445 -0.0693  0.4458
19523TIP3    H179984   4.443   4.178  17.019  0.5305 -0.4232 -2.8835
19523TIP3    H279985   4.407   4.032  16.995  1.1319 -0.9840 -0.6079
19524TIP3   OH279986   1.914   2.532  11.924  0.3362  0.0479 -0.6935
19524TIP3    H179987   1.888   2.574  11.842 -0.5277 -0.3553 -0.6339
19524TIP3    H279988   1.854   2.458  11.934 -0.1997  0.6361  0.7799
19525TIP3   OH279989   4.380   6.437   5.730  0.0455  0.2005 -0.0173
19525TIP3    H179990   4.402   6.504   5.665 -0.9366 -1.3864 -2.1243
19525TIP3    H279991   4.345   6.486   5.804  1.3588  2.1126 -0.5910
19526TIP3   OH279992   0.332   5.484  17.270  0.6523 -0.3085  0.1202
19526TIP3    H179993   0.352   5.396  17.238 -1.9185 -0.6493 -0.7387
19526TIP3    H279994   0.327   5.475  17.365 -0.0529 -1.2143  0.0098
19527TIP3   OH279995   2.931   3.297   4.626  0.1503  0.0984 -0.0429
19527TIP3    H179996   2.895   3.301   4.538 -0.1704 -0.0286  0.0811
19527TIP3    H279997   2.858   3.267   4.681  0.2197  0.6110  0.3369
19528TIP3   OH279998   4.258   2.074   0.078 -0.3136  0.0405 -0.5576
19528TIP3    H179999   4.281   2.143   0.016  1.5017 -0.0899 -0.0743
19528TIP3    H280000   4.342   2.044   0.113 -1.2411 -0.4352  1.3746
19529TIP3   OH280001   1.755   6.337   4.014  0.4999  0.3567 -0.3935
19529TIP3    H180002   1.705   6.314   3.935 -1.8008 -1.2831  1.4315
19529TIP3    H280003   1.707   6.411   4.051 -0.8999 -1.3905  1.5094
19530TIP3   OH280004   6.287   0.157   6.296 -0.1836  0.5940 -0.1610
19530TIP3    H180005   6.369   0.187   6.255  0.1355 -0.4990 -0.3566
19530TIP3    H280006   6.300   0.063   6.308 -0.5159  0.7817  1.9188
19531TIP3   OH280007   2.641   1.358   0.439 -0.3659  0.0244 -0.1305
19531TIP3    H180008   2.612   1.295   0.505 -0.3671 -0.4520 -0.5858
19531TIP3    H280009   2.735   1.344   0.433 -0.4364 -0.2723 -0.5814
19532TIP3   OH280010   5.864   2.446   5.643  0.2763 -0.3053  0.3316
19532TIP3    H180011   5.893   2.380   5.706 -0.4050  0.3401  1.3395
19532TIP3    H280012   5.832   2.519   5.697  1.3401  1.0122 -0.7419
19533TIP3   OH280013   3.492   0.742   2.919  0.3752  0.0904  0.4589
19533TIP3    H180014   3.454   0.680   2.856  0.1792  2.6947 -2.1891
19533TIP3    H280015   3.577   0.704   2.942  0.4023 -1.0419 -1.3081
19534TIP3   OH280016   0.162   1.092  12.718 -0.2041 -0.3721  0.3725
19534TIP3    H180017   0.116   1.145  12.653  2.2886  0.0436 -1.2151
19534TIP3    H280018   0.142   1.001  12.693 -1.2383 -0.2150  0.5923
19535TIP3   OH280019   1.682   5.692   3.477 -0.8349  0.3962 -0.2743
19535TIP3    H180020   1.689   5.607   3.519 -1.1307  0.9058  0.8309
19535TIP3    H280021   1.681   5.672   3.383 -0.3247 -0.7658 -0.0467
19536TIP3   OH280022   2.301   6.198  13.333  0.1921 -0.2701  0.1468
19536TIP3    H180023   2.275   6.226  13.421 -0.0367  1.8791 -0.5334
19536TIP3    H280024   2.245   6.122  13.315 -0.3227 -0.2684  1.5426
19537TIP3   OH280025   5.166   0.946  13.820  0.1239 -0.2060 -0.2525
19537TIP3    H180026   5.143   0.951  13.727  1.1711 -3.7915 -0.8822
19537TIP3    H280027   5.097   0.892  13.859  1.2214 -1.2107  0.3670
19538TIP3   OH280028   3.844   0.897   1.101  0.0977  0.2591  0.6943
19538TIP3    H180029   3.838   0.959   1.028 -0.4930 -0.4240  0.1417
19538TIP3    H280030   3.798   0.819   1.069  1.3189 -0.6750  1.1476
19539TIP3   OH280031   0.906   1.343   2.705  0.2654 -0.1795 -0.0746
19539TIP3    H180032   0.863   1.404   2.645 -1.7078 -2.1034 -0.7181
19539TIP3    H280033   0.869   1.258   2.684  4.6818 -2.1858 -0.9552
19540TIP3   OH280034   3.070   1.363   1.205  0.2325 -0.2693  0.4739
19540TIP3    H180035   3.120   1.444   1.219  2.1479 -1.3774  0.3130
19540TIP3    H280036   3.010   1.360   1.279  1.5666  0.2768  1.6301
19541TIP3   OH280037   5.302   2.111  13.220  0.1115 -0.5541  0.4662
19541TIP3    H180038   5.348   2.094  13.137  3.0775  0.1516  1.8073
19541TIP3    H280039   5.289   2.206  13.220 -3.1094 -0.8863 -0.6229
19542TIP3   OH280040   3.387   5.620  11.820  0.7249  0.0455  0.5112
19542TIP3    H180041   3.393   5.715  11.811  0.6019  0.0165  0.0799
19542TIP3    H280042   3.326   5.594  11.751  2.4579 -0.5780 -0.8725
19543TIP3   OH280043   0.764   5.138   0.582 -0.3696 -0.3703 -0.4843
19543TIP3    H180044   0.749   5.045   0.567 -0.7143 -0.3521 -0.2713
19543TIP3    H280045   0.762   5.178   0.495 -2.0491 -0.3027 -0.4518
19544TIP3   OH280046   4.185   1.003  14.020 -0.1929 -0.2471 -0.5875
19544TIP3    H180047   4.108   0.963  13.980 -0.6393 -1.6715  1.5105
19544TIP3    H280048   4.150   1.048  14.098  1.1488 -2.0614  1.1744
19545TIP3   OH280049   0.827   0.851  11.686 -0.0923  0.2478 -0.1132
19545TIP3    H180050   0.840   0.834  11.593 -0.1327 -0.5801  0.0170
19545TIP3    H280051   0.769   0.780  11.715  1.0621 -0.3571  0.8308
19546TIP3   OH280052   4.853   1.628   5.037 -0.1846  0.2766 -0.2370
19546TIP3    H180053   4.775   1.678   5.015 -0.0307  0.2331 -0.9144
19546TIP3    H280054   4.916   1.693   5.069 -0.4194  0.3400  0.0971
19547TIP3   OH280055   4.678   0.301  13.127  0.4925 -0.6573  0.0446
19547TIP3    H180056   4.685   0.247  13.207 -0.0705 -0.3339  0.3175
19547TIP3    H280057   4.651   0.239  13.059 -2.0807 -0.4328  0.7583
19548TIP3   OH280058   3.010   5.978  14.931  0.3178 -0.2492 -0.5647
19548TIP3    H180059   3.050   5.896  14.960 -0.3007 -0.7750 -1.1795
19548TIP3    H280060   3.084   6.036  14.914  0.8478 -1.2654 -1.8656
19549TIP3   OH280061   6.728   6.464  11.539  0.3668  0.2709  0.0327
19549TIP3    H180062   6.716   6.460  11.444 -0.5187  1.6660  0.0540
19549TIP3    H280063   6.708   6.376  11.570 -1.0062  0.2120 -0.9284
19550TIP3   OH280064   4.964   5.177   2.945 -0.0871  0.5187  0.1863
19550TIP3    H180065   4.968   5.192   2.851  3.7064 -3.3899 -0.5750
19550TIP3    H280066   5.035   5.232   2.981 -0.5257  0.8316  0.5987
19551TIP3   OH280067   1.796   5.896   0.267  0.5234  0.1979 -0.0037
19551TIP3    H180068   1.725   5.957   0.287  0.2908 -0.0887  0.0533
19551TIP3    H280069   1.828   5.869   0.353  0.3784 -0.0443 -0.0245
19552TIP3   OH280070   5.857   2.709   1.021  0.4000  0.3093 -0.0791
19552TIP3    H180071   5.878   2.677   1.109  0.4135  1.0050  0.1722
19552TIP3    H280072   5.941   2.709   0.975  0.2404 -1.0384 -0.4317
19553TIP3   OH280073   0.199   1.327  14.273 -0.9682 -0.0055  0.0375
19553TIP3    H180074   0.147   1.367  14.203  0.6066  1.2257 -0.4773
19553TIP3    H280075   0.267   1.391  14.292  0.5343 -1.6692  0.5111
19554TIP3   OH280076   1.492   0.414   0.970  0.0695  0.2621  0.8654
19554TIP3    H180077   1.491   0.381   1.060  0.1764  0.3104  0.8843
19554TIP3    H280078   1.472   0.507   0.978  0.8127  0.4227  0.9054
19555TIP3   OH280079   3.001   0.663   5.140  0.3482 -0.1764 -0.1810
19555TIP3    H180080   2.928   0.606   5.165  0.9720 -0.0060  2.3162
19555TIP3    H280081   3.076   0.603   5.134  1.1940  0.3346  3.3267
19556TIP3   OH280082   1.384   0.065   4.751  0.3627  0.5351  0.8612
19556TIP3    H180083   1.321   0.136   4.757  0.9639  0.9723  2.6276
19556TIP3    H280084   1.406   0.044   4.842  1.7654 -0.4928  0.3292
19557TIP3   OH280085   2.419   5.590   5.784  0.2419  0.1544  0.0860
19557TIP3    H180086   2.480   5.611   5.713 -0.0732 -0.8605 -0.4984
19557TIP3    H280087   2.417   5.670   5.838 -0.1056  1.2407 -1.4663
19558TIP3   OH280088   3.570   6.380   6.310 -0.0857 -0.5824  0.0698
19558TIP3    H180089   3.516   6.437   6.363 -0.2888 -0.7990  0.0982
19558TIP3    H280090   3.555   6.292   6.346 -1.1122 -0.8929 -1.0625
19559TIP3   OH280091   0.200   5.077  13.379  0.0044  0.1098  0.1269
19559TIP3    H180092   0.287   5.067  13.418  0.5359  1.2874 -0.6880
19559TIP3    H280093   0.159   5.146  13.431  0.0402  0.4197 -0.2477
19560TIP3   OH280094   6.664   3.131  15.071  0.3050 -0.7644  0.3602
19560TIP3    H180095   6.710   3.049  15.053  1.7124  0.0710 -0.0805
19560TIP3    H280096   6.584   3.126  15.019  0.7444 -1.5317 -0.2650
19561TIP3   OH280097   2.872   1.904  13.848  0.1233 -0.6726  0.1170
19561TIP3    H180098   2.812   1.933  13.917 -0.2072 -0.7020 -0.1560
19561TIP3    H280099   2.816   1.858  13.785  0.1166  0.9716 -1.1258
19562TIP3   OH280100   0.858   4.952  10.761  0.6310  0.5589  0.3423
19562TIP3    H180101   0.948   4.983  10.751  0.5594  1.5126  2.2319
19562TIP3    H280102   0.822   5.005  10.832 -0.8463 -1.0483  0.8645
19563TIP3   OH280103   2.200   6.541  11.885  0.0076 -0.1363  0.3016
19563TIP3    H180104   2.163   6.465  11.929 -0.7571  1.0534  1.7983
19563TIP3    H280105   2.186   6.613  11.946  1.2503  1.1023 -0.8200
19564TIP3   OH280106   5.703   4.323  15.644 -0.0538 -0.2319 -0.0696
19564TIP3    H180107   5.785   4.346  15.600 -0.3737 -1.0115 -1.1308
19564TIP3    H280108   5.723   4.326  15.737  0.9197  0.5144 -0.2872
19565TIP3   OH280109   2.848   1.013  16.759 -0.1163 -0.1422 -0.0484
19565TIP3    H180110   2.876   0.925  16.734 -0.1062 -0.3173  0.5748
19565TIP3    H280111   2.924   1.050  16.804 -1.0349 -0.8340  2.1978
19566TIP3   OH280112   2.453   2.182  11.557  0.4267 -0.0724  0.2303
19566TIP3    H180113   2.423   2.217  11.473 -0.9907 -1.6169  0.0174
19566TIP3    H280114   2.381   2.200  11.618  1.2412  0.6093  1.0171
19567TIP3   OH280115   3.029   4.033   0.941  0.5759  0.6156  0.0036
19567TIP3    H180116   2.990   4.107   0.897 -1.2415  0.5211  1.3332
19567TIP3    H280117   2.986   4.030   1.027  2.4609 -0.4198  0.9928
19568TIP3   OH280118   1.487   5.272   1.006  0.3469 -0.6763  0.5208
19568TIP3    H180119   1.483   5.221   0.925 -0.8075 -1.0570  0.7978
19568TIP3    H280120   1.426   5.228   1.065  0.0701  0.4502  1.1039
19569TIP3   OH280121   2.638   0.853  12.438  0.3362 -0.1051 -0.6518
19569TIP3    H180122   2.657   0.942  12.410  3.2294 -0.6935 -0.8726
19569TIP3    H280123   2.592   0.863  12.522  2.9158  1.6416  0.6889
19570TIP3   OH280124   5.996   0.228   5.392 -0.1401 -0.1215 -0.2182
19570TIP3    H180125   6.043   0.306   5.423 -0.6772  0.4921 -0.8997
19570TIP3    H280126   5.903   0.248   5.408 -0.1937 -1.2851  1.0454
19571TIP3   OH280127   5.203   0.400  16.257  0.5062  0.0881  0.6202
19571TIP3    H180128   5.194   0.443  16.171  0.4744 -0.3988  0.3739
19571TIP3    H280129   5.124   0.426  16.304  0.6474  0.5675  0.5957
19572TIP3   OH280130   4.893   2.315  17.022 -0.3230 -0.2355  0.3789
19572TIP3    H180131   4.857   2.250  16.960  1.7047 -0.7574 -0.3400
19572TIP3    H280132   4.899   2.395  16.971  1.6483 -0.7460 -0.2687
19573TIP3   OH280133   2.204   3.346   4.360  0.3173  0.8584  0.5720
19573TIP3    H180134   2.255   3.426   4.349  1.1049  0.3313  0.2741
19573TIP3    H280135   2.201   3.331   4.454  3.1847 -0.6047  0.5545
19574TIP3   OH280136   5.503   1.691   4.891 -0.4288 -0.2984  0.0866
19574TIP3    H180137   5.485   1.706   4.984  2.7262  0.3562  0.7055
19574TIP3    H280138   5.510   1.779   4.854 -3.3510 -0.5296 -1.2527
19575TIP3   OH280139   4.216   0.549   1.536 -0.9840  0.5215 -0.2649
19575TIP3    H180140   4.126   0.527   1.513 -1.1017  0.1309  0.5517
19575TIP3    H280141   4.258   0.566   1.452 -1.9297  1.1535 -0.6359
19576TIP3   OH280142   6.587   1.056   2.987 -0.5061  0.0327 -0.2978
19576TIP3    H180143   6.664   1.112   2.997  0.0454 -0.8738  0.7315
19576TIP3    H280144   6.513   1.117   2.990  0.1299  0.8518 -0.7145
19577TIP3   OH280145   4.816   4.226  11.787 -0.7623 -0.3011 -0.1154
19577TIP3    H180146   4.884   4.211  11.722 -1.3299  0.2687 -0.8488
19577TIP3    H280147   4.760   4.149  11.781 -1.5269  0.3204 -1.2049
19578TIP3   OH280148   2.635   1.397  17.219 -0.1601 -0.3779 -0.6435
19578TIP3    H180149   2.576   1.332  17.257 -0.9324  0.7158  0.0870
19578TIP3    H280150   2.682   1.434  17.294  0.9404 -0.7137 -1.1415
19579TIP3   OH280151   5.214   4.813  16.689 -0.0663 -0.0780  0.6123
19579TIP3    H180152   5.180   4.902  16.692 -1.1417 -0.4988  1.1703
19579TIP3    H280153   5.213   4.790  16.596 -0.0018  0.3945  0.4919
19580TIP3   OH280154   2.864   4.513  12.237 -0.0053  0.3687  0.2747
19580TIP3    H180155   2.929   4.539  12.302  2.1346 -0.4482 -1.4286
19580TIP3    H280156   2.836   4.425  12.265 -1.7626  1.3874  1.9578
19581TIP3   OH280157   1.880   3.922   4.564 -0.1059  0.2570 -0.4901
19581TIP3    H180158   1.907   3.872   4.641  0.9075 -0.3050 -1.1932
19581TIP3    H280159   1.937   3.999   4.565  1.7734 -1.0309 -2.0894
19582TIP3   OH280160   5.182   3.619  14.058  0.2230 -0.0425 -0.0902
19582TIP3    H180161   5.168   3.687  14.124  0.7787  0.2426 -0.2596
19582TIP3    H280162   5.272   3.631  14.030  0.0740 -0.3244 -0.7186
19583TIP3   OH280163   5.220   2.004   1.423 -0.3966  0.1752 -0.3631
19583TIP3    H180164   5.214   2.086   1.373  0.0214 -0.3391 -1.2760
19583TIP3    H280165   5.312   1.998   1.448 -0.7156  0.7340  1.0230
19584TIP3   OH280166   3.426   0.161  13.009  0.0130  0.2189 -0.6127
19584TIP3    H180167   3.358   0.210  13.054  1.3085  1.0982  0.4888
19584TIP3    H280168   3.413   0.070  13.036  0.1059  0.5797  0.7223
19585TIP3   OH280169   6.279   4.904  12.163  0.1621 -0.2128 -0.3792
19585TIP3    H180170   6.326   4.900  12.080  2.0432 -0.6576  0.6569
19585TIP3    H280171   6.238   4.817  12.171  0.3996 -0.3461 -0.5983
19586TIP3   OH280172   4.894   5.849  17.033 -0.0120 -0.0376  0.4715
19586TIP3    H180173   4.971   5.882  16.985 -1.3740  0.7751 -1.2665
19586TIP3    H280174   4.835   5.924  17.036 -1.9050 -1.3973 -0.7790
19587TIP3   OH280175   1.515   5.583   4.712 -0.1981 -0.2506 -0.2248
19587TIP3    H180176   1.475   5.497   4.714  0.5321 -0.5985  1.3003
19587TIP3    H280177   1.599   5.569   4.669 -0.8650  0.0997 -1.6900
19588TIP3   OH280178   3.271   2.450   6.243  0.5760  0.1658 -0.2264
19588TIP3    H180179   3.185   2.455   6.200  0.7231  1.2947 -0.4033
19588TIP3    H280180   3.257   2.491   6.329  0.7051 -0.5592  0.1545
19589TIP3   OH280181   5.797   6.156   1.928  0.0349  0.1539 -1.2015
19589TIP3    H180182   5.791   6.252   1.937  1.2305  0.2005 -0.6918
19589TIP3    H280183   5.872   6.143   1.871 -1.3745 -0.4498 -2.9929
19590TIP3   OH280184   6.064   2.325   2.250 -0.3508 -0.2006 -0.1101
19590TIP3    H180185   5.990   2.286   2.203 -1.0534  1.3062 -0.3184
19590TIP3    H280186   6.023   2.375   2.321  0.2920  2.1944 -1.3303
19591TIP3   OH280187   1.352   1.136   6.550 -0.2039  0.0111  0.0511
19591TIP3    H180188   1.260   1.156   6.561 -0.0082  1.1724 -0.3124
19591TIP3    H280189   1.395   1.221   6.541  0.8859 -0.5099  0.0813
19592TIP3   OH280190   3.913   5.249  16.009 -0.0424  0.1137 -0.3891
19592TIP3    H180191   3.893   5.232  16.102 -2.8139  0.4323 -0.8525
19592TIP3    H280192   3.996   5.203  15.994  2.2709  2.6918  3.0016
19593TIP3   OH280193   3.202   3.894  12.969  0.0299  0.3697  0.1832
19593TIP3    H180194   3.294   3.893  12.995 -0.0536 -0.5683  0.4770
19593TIP3    H280195   3.168   3.810  12.999 -0.9510  0.7498  0.1668
19594TIP3   OH280196   1.365   6.691  14.587  0.0107 -0.4606 -0.0324
19594TIP3    H180197   1.319   6.608  14.575 -0.4418 -0.3725  0.9637
19594TIP3    H280198   1.331   6.748  14.518  1.1874 -1.4307 -1.4772
19595TIP3   OH280199   4.236   1.198   0.527  0.0687 -0.5981 -0.0344
19595TIP3    H180200   4.300   1.184   0.597  0.4468  0.0489 -0.2420
19595TIP3    H280201   4.259   1.283   0.490 -0.3727 -0.7545 -0.6886
19596TIP3   OH280202   2.704   3.405   5.654 -0.2556 -0.0906  0.1065
19596TIP3    H180203   2.700   3.367   5.566 -0.4573  0.1495  0.0120
19596TIP3    H280204   2.661   3.490   5.646 -0.5549 -0.2009  0.5087
19597TIP3   OH280205   3.636   2.699  17.287  0.0867 -0.0970  0.0961
19597TIP3    H180206   3.695   2.634  17.248 -0.9444 -0.4343 -0.9827
19597TIP3    H280207   3.552   2.684  17.243 -1.0390 -0.1773  2.1713
19598TIP3   OH280208   5.691   5.516  11.130  0.0998  0.0659 -0.4176
19598TIP3    H180209   5.600   5.541  11.118  0.3655  2.1682  1.2731
19598TIP3    H280210   5.731   5.527  11.044 -1.4006 -2.0399 -1.4750
19599TIP3   OH280211   6.338   2.152  13.318 -0.2061  1.1191 -0.1999
19599TIP3    H180212   6.355   2.211  13.244  1.2560  0.3429 -0.5121
19599TIP3    H280213   6.262   2.191  13.362 -1.2601  1.5087 -2.2057
19600TIP3   OH280214   1.865   3.611   0.731  0.1547 -0.4737  0.4442
19600TIP3    H180215   1.901   3.694   0.701  2.8119 -0.7016  2.5795
19600TIP3    H280216   1.776   3.608   0.695  0.3382  2.7671 -0.5713
19601TIP3   OH280217   6.541   6.512   6.450  0.2875  0.2139 -0.3000
19601TIP3    H180218   6.544   6.494   6.543 -2.1285  1.3718  0.0998
19601TIP3    H280219   6.499   6.598   6.444  1.5890  0.7645 -2.4151
19602TIP3   OH280220   1.004   2.173   1.467 -0.2506 -0.6005 -0.2040
19602TIP3    H180221   1.046   2.222   1.396  2.3136  0.3600  1.8231
19602TIP3    H280222   0.951   2.238   1.513 -0.8820 -0.9346 -0.4419
19603TIP3   OH280223   1.711   0.488  15.484  0.5259 -0.2338  0.3452
19603TIP3    H180224   1.625   0.497  15.443 -0.3068 -0.0304  2.0229
19603TIP3    H280225   1.725   0.394  15.491 -0.1611 -0.2842  1.2037
19604TIP3   OH280226   6.722   0.269  16.371  0.0897  0.3133  0.5837
19604TIP3    H180227   6.761   0.187  16.400 -0.2341 -0.0589 -0.0208
19604TIP3    H280228   6.671   0.299  16.446 -0.7958 -0.6761  0.3960
19605TIP3   OH280229   1.773   3.678  11.302  0.2109 -0.1456  0.1723
19605TIP3    H180230   1.865   3.664  11.278  0.0476  0.4529 -0.9000
19605TIP3    H280231   1.745   3.595  11.339  1.3558 -0.1376  1.1100
19606TIP3   OH280232   3.798   4.851  13.857  0.1124  0.0596  0.1393
19606TIP3    H180233   3.845   4.770  13.836 -0.0942 -0.9141  2.9275
19606TIP3    H280234   3.851   4.921  13.819 -0.0639 -1.3555 -2.9361
19607TIP3   OH280235   2.898   0.410   5.190 -0.6449 -0.5300 -0.4297
19607TIP3    H180236   2.872   0.319   5.204  0.9613 -1.0518 -0.5913
19607TIP3    H280237   2.919   0.415   5.096 -0.9982  0.0869 -0.4824
19608TIP3   OH280238   5.438   5.068   5.094  0.2274 -0.1580 -0.0952
19608TIP3    H180239   5.493   5.126   5.146 -2.2100  0.7772  1.6415
19608TIP3    H280240   5.385   5.127   5.040  0.3081 -0.9700 -1.0852
19609TIP3   OH280241   1.449   4.051   1.569  0.4781 -0.4282 -0.0952
19609TIP3    H180242   1.449   4.131   1.622  0.3404 -0.4066 -0.1276
19609TIP3    H280243   1.469   3.981   1.631  0.5454 -0.3749 -0.0568
19610TIP3   OH280244   1.532   4.730  15.778 -0.4317  0.7087  0.4266
19610TIP3    H180245   1.597   4.743  15.847 -0.3885 -0.0438  0.5361
19610TIP3    H280246   1.582   4.738  15.696 -0.4794  1.5818  0.4705
19611TIP3   OH280247   2.579   0.333  16.014 -0.0571 -0.3209 -0.0813
19611TIP3    H180248   2.555   0.417  15.974 -2.1998 -0.9502 -0.2353
19611TIP3    H280249   2.622   0.284  15.944  1.9261  0.8716  0.2169
19612TIP3   OH280250   3.730   6.409   5.800 -0.2999  0.8634  0.3158
19612TIP3    H180251   3.768   6.342   5.857 -0.4784  1.8363  1.6141
19612TIP3    H280252   3.637   6.412   5.826 -0.1097  2.2169  0.9071
19613TIP3   OH280253   6.444   4.854   5.015  0.3853  0.2892  0.0679
19613TIP3    H180254   6.539   4.844   5.020  0.0959 -2.4371  2.4320
19613TIP3    H280255   6.418   4.798   4.942  0.4292 -1.1001  1.0810
19614TIP3   OH280256   2.580   2.868  15.816  0.1630 -0.5198  0.3681
19614TIP3    H180257   2.658   2.862  15.871 -0.0339 -2.5135  0.4972
19614TIP3    H280258   2.567   2.962  15.804  3.0426 -0.1186 -0.3685
19615TIP3   OH280259   0.569   3.494   4.943  0.7130  0.1678  0.7808
19615TIP3    H180260   0.631   3.561   4.971 -0.1837  0.4433  2.1919
19615TIP3    H280261   0.496   3.543   4.905  0.7030 -0.0849  0.4684
19616TIP3   OH280262   6.248   1.465   0.753 -0.3885  1.0309 -0.5250
19616TIP3    H180263   6.264   1.544   0.805  1.6078  0.1324  0.3114
19616TIP3    H280264   6.206   1.498   0.673  2.0777  3.2509 -1.0740
19617TIP3   OH280265   0.796   1.664   5.814 -0.1311 -0.5446  0.6255
19617TIP3    H180266   0.735   1.591   5.807 -0.5387 -0.2613  1.1498
19617TIP3    H280267   0.875   1.634   5.769 -0.8218 -0.7305 -0.4977
19618TIP3   OH280268   3.493   0.802   6.018 -0.3259  0.0504 -0.4723
19618TIP3    H180269   3.414   0.813   6.072 -0.2338  0.8491 -0.4848
19618TIP3    H280270   3.522   0.891   6.001  0.8826 -0.2509 -0.0408
19619TIP3   OH280271   0.886   4.832   1.240  0.7619 -0.3723  1.0347
19619TIP3    H180272   0.971   4.794   1.264  0.1486 -0.6735  2.8737
19619TIP3    H280273   0.879   4.911   1.293 -0.3813 -0.7025  1.4080
19620TIP3   OH280274   6.255   4.040  15.795 -0.2749  0.5018  0.0994
19620TIP3    H180275   6.241   3.962  15.742 -0.0052  0.8172 -0.4402
19620TIP3    H280276   6.253   4.113  15.733  0.9240  0.7998  0.3862
19621TIP3   OH280277   1.023   1.002  10.931  0.1048  0.5059 -0.1292
19621TIP3    H180278   1.045   1.030  11.020  1.4046 -0.0961 -0.2305
19621TIP3    H280279   1.081   0.927  10.915 -0.5220  0.2423 -1.2757
19622TIP3   OH280280   3.030   4.839  16.130  0.2014 -0.0019 -0.0623
19622TIP3    H180281   3.058   4.864  16.218  0.7664  0.9016 -0.4836
19622TIP3    H280282   3.090   4.886  16.072 -1.0088  0.4785 -0.9575
19623TIP3   OH280283   6.005   5.268  11.881  0.2067  0.0705 -0.3390
19623TIP3    H180284   6.018   5.205  11.952  0.8889  0.5687 -0.0011
19623TIP3    H280285   5.933   5.232  11.829 -2.8117  1.3612  2.5688
19624TIP3   OH280286   4.841   6.702   5.819 -0.4588  0.1734  0.4426
19624TIP3    H180287   4.822   6.616   5.781 -3.2604  0.5057  0.8978
19624TIP3    H280288   4.850   6.760   5.743 -0.5597 -0.1522  0.1803
19625TIP3   OH280289   2.810   0.835  14.000 -0.7286  0.0956 -0.3354
19625TIP3    H180290   2.814   0.784  14.081 -2.3641  0.7138  0.1723
19625TIP3    H280291   2.823   0.925  14.028 -1.2959  0.3133 -0.7527
19626TIP3   OH280292   4.360   6.328   5.477 -0.1162  0.1883 -0.4605
19626TIP3    H180293   4.308   6.247   5.478  1.6082 -1.0043  1.2618
19626TIP3    H280294   4.348   6.365   5.564  0.2170  1.0555 -0.7732
19627TIP3   OH280295   2.105   0.108  15.173  0.3031  0.0649  0.0746
19627TIP3    H180296   2.149   0.111  15.088  1.0908  1.4425  0.4857
19627TIP3    H280297   2.172   0.138  15.235 -0.3374 -0.6618  1.1509
19628TIP3   OH280298   0.739   3.817   2.402  0.3879 -0.1234 -0.7509
19628TIP3    H180299   0.755   3.723   2.405 -1.5815 -0.4793 -0.1686
19628TIP3    H280300   0.695   3.831   2.318 -3.1162 -0.4735  0.8572
19629TIP3   OH280301   4.344   3.301  16.857 -0.0289  0.0103 -0.2702
19629TIP3    H180302   4.420   3.358  16.848 -1.5470  2.2094 -0.2825
19629TIP3    H280303   4.378   3.219  16.891  2.2252  1.2325  0.6201
19630TIP3   OH280304   1.617   4.577  14.731  0.3896 -0.0131 -0.6782
19630TIP3    H180305   1.663   4.565  14.648 -2.5786  2.7044 -2.9814
19630TIP3    H280306   1.556   4.503  14.736 -0.1323  0.3431 -1.5180
19631TIP3   OH280307   4.171   4.404  14.465 -0.2341 -0.1048 -0.3848
19631TIP3    H180308   4.248   4.407  14.409 -0.5221 -0.8318 -0.8293
19631TIP3    H280309   4.199   4.355  14.543 -0.4481 -1.0586 -0.8890
19632TIP3   OH280310   0.395   3.250   5.934  0.2300 -0.5192 -0.3031
19632TIP3    H180311   0.336   3.214   6.000 -0.1768 -0.6358 -0.7236
19632TIP3    H280312   0.446   3.317   5.981  2.3611 -2.8808  0.9937
19633TIP3   OH280313   5.835   0.548  14.087 -0.2284 -0.6531  0.0091
19633TIP3    H180314   5.862   0.493  14.161  0.0840 -0.6168 -0.0797
19633TIP3    H280315   5.905   0.612  14.078 -0.3674 -0.5299 -0.1871
19634TIP3   OH280316   0.156   5.387  11.152  0.0483 -0.2795 -0.0205
19634TIP3    H180317   0.065   5.411  11.134 -0.0229  0.2335  0.9404
19634TIP3    H280318   0.205   5.420  11.076 -0.6104 -0.9479 -0.7538
19635TIP3   OH280319   2.868   1.419   0.704  0.0310 -0.2537  0.2169
19635TIP3    H180320   2.882   1.513   0.696  1.9161 -0.6136 -2.2901
19635TIP3    H280321   2.774   1.407   0.695 -0.3290  1.4017  1.4030
19636TIP3   OH280322   4.807   3.826  15.194 -0.2590  0.1615  0.3084
19636TIP3    H180323   4.856   3.783  15.124 -0.6706 -0.3201  0.3137
19636TIP3    H280324   4.857   3.806  15.273 -1.2822 -1.6579  0.5350
19637TIP3   OH280325   2.267   1.111  11.856  0.4510  0.8304 -0.0268
19637TIP3    H180326   2.347   1.159  11.833  0.3449  0.6715 -0.7579
19637TIP3    H280327   2.208   1.126  11.783 -0.1811  0.9146  0.4960
19638TIP3   OH280328   6.112   0.702  15.423 -0.5043 -0.0981  0.2734
19638TIP3    H180329   6.051   0.631  15.445 -0.5933  0.0998  0.6782
19638TIP3    H280330   6.146   0.731  15.508  0.0737 -0.1359  0.0555
19639TIP3   OH280331   2.304   2.277   3.819 -0.2890  0.2556  0.1292
19639TIP3    H180332   2.318   2.301   3.728 -0.8929 -0.0719 -0.0576
19639TIP3    H280333   2.220   2.316   3.842 -0.1648  0.2968  0.5343
19640TIP3   OH280334   4.239   3.052  16.036  0.4400  0.1660  0.0749
19640TIP3    H180335   4.233   2.965  16.076  1.0054  0.1165  0.0638
19640TIP3    H280336   4.270   3.035  15.947 -1.0792  0.2515 -0.5093
19641TIP3   OH280337   4.160   2.017   6.346 -0.6743  0.2050  0.5879
19641TIP3    H180338   4.178   1.932   6.386  0.7013  0.4045  0.4325
19641TIP3    H280339   4.172   2.080   6.417  0.4444  0.4428  0.2087
19642TIP3   OH280340   6.043   6.463   2.477 -0.0683 -0.5023 -0.9421
19642TIP3    H180341   6.018   6.548   2.441 -1.1325 -0.1849  0.4243
19642TIP3    H280342   6.139   6.464   2.477  0.0044  1.6245  0.9710
19643TIP3   OH280343   5.966   4.349  14.080 -0.3441 -0.0252 -0.4541
19643TIP3    H180344   5.871   4.333  14.081 -0.5341  0.9320 -1.1371
19643TIP3    H280345   6.005   4.263  14.079 -1.1752 -0.4828  1.2675
19644TIP3   OH280346   1.357   0.809   5.861  0.7104  0.4868  0.1510
19644TIP3    H180347   1.314   0.876   5.914  0.1417  1.2374 -1.2185
19644TIP3    H280348   1.449   0.837   5.858  0.6600  0.6825  0.3664
19645TIP3   OH280349   0.241   0.290  11.318 -0.3039  0.0333 -0.3226
19645TIP3    H180350   0.316   0.314  11.372  1.6326 -1.6781 -2.0477
19645TIP3    H280351   0.232   0.362  11.256  0.8002 -0.3055 -0.9125
19646TIP3   OH280352   1.355   0.465  12.215  0.0027 -0.3491 -0.5678
19646TIP3    H180353   1.323   0.540  12.166  0.1177 -0.5006 -0.8810
19646TIP3    H280354   1.305   0.391  12.182  0.5349 -0.5559 -0.9276
19647TIP3   OH280355   6.467   6.092   2.045  0.1632  0.7016  0.0699
19647TIP3    H180356   6.458   6.177   2.001 -1.1437  1.0544  0.9580
19647TIP3    H280357   6.511   6.036   1.980 -0.6244  1.5267 -1.2360
19648TIP3   OH280358   5.198   1.480  16.065 -0.6880 -0.3384 -0.1586
19648TIP3    H180359   5.133   1.517  16.006  0.1193  2.1645  0.3994
19648TIP3    H280360   5.190   1.532  16.145  1.0545 -0.8606  0.4024
19649TIP3   OH280361   0.477   5.091   5.365 -0.1285 -0.2247  0.1079
19649TIP3    H180362   0.525   5.054   5.291 -1.9871  0.7919 -1.7325
19649TIP3    H280363   0.534   5.160   5.399  1.2365 -1.4594  0.3930
19650TIP3   OH280364   5.457   4.596   4.689  0.2360 -0.1217 -0.2373
19650TIP3    H180365   5.405   4.676   4.677 -0.6907 -0.8557 -1.4143
19650TIP3    H280366   5.502   4.585   4.605  0.3777 -0.8092 -0.0686
19651TIP3   OH280367   5.579   4.342  14.588 -0.0273 -0.1187  0.4718
19651TIP3    H180368   5.609   4.327  14.677 -0.4169  1.7906  0.9842
19651TIP3    H280369   5.650   4.309  14.533  0.9884  0.2048  1.5374
19652TIP3   OH280370   0.507   4.909   4.445  0.0597 -0.0660  0.3446
19652TIP3    H180371   0.499   4.980   4.382 -1.6147 -0.7170 -0.2162
19652TIP3    H280372   0.440   4.928   4.511  1.2711  0.1876  1.5497
19653TIP3   OH280373   1.559   2.168  11.184 -0.7133  0.3716 -0.1087
19653TIP3    H180374   1.504   2.111  11.130  2.7833 -1.8845 -1.7102
19653TIP3    H280375   1.589   2.111  11.255  1.2644  0.7531 -0.5795
19654TIP3   OH280376   6.422   4.838   0.989 -0.0975 -0.8038 -0.0370
19654TIP3    H180377   6.331   4.816   0.972 -0.4259 -0.3981  1.1072
19654TIP3    H280378   6.418   4.911   1.051  0.9856 -2.2722  1.8873
19655TIP3   OH280379   3.958   0.231  16.218 -0.1457 -0.5846  0.1727
19655TIP3    H180380   3.933   0.265  16.303 -0.1156 -2.1321  0.8361
19655TIP3    H280381   4.054   0.237  16.216 -0.2535  2.5426 -1.1586
19656TIP3   OH280382   3.226   1.211  11.325 -0.3001  0.4490  0.8781
19656TIP3    H180383   3.210   1.213  11.231  0.6824 -2.5790  0.5248
19656TIP3    H280384   3.211   1.301  11.355  0.4948  1.7586 -2.3272
19657TIP3   OH280385   6.533   6.553   5.729  0.1498 -0.1863  0.0018
19657TIP3    H180386   6.521   6.597   5.645 -1.5481 -1.8696 -0.6911
19657TIP3    H280387   6.627   6.532   5.731  1.3376  4.1407  0.8219
19658TIP3   OH280388   2.605   1.243  12.541 -0.0008 -0.1166 -0.2006
19658TIP3    H180389   2.512   1.219  12.535 -0.1086  0.5554 -1.5084
19658TIP3    H280390   2.647   1.194  12.471  0.6070 -0.2132  0.2204
19659TIP3   OH280391   2.953   4.724  17.004  0.0414  0.0588  0.1249
19659TIP3    H180392   2.916   4.790  16.945  1.1735  1.0094  0.4399
19659TIP3    H280393   3.011   4.673  16.948 -0.1250 -0.0803  0.0783
19660TIP3   OH280394   3.432   4.061   5.050  0.2714 -0.6626  0.1745
19660TIP3    H180395   3.422   4.127   5.118 -1.2881  0.4120 -1.0301
19660TIP3    H280396   3.482   4.105   4.981 -2.3745  0.0022 -1.4540
19661TIP3   OH280397   5.636   4.675   3.136 -0.0240 -0.0520  0.0399
19661TIP3    H180398   5.686   4.593   3.137  0.1123  0.0340  0.6070
19661TIP3    H280399   5.562   4.657   3.079  1.0121  0.0246 -1.4024
19662TIP3   OH280400   1.100   0.809  13.370  0.0084  0.0988 -0.1500
19662TIP3    H180401   1.141   0.821  13.284 -0.6869  1.3373 -0.3200
19662TIP3    H280402   1.073   0.896  13.397 -2.9783 -0.6885 -0.2699
19663TIP3   OH280403   5.442   2.834  15.393 -0.2439  0.7509 -0.5026
19663TIP3    H180404   5.478   2.789  15.316  1.1695 -1.6920  1.4528
19663TIP3    H280405   5.348   2.816  15.390 -0.0904  0.0320 -1.2321
19664TIP3   OH280406   0.776   2.931  13.432  0.2292 -0.5891  0.0993
19664TIP3    H180407   0.781   3.027  13.428 -0.9174 -0.4317  1.5679
19664TIP3    H280408   0.734   2.906  13.350 -0.6972  0.2976  0.2787
19665TIP3   OH280409   5.655   3.637  15.038  0.5235 -0.0040  0.3497
19665TIP3    H180410   5.574   3.653  14.989 -0.0250  0.3258  1.3208
19665TIP3    H280411   5.660   3.710  15.100  1.5681 -0.0286  0.3124
19666TIP3   OH280412   4.810   2.588   3.954  0.4117  0.1652  0.4205
19666TIP3    H180413   4.808   2.683   3.965 -1.5764 -0.0188  2.2768
19666TIP3    H280414   4.903   2.565   3.960  0.8526  1.8981  0.8099
19667TIP3   OH280415   0.461   5.115  11.078 -0.0234  0.4991 -0.4622
19667TIP3    H180416   0.421   5.097  10.993  0.5773 -0.3618 -0.5784
19667TIP3    H280417   0.476   5.029  11.116 -0.5111  0.8881  0.6283
19668TIP3   OH280418   4.983   2.270   6.113 -0.1804 -0.1917 -0.5515
19668TIP3    H180419   5.051   2.295   6.050  0.0084 -1.5549 -0.9164
19668TIP3    H280420   4.982   2.342   6.176  2.0718 -0.4038 -0.1565
19669TIP3   OH280421   5.693   1.043   0.105 -0.3838  0.2273 -0.5791
19669TIP3    H180422   5.689   1.068   0.197  0.4778  0.3426 -0.5653
19669TIP3    H280423   5.641   1.109   0.060 -0.5521  0.3516 -0.2058
19670TIP3   OH280424   2.005   5.465   1.340 -0.5478  0.0562  0.4572
19670TIP3    H180425   2.022   5.555   1.312 -0.2632 -0.0571  0.2596
19670TIP3    H280426   1.994   5.416   1.259 -2.7641  0.2816  0.5674
19671TIP3   OH280427   1.760   2.861  16.524  0.6208 -0.0180  0.0523
19671TIP3    H180428   1.671   2.879  16.493  0.6869 -0.1799 -0.2319
19671TIP3    H280429   1.748   2.803  16.599  0.5435 -0.9899 -0.6961
19672TIP3   OH280430   1.825   1.823  14.255 -0.7029 -0.0466 -0.0432
19672TIP3    H180431   1.853   1.913  14.239 -0.2313 -0.1034  0.4572
19672TIP3    H280432   1.905   1.776  14.278 -1.1694 -0.2361  1.2885
19673TIP3   OH280433   0.692   5.817  16.985 -0.4414  0.1490  0.6569
19673TIP3    H180434   0.613   5.825  17.039 -0.1181  0.0079  1.1523
19673TIP3    H280435   0.707   5.723  16.977 -1.0827  0.1276 -0.5633
19674TIP3   OH280436   4.756   3.662   4.761  0.3524  0.2109  0.1074
19674TIP3    H180437   4.708   3.711   4.827 -0.6641 -1.0579  0.3499
19674TIP3    H280438   4.699   3.663   4.684  0.1549 -0.8565  0.2279
19675TIP3   OH280439   4.285   1.046  10.591 -0.6872  0.5141 -0.1650
19675TIP3    H180440   4.327   0.966  10.621 -1.6445  0.6991  1.8644
19675TIP3    H280441   4.264   1.029  10.499  0.4000 -0.9922 -0.1741
19676TIP3   OH280442   2.348   0.777   3.771 -0.1179 -0.0092 -0.1570
19676TIP3    H180443   2.437   0.754   3.800 -0.3574 -1.9953 -0.8663
19676TIP3    H280444   2.317   0.838   3.838  1.0804 -0.7730  1.1702
19677TIP3   OH280445   0.188   5.157  12.787 -0.6583  0.1844  0.2212
19677TIP3    H180446   0.162   5.067  12.810 -0.3440  0.6415  2.6601
19677TIP3    H280447   0.111   5.193  12.744 -1.3176 -0.8253  0.5019
19678TIP3   OH280448   1.418   1.050   1.456  0.1162 -0.3053  0.7623
19678TIP3    H180449   1.449   1.112   1.521 -0.0402  0.7526 -0.1530
19678TIP3    H280450   1.468   0.970   1.474  0.7230  0.2469  1.5940
19679TIP3   OH280451   2.468   6.613   4.468  0.2535  0.0756  0.2148
19679TIP3    H180452   2.504   6.589   4.554  0.1340  1.1506  0.5815
19679TIP3    H280453   2.510   6.696   4.447  0.6593 -0.4218 -1.0139
19680TIP3   OH280454   3.752   5.388   3.280 -0.2480 -0.0461 -0.0572
19680TIP3    H180455   3.736   5.475   3.243 -0.0843  0.1997  0.4314
19680TIP3    H280456   3.839   5.395   3.319  0.7398 -1.1094 -1.9466
19681TIP3   OH280457   1.750   4.334  14.256 -0.3386  0.0097 -0.8193
19681TIP3    H180458   1.824   4.274  14.247 -0.8220 -0.4965 -1.5541
19681TIP3    H280459   1.736   4.369  14.169 -1.3939 -0.4402 -0.8566
19682TIP3   OH280460   5.572   1.128  12.278  0.2784 -0.0682 -0.3240
19682TIP3    H180461   5.658   1.152  12.243  0.5281 -1.2230 -0.5396
19682TIP3    H280462   5.527   1.212  12.289  1.1777  0.5065 -0.8517
19683TIP3   OH280463   5.617   2.327  16.505  0.1207 -0.4821  0.3847
19683TIP3    H180464   5.628   2.270  16.581 -0.9314 -0.4949  0.5335
19683TIP3    H280465   5.560   2.398  16.536  1.4953  0.7466  0.2490
19684TIP3   OH280466   2.915   6.399   1.911  0.0816  0.0660 -0.3885
19684TIP3    H180467   2.943   6.464   1.847 -0.2136  0.6496  0.0661
19684TIP3    H280468   2.829   6.370   1.880 -0.4000  0.9021  0.1407
19685TIP3   OH280469   3.221   6.188  14.517  0.5232  0.0948 -0.2748
19685TIP3    H180470   3.259   6.275  14.529  1.3140 -0.4846  1.7584
19685TIP3    H280471   3.281   6.129  14.562 -1.0099 -1.2914  0.0480
19686TIP3   OH280472   3.432   3.688  11.171  0.0338 -0.0220 -0.0277
19686TIP3    H180473   3.467   3.601  11.193 -3.3547 -1.2938  0.9949
19686TIP3    H280474   3.469   3.708  11.085  1.7134 -1.9861  0.1629
19687TIP3   OH280475   6.286   2.067  16.090 -0.1263 -0.1671 -0.4394
19687TIP3    H180476   6.228   2.052  16.016  0.1560 -0.7756 -0.5458
19687TIP3    H280477   6.270   2.158  16.115 -1.2439 -0.3756 -0.3571
19688TIP3   OH280478   3.849   4.582   1.863  0.9470  0.4735  0.2285
19688TIP3    H180479   3.849   4.547   1.774  2.2577 -1.7021  0.9938
19688TIP3    H280480   3.917   4.649   1.862  1.8914 -0.4502 -0.1348
19689TIP3   OH280481   2.782   1.592   4.956 -0.0494 -0.6590  0.6590
19689TIP3    H180482   2.789   1.618   5.048  1.2138 -1.4134  0.8043
19689TIP3    H280483   2.843   1.650   4.910 -0.5668 -0.3817  0.3088
19690TIP3   OH280484   4.760   3.238   1.089  0.4851  0.5829  0.2700
19690TIP3    H180485   4.812   3.315   1.112 -1.7794  2.6662 -1.0477
19690TIP3    H280486   4.676   3.274   1.059 -0.9730 -2.4616  0.2970
19691TIP3   OH280487   6.083   5.803   2.920 -0.2565  0.0682  0.3068
19691TIP3    H180488   6.130   5.883   2.899 -1.7903  0.8348 -0.3436
19691TIP3    H280489   6.090   5.795   3.015  1.9475 -0.3754  0.1682
19692TIP3   OH280490   5.376   6.521  13.308  0.0189 -0.0891  0.4364
19692TIP3    H180491   5.435   6.447  13.298  1.1157  0.9475 -1.3619
19692TIP3    H280492   5.432   6.598  13.300 -0.9064  1.0311  3.2975
19693TIP3   OH280493   4.572   3.467  15.573  0.3168  0.1338 -0.1462
19693TIP3    H180494   4.519   3.391  15.548  1.2475 -1.6596  2.8409
19693TIP3    H280495   4.649   3.462  15.515 -1.6450  1.6554 -3.1743
19694TIP3   OH280496   1.057   6.707   0.281  0.2798 -0.4961  0.5148
19694TIP3    H180497   1.141   6.738   0.316 -0.0784  0.2125  0.7758
19694TIP3    H280498   1.046   6.620   0.318  0.9005 -0.5934  0.4780
19695TIP3   OH280499   1.379   5.713   3.362  0.6030  0.4870  0.8403
19695TIP3    H180500   1.364   5.793   3.412 -0.1425 -0.0063  1.4317
19695TIP3    H280501   1.313   5.652   3.395 -0.2057  0.2708 -1.0606
19696TIP3   OH280502   5.960   2.424   3.665 -0.2855 -0.8963  0.4249
19696TIP3    H180503   5.955   2.392   3.755  1.1016 -0.4467  0.6830
19696TIP3    H280504   6.053   2.443   3.652 -0.8594  2.1140 -0.0098
19697TIP3   OH280505   4.824   6.302   3.417  0.1816 -0.1971 -0.0436
19697TIP3    H180506   4.916   6.322   3.433  0.2289 -0.3442 -0.1345
19697TIP3    H280507   4.787   6.287   3.504  0.2925 -0.3552 -0.0251
19698TIP3   OH280508   0.702   6.241   1.616 -0.6025 -0.7427 -0.0489
19698TIP3    H180509   0.607   6.231   1.624 -0.5833 -1.3760 -0.6128
19698TIP3    H280510   0.726   6.184   1.543  0.0612  0.2578 -0.6336
19699TIP3   OH280511   4.531   5.295  13.174  0.1793 -0.3494  0.1953
19699TIP3    H180512   4.550   5.215  13.125  0.3465  0.0601 -0.4243
19699TIP3    H280513   4.450   5.328  13.135  0.8877  0.5506 -0.5411
19700TIP3   OH280514   2.876   3.562   3.124  0.5202  0.0864 -0.0823
19700TIP3    H180515   2.823   3.483   3.111 -1.3059  0.9499  1.5818
19700TIP3    H280516   2.959   3.543   3.081 -0.1368 -2.4392 -0.3727
19701TIP3   OH280517   4.423   1.148   0.717 -0.9193 -0.4636  0.1262
19701TIP3    H180518   4.447   1.204   0.790 -0.4518  1.1842 -1.2163
19701TIP3    H280519   4.505   1.133   0.670 -1.6598  1.2627 -1.8612
19702TIP3   OH280520   6.130   5.277   5.980 -0.2885 -0.3596  0.3613
19702TIP3    H180521   6.111   5.190   5.944 -0.2003  0.2859 -1.3259
19702TIP3    H280522   6.060   5.333   5.947  0.3979  0.4802  0.2804
19703TIP3   OH280523   5.509   5.100   1.489  0.5944 -0.0823 -0.1949
19703TIP3    H180524   5.504   5.033   1.421  3.3118  0.2413 -0.8262
19703TIP3    H280525   5.490   5.182   1.444  2.9174  0.2001 -0.7982
19704TIP3   OH280526   3.974   5.289   5.231 -0.2667  0.9586 -0.3184
19704TIP3    H180527   3.915   5.232   5.281  1.1675  0.2161  0.5857
19704TIP3    H280528   3.996   5.238   5.153  1.2258  0.0918  0.6164
19705TIP3   OH280529   3.747   6.631   4.936 -0.6053 -0.0747  0.4209
19705TIP3    H180530   3.780   6.686   5.007 -3.6437  1.7059  0.6669
19705TIP3    H280531   3.721   6.694   4.868 -0.9930 -1.4768 -0.7671
19706TIP3   OH280532   6.565   0.517  16.850 -0.1389  0.5921 -0.0106
19706TIP3    H180533   6.520   0.473  16.921  0.7915 -0.1666  0.1160
19706TIP3    H280534   6.515   0.598  16.837 -0.0487  0.9777  1.8117
19707TIP3   OH280535   3.894   6.614   3.852 -0.0443  0.0014  0.0445
19707TIP3    H180536   3.830   6.564   3.903 -0.2934 -1.2660 -1.4434
19707TIP3    H280537   3.844   6.649   3.778  0.3813  1.5290  0.4445
19708TIP3   OH280538   6.349   5.399   2.147 -0.3755 -0.2852  0.2526
19708TIP3    H180539   6.325   5.463   2.080  0.5001  0.9416  1.0622
19708TIP3    H280540   6.280   5.332   2.143 -2.7548  1.9769  1.0934
19709TIP3   OH280541   4.940   4.498  15.335  0.3019 -0.1290 -0.1307
19709TIP3    H180542   4.962   4.497  15.428  0.3079 -0.9527 -0.1361
19709TIP3    H280543   4.974   4.582  15.304 -0.8134  0.7190  0.8660
19710TIP3   OH280544   4.901   1.998   6.131  0.3068 -0.2651  0.5058
19710TIP3    H180545   4.901   1.961   6.219 -0.0254  0.2981  0.7533
19710TIP3    H280546   4.942   2.084   6.142  0.1477 -0.1416  0.1379
19711TIP3   OH280547   4.980   6.303  14.013 -0.2679 -0.4796  0.1288
19711TIP3    H180548   4.955   6.389  14.048 -0.4533  0.5075 -2.2287
19711TIP3    H280549   5.070   6.291  14.041  0.2306  1.1655 -0.6306
19712TIP3   OH280550   3.042   2.652   1.106 -0.0666 -0.1143 -0.7565
19712TIP3    H180551   2.962   2.705   1.101 -0.5679 -0.6790  0.8840
19712TIP3    H280552   3.015   2.572   1.151  1.2237 -0.7399 -1.0663
19713TIP3   OH280553   2.293   5.319   5.030 -0.4457  0.5132  0.0812
19713TIP3    H180554   2.328   5.241   5.072  0.8419  1.7448  1.3643
19713TIP3    H280555   2.280   5.382   5.101 -0.6774  1.7664 -1.0297
19714TIP3   OH280556   5.301   1.971  12.520  0.5343  0.0598  0.1879
19714TIP3    H180557   5.364   2.029  12.479  0.0360 -0.9431 -2.1568
19714TIP3    H280558   5.314   1.886  12.477 -2.1489 -0.2702 -0.1672
19715TIP3   OH280559   2.737   6.627   2.232 -0.4498  0.1834 -0.9538
19715TIP3    H180560   2.768   6.541   2.202 -1.1740 -0.1099 -0.8816
19715TIP3    H280561   2.812   6.665   2.276 -0.4927 -0.9639  0.1700
19716TIP3   OH280562   4.000   2.992   3.111 -0.3237 -0.1050  0.2876
19716TIP3    H180563   4.003   2.951   3.198  0.0117  0.2767  0.4552
19716TIP3    H280564   3.949   3.072   3.124  0.2521  0.2672  0.2617
19717TIP3   OH280565   1.150   2.324   5.184  0.5429 -0.1547  0.0251
19717TIP3    H180566   1.082   2.373   5.230 -0.4357 -0.9550 -0.5400
19717TIP3    H280567   1.171   2.378   5.108  2.3349  1.2914  1.4583
19718TIP3   OH280568   2.533   5.698   4.449 -0.5059  0.0592  0.0635
19718TIP3    H180569   2.597   5.757   4.408 -0.2312  0.2069  0.6947
19718TIP3    H280570   2.581   5.616   4.461  0.2606  0.7765  2.4252
19719TIP3   OH280571   1.272   4.648   4.760 -0.1031  0.6549  0.0990
19719TIP3    H180572   1.249   4.558   4.738  0.8883  0.2784  0.5362
19719TIP3    H280573   1.355   4.662   4.714 -1.2713  2.0683 -1.7093
19720TIP3   OH280574   1.591   0.331  16.761  0.7509  0.5231 -0.5573
19720TIP3    H180575   1.523   0.284  16.810  0.9602  1.4335  0.6416
19720TIP3    H280576   1.592   0.288  16.676  0.7826 -1.5330  0.4043
19721TIP3   OH280577   5.783   2.399  11.874 -0.0510  0.2928  0.4869
19721TIP3    H180578   5.873   2.371  11.890 -0.4576 -0.7286  1.0713
19721TIP3    H280579   5.729   2.336  11.921 -1.0578  1.3211  0.7737
19722TIP3   OH280580   4.845   1.459   4.361  0.9005  0.5187 -0.1554
19722TIP3    H180581   4.830   1.419   4.275  2.3918 -0.1707 -0.1297
19722TIP3    H280582   4.781   1.530   4.366 -1.1842 -1.2398 -0.6154
19723TIP3   OH280583   0.500   0.441  16.876 -0.8773  0.1299 -0.4863
19723TIP3    H180584   0.469   0.518  16.828 -2.3169 -1.7052 -2.7103
19723TIP3    H280585   0.587   0.466  16.908 -1.7424  3.0224 -0.1379
19724TIP3   OH280586   4.816   0.740   4.865  0.0300 -0.2432 -0.3483
19724TIP3    H180587   4.906   0.763   4.890  0.2531 -1.4764  0.0301
19724TIP3    H280588   4.762   0.771   4.938  0.2623 -0.4187 -0.1019
19725TIP3   OH280589   4.159   3.309  15.415 -0.4357 -0.4635 -0.0952
19725TIP3    H180590   4.162   3.311  15.319 -2.8986 -0.3382 -0.2257
19725TIP3    H280591   4.074   3.271  15.436 -0.4298  0.5378  2.0441
19726TIP3   OH280592   0.681   4.444  16.957 -0.3034  0.2503 -0.1126
19726TIP3    H180593   0.770   4.412  16.975 -0.7172 -0.7347  0.2714
19726TIP3    H280594   0.694   4.517  16.897  0.7437 -0.1226 -0.3709
19727TIP3   OH280595   5.929   0.504   5.205 -0.2178  0.4515 -0.3956
19727TIP3    H180596   5.860   0.556   5.246 -0.7037 -0.2545 -0.3059
19727TIP3    H280597   6.009   0.556   5.218 -0.9045  1.9103 -1.6425
19728TIP3   OH280598   5.205   4.932   2.955  0.7774  0.1866 -0.2983
19728TIP3    H180599   5.160   5.016   2.953  1.2260  0.4170 -1.4151
19728TIP3    H280600   5.252   4.928   2.872  0.4427 -1.3429 -0.4438
19729TIP3   OH280601   3.052   6.466   3.957  0.4707 -0.0109 -0.2466
19729TIP3    H180602   3.082   6.493   3.870 -1.4628  3.2087 -0.0778
19729TIP3    H280603   2.968   6.425   3.942 -0.1913  1.1674  0.0832
19730TIP3   OH280604   5.767   4.789  16.666 -0.3772 -0.6643  0.6298
19730TIP3    H180605   5.785   4.700  16.697  0.4081 -1.3720 -1.6954
19730TIP3    H280606   5.674   4.802  16.685 -0.3594 -1.7195  1.5668
19731TIP3   OH280607   3.912   6.339   0.653  0.4990  0.4974  0.3465
19731TIP3    H180608   3.820   6.319   0.669  0.2744  0.7487 -0.5413
19731TIP3    H280609   3.940   6.386   0.732 -0.6535  2.0598 -0.1003
19732TIP3   OH280610   1.716   3.208   3.210  0.0139 -0.3889 -0.4824
19732TIP3    H180611   1.706   3.192   3.303  0.4414 -0.2947 -0.4197
19732TIP3    H280612   1.626   3.210   3.176 -0.1845  0.4657  0.0709
19733TIP3   OH280613   3.568   4.069   5.699  0.6087 -0.2368 -0.2349
19733TIP3    H180614   3.526   4.087   5.615 -1.8385 -1.9880  0.5326
19733TIP3    H280615   3.638   4.007   5.678 -0.2394 -0.9725 -0.9315
19734TIP3   OH280616   3.661   6.270   1.169 -0.3905  0.2835 -0.4094
19734TIP3    H180617   3.644   6.255   1.262  1.8077 -0.7208 -0.1076
19734TIP3    H280618   3.595   6.217   1.124 -1.0228  0.2091  0.5748
19735TIP3   OH280619   5.998   1.059   2.143 -0.1292 -0.7604 -0.1107
19735TIP3    H180620   6.057   1.124   2.105 -0.9709 -0.8536 -1.6947
19735TIP3    H280621   6.035   1.040   2.229  0.3998  1.4762  0.2354
19736TIP3   OH280622   6.699   5.448   2.053 -0.1904  0.1123  0.0791
19736TIP3    H180623   6.645   5.464   1.976  0.5466  2.1577 -0.0786
19736TIP3    H280624   6.638   5.444   2.126 -0.8856 -1.7179 -0.5428
19737TIP3   OH280625   5.150   1.091   4.946  0.2919  0.2718  0.0822
19737TIP3    H180626   5.068   1.058   4.911 -1.5929  0.0786  4.0729
19737TIP3    H280627   5.180   1.155   4.882 -2.5594 -0.1856 -1.8922
19738TIP3   OH280628   5.577   4.409   2.650  0.2648 -0.1036  0.2464
19738TIP3    H180629   5.586   4.371   2.737  2.3122  1.1087  0.6377
19738TIP3    H280630   5.484   4.427   2.640 -0.1342 -1.1821  1.7610
19739TIP3   OH280631   2.032   4.233   5.776 -0.0286  0.1859  0.3014
19739TIP3    H180632   2.072   4.148   5.793 -1.0452  0.1040  2.5079
19739TIP3    H280633   2.009   4.229   5.683  0.4657 -1.7149  0.2084
19740TIP3   OH280634   1.831   5.241  17.050 -0.0953 -0.0402 -0.2427
19740TIP3    H180635   1.868   5.312  17.103 -0.8763 -0.0878  0.3794
19740TIP3    H280636   1.856   5.263  16.960 -0.6069  1.2049 -0.1041
19741TIP3   OH280637   1.374   4.447  14.148 -0.0240 -0.3083 -0.5836
19741TIP3    H180638   1.431   4.469  14.222 -0.5982  0.0152 -0.2337
19741TIP3    H280639   1.428   4.391  14.093  0.3045 -0.8187  0.2420
19742TIP3   OH280640   3.357   1.993   5.310  0.1758  0.3585  0.3358
19742TIP3    H180641   3.399   1.916   5.274 -2.0180 -0.6343 -0.2131
19742TIP3    H280642   3.282   1.960   5.359 -3.2427  2.2147 -3.1653
19743TIP3   OH280643   0.352   3.526  11.614 -0.4062  0.3424  0.2937
19743TIP3    H180644   0.260   3.553  11.617 -0.3384  0.6100 -0.0352
19743TIP3    H280645   0.394   3.591  11.558  0.0094  0.2937  0.5485
19744TIP3   OH280646   5.019   1.932   5.468 -0.7957 -0.0532  0.2041
19744TIP3    H180647   4.928   1.942   5.441 -0.5752  0.7257 -0.2956
19744TIP3    H280648   5.015   1.909   5.560 -1.5360 -1.3188 -0.1131
19745TIP3   OH280649   3.037   6.249  15.177 -0.5225 -0.3748  0.0402
19745TIP3    H180650   3.109   6.214  15.124 -0.4592 -0.6625  0.3164
19745TIP3    H280651   3.052   6.344  15.177 -0.1410 -0.4319  0.1010
19746TIP3   OH280652   4.408   6.475  13.104 -0.0214 -0.2823  0.5563
19746TIP3    H180653   4.503   6.485  13.112 -0.1948  0.1083  2.4286
19746TIP3    H280654   4.396   6.382  13.083  0.8446  0.1254 -2.2427
19747TIP3   OH280655   4.314   3.400   0.298 -0.0443 -0.2518  0.4110
19747TIP3    H180656   4.391   3.357   0.261  1.0907  1.2320  0.9583
19747TIP3    H280657   4.305   3.481   0.248  1.2280  1.5613  2.9057
19748TIP3   OH280658   3.937   0.143   3.965  0.0819 -0.1832  0.3793
19748TIP3    H180659   3.933   0.211   3.897  0.1775 -0.0667  0.4892
19748TIP3    H280660   4.026   0.150   4.000  0.5402 -1.2578 -0.5159
19749TIP3   OH280661   0.791   2.897  16.087  0.1431  0.2114  0.5617
19749TIP3    H180662   0.746   2.843  16.022  0.9077 -0.0339  0.2330
19749TIP3    H280663   0.863   2.843  16.118 -0.4623  0.1486  1.9487
19750TIP3   OH280664   4.216   5.938  16.949  0.7443  0.0947 -0.1504
19750TIP3    H180665   4.197   5.907  17.037  1.4346  0.0769 -0.0054
19750TIP3    H280666   4.305   5.971  16.954  0.7485  0.1938 -0.8194
19751TIP3   OH280667   0.503   2.694   3.844  0.4234  0.1419 -0.4347
19751TIP3    H180668   0.525   2.772   3.792  0.8274 -0.6873 -1.5487
19751TIP3    H280669   0.587   2.650   3.857  0.1758 -0.1879  0.0511
19752TIP3   OH280670   5.196   1.422   3.766 -0.0551  0.4948 -0.1618
19752TIP3    H180671   5.165   1.471   3.689  0.8667  0.3490 -0.6422
19752TIP3    H280672   5.278   1.383   3.738 -1.0843 -1.9471 -0.0291
19753TIP3   OH280673   5.387   1.438  16.419  0.2410 -0.1363 -0.1661
19753TIP3    H180674   5.419   1.352  16.392  1.2780  0.2913 -0.3614
19753TIP3    H280675   5.450   1.467  16.486 -1.0600 -0.2486  1.1563
19754TIP3   OH280676   2.086   4.344   2.821  0.4154 -0.4221 -0.0039
19754TIP3    H180677   2.100   4.291   2.900  0.1670 -1.1439 -0.4278
19754TIP3    H280678   2.107   4.284   2.749 -0.7802 -0.2409 -0.5250
19755TIP3   OH280679   2.029   0.859   3.030  0.3676  0.2678  0.0562
19755TIP3    H180680   2.004   0.945   2.994  0.9221  0.8237  0.9718
19755TIP3    H280681   1.946   0.822   3.059  0.2478  0.9460  0.6075
19756TIP3   OH280682   2.945   2.028  15.104 -0.5320  0.0725 -0.6093
19756TIP3    H180683   2.900   1.958  15.056 -0.5252  0.7151 -1.5918
19756TIP3    H280684   2.877   2.094  15.119 -0.3207  0.2784 -0.5524
19757TIP3   OH280685   5.335   1.305   1.657  0.6879  0.5889  0.0572
19757TIP3    H180686   5.395   1.235   1.634  0.0667 -0.4952  1.5591
19757TIP3    H280687   5.385   1.360   1.718  0.7245  0.7052 -0.0751
19758TIP3   OH280688   0.335   5.565   5.502  0.1431 -0.1186  0.0784
19758TIP3    H180689   0.423   5.542   5.532 -0.4251 -0.5320  1.5352
19758TIP3    H280690   0.340   5.658   5.481  0.3853  0.4808  2.4657
19759TIP3   OH280691   3.794   3.418   4.892  0.0446 -0.2372 -0.9014
19759TIP3    H180692   3.820   3.494   4.840  0.2701  0.0525 -0.3611
19759TIP3    H280693   3.869   3.400   4.948  0.3617 -1.4284 -1.6715
19760TIP3   OH280694   0.267   5.449  13.179  1.1768  0.2803 -0.6188
19760TIP3    H180695   0.279   5.525  13.123  0.5105  0.6036 -0.3355
19760TIP3    H280696   0.322   5.381  13.140  1.1906  0.6825 -1.3096
19761TIP3   OH280697   1.776   2.846   2.283 -0.0133 -0.0115 -0.7277
19761TIP3    H180698   1.791   2.846   2.188 -0.9732 -1.2863 -0.9150
19761TIP3    H280699   1.770   2.938   2.307 -3.1240  0.3643 -2.5006
19762TIP3   OH280700   6.573   2.750  13.799 -0.2354 -0.5875 -0.2072
19762TIP3    H180701   6.658   2.789  13.780 -0.3986  0.1831  0.5452
19762TIP3    H280702   6.562   2.763  13.893  0.1217 -3.3403  0.2993
19763TIP3   OH280703   5.369   1.484   4.416 -0.2374 -0.3323  0.6346
19763TIP3    H180704   5.454   1.491   4.459  0.1411  2.7484 -0.3338
19763TIP3    H280705   5.313   1.544   4.465 -1.2379 -0.7038 -0.0325
19764TIP3   OH280706   2.488   2.729  15.566  0.0386 -0.3279  1.2268
19764TIP3    H180707   2.421   2.739  15.499 -0.7049  1.2808  2.1505
19764TIP3    H280708   2.461   2.653  15.618 -0.7151 -0.0780  1.1975
19765TIP3   OH280709   0.509   3.476  15.353 -0.1424 -0.1071  0.5524
19765TIP3    H180710   0.575   3.417  15.317  1.9179  0.2506  3.4219
19765TIP3    H280711   0.427   3.428  15.343  0.6089 -1.0590 -2.0938
19766TIP3   OH280712   4.326   1.259  14.698 -0.3072  0.7012  0.2692
19766TIP3    H180713   4.413   1.267  14.658  0.1937  0.7261  1.3211
19766TIP3    H280714   4.271   1.319  14.648 -0.1056 -0.4721 -1.4086
19767TIP3   OH280715   1.570   4.721   1.629 -0.5422 -0.1917 -0.4140
19767TIP3    H180716   1.612   4.706   1.714  0.8772 -1.4064 -1.2761
19767TIP3    H280717   1.629   4.781   1.584 -1.0162  0.0236 -0.7554
19768TIP3   OH280718   4.070   4.623  12.768  0.0442 -0.0304  0.5890
19768TIP3    H180719   4.103   4.600  12.854  0.2750  0.2994  0.5918
19768TIP3    H280720   3.999   4.685  12.785  0.1143  0.0641  0.5439
19769TIP3   OH280721   0.358   2.116   4.881 -0.1437 -0.0782 -0.2513
19769TIP3    H180722   0.299   2.081   4.947 -0.3972  0.9301  0.0633
19769TIP3    H280723   0.315   2.195   4.849  0.3811 -0.0877 -1.0153
19770TIP3   OH280724   0.754   6.689  12.824  0.1616  0.3207 -0.1781
19770TIP3    H180725   0.666   6.713  12.795 -0.2235  0.6527  1.1713
19770TIP3    H280726   0.795   6.773  12.846  0.0984  0.0372  1.0868
19771TIP3   OH280727   4.753   0.163   4.706  0.2725 -0.1233 -0.6526
19771TIP3    H180728   4.827   0.224   4.699 -0.0253  0.1647 -1.3385
19771TIP3    H280729   4.704   0.175   4.625 -1.2333  0.6177  0.3031
19772TIP3   OH280730   2.194   2.775  14.405  0.6929  0.3680  0.0024
19772TIP3    H180731   2.243   2.697  14.427 -0.8702 -0.1032  2.1142
19772TIP3    H280732   2.103   2.753  14.425 -0.0153  2.1600 -0.9917
19773TIP3   OH280733   4.156   0.305   3.201  0.8244  0.0470 -0.2034
19773TIP3    H180734   4.141   0.283   3.109 -0.5003  0.5857 -0.1372
19773TIP3    H280735   4.083   0.362   3.225  0.0967 -1.5261  1.6713
19774TIP3   OH280736   0.169   5.458  14.641  0.2076  0.6721 -0.5491
19774TIP3    H180737   0.152   5.552  14.647 -1.5560  0.3958 -0.3899
19774TIP3    H280738   0.147   5.424  14.727 -0.3630 -0.0271 -0.9517
19775TIP3   OH280739   0.381   2.936  14.504 -0.6623 -0.3585 -0.5058
19775TIP3    H180740   0.423   2.958  14.587  0.8377 -0.6393 -1.1532
19775TIP3    H280741   0.312   3.002  14.494  0.2556  0.7342  0.1354
19776TIP3   OH280742   3.962   6.491   4.816 -0.2630 -0.4548  0.0201
19776TIP3    H180743   3.924   6.407   4.791 -0.2096 -0.2350 -0.8229
19776TIP3    H280744   3.894   6.534   4.868  0.0173 -1.3515  1.1958
19777TIP3   OH280745   1.986   0.929   5.739 -0.2748  0.3694  0.3284
19777TIP3    H180746   2.049   0.959   5.804  0.2594  1.2831 -0.5822
19777TIP3    H280747   2.013   0.840   5.718 -0.2979  0.1593  1.1514
19778TIP3   OH280748   0.395   6.423  12.290 -0.1359 -0.0522 -0.0909
19778TIP3    H180749   0.452   6.447  12.217 -0.4740 -1.5229 -0.8706
19778TIP3    H280750   0.440   6.455  12.368  0.6837  0.7159 -0.8602
19779TIP3   OH280751   1.158   5.310  13.133 -0.0245 -0.8801 -0.3896
19779TIP3    H180752   1.200   5.391  13.102 -0.5701 -0.4682 -0.0792
19779TIP3    H280753   1.136   5.328  13.224  0.8090 -1.7784  0.0078
19780TIP3   OH280754   6.710   1.629   3.275  0.5169 -0.2205 -0.2112
19780TIP3    H180755   6.705   1.551   3.219  1.1861 -1.1243  0.9390
19780TIP3    H280756   6.618   1.654   3.289  0.1841 -1.8118  0.7238
19781TIP3   OH280757   1.303   4.167   1.121  0.2844  0.6115 -0.2160
19781TIP3    H180758   1.321   4.260   1.113  1.8297  0.4673  1.0100
19781TIP3    H280759   1.301   4.151   1.215 -1.3415 -0.3713 -0.3869
19782TIP3   OH280760   1.704   0.647  15.176 -0.1405  0.2732  0.1510
19782TIP3    H180761   1.679   0.682  15.091  0.4902 -1.0371 -0.6085
19782TIP3    H280762   1.792   0.683  15.192 -0.7015  1.4230  0.8095
19783TIP3   OH280763   5.042   6.755   6.424  0.1214 -0.2013 -0.2205
19783TIP3    H180764   5.076   6.735   6.511  0.5990  2.3250  0.2367
19783TIP3    H280765   4.974   6.689   6.409  0.9072 -1.4677  1.4961
19784TIP3   OH280766   2.714   2.903  12.646 -0.5682 -0.0217 -0.2276
19784TIP3    H180767   2.639   2.845  12.637 -0.1579 -0.5581 -0.2438
19784TIP3    H280768   2.789   2.849  12.621 -0.2366  0.6723 -0.7707
19785TIP3   OH280769   3.967   3.153  15.907 -0.6536 -0.6656 -0.2489
19785TIP3    H180770   4.013   3.227  15.867 -1.3305  0.3777  0.8261
19785TIP3    H280771   4.016   3.136  15.988 -1.0011 -0.8434 -0.0766
19786TIP3   OH280772   2.477   3.768   2.159 -0.1846 -0.1647  0.2757
19786TIP3    H180773   2.503   3.682   2.191 -1.1153 -0.3082  0.6559
19786TIP3    H280774   2.410   3.751   2.093  0.3760  0.2241 -0.4080
19787TIP3   OH280775   4.838   2.477   2.339  0.3401  0.3466  0.0380
19787TIP3    H180776   4.900   2.434   2.280  1.6490 -0.1581  1.6957
19787TIP3    H280777   4.789   2.406   2.380 -0.0250  0.6430  0.1311
19788TIP3   OH280778   4.372   6.493  16.134  0.4689  0.1267  0.2853
19788TIP3    H180779   4.465   6.498  16.155  0.6127  0.0272 -0.3081
19788TIP3    H280780   4.331   6.558  16.190  0.9915  0.6936  0.0226
19789TIP3   OH280781   2.965   2.753   6.105 -0.3008  0.0099 -0.2119
19789TIP3    H180782   2.877   2.762   6.141  0.1937  1.3247  0.7153
19789TIP3    H280783   2.998   2.671   6.142 -0.9661 -0.2636 -0.2176
19790TIP3   OH280784   5.181   2.182   4.412  0.2000 -0.2924  0.7752
19790TIP3    H180785   5.248   2.116   4.400 -0.0658 -0.4091 -0.1806
19790TIP3    H280786   5.099   2.138   4.387 -0.2248 -0.1300  1.8368
19791TIP3   OH280787   3.627   1.717   2.864  0.4569 -0.5892 -0.4488
19791TIP3    H180788   3.660   1.628   2.855  0.5383 -0.7446  1.0338
19791TIP3    H280789   3.703   1.769   2.889  0.3232 -0.1885 -0.8658
19792TIP3   OH280790   3.499   6.098  15.800  0.5655  0.1576 -0.5185
19792TIP3    H180791   3.582   6.051  15.805  0.8892  0.8695  1.4875
19792TIP3    H280792   3.499   6.135  15.711  2.1046 -0.3672 -0.7780
19793TIP3   OH280793   3.738   5.992  16.221  0.0054 -0.4326  0.2731
19793TIP3    H180794   3.726   5.968  16.129  0.9582 -0.3777  0.1176
19793TIP3    H280795   3.799   5.926  16.255  0.0477 -0.1638  0.7274
19794TIP3   OH280796   3.360   1.976  12.770  0.3675 -0.1310 -0.1430
19794TIP3    H180797   3.384   2.055  12.722  1.2059  1.9155  3.2908
19794TIP3    H280798   3.436   1.919  12.761  1.9381  1.5888  1.2962
19795TIP3   OH280799   5.456   6.643   4.770 -0.2392 -0.3047 -0.1443
19795TIP3    H180800   5.381   6.702   4.774  2.3313  3.1907  1.0096
19795TIP3    H280801   5.512   6.680   4.702  1.2547 -1.8376  0.1859
19796TIP3   OH280802   2.261   4.093   4.189 -0.8106  0.3184  0.4595
19796TIP3    H180803   2.256   4.033   4.264 -1.6193  0.9501  0.9201
19796TIP3    H280804   2.302   4.172   4.225 -0.3659  0.2946  0.0137
19797TIP3   OH280805   2.785   6.394   2.568 -0.1703  0.0423  0.3845
19797TIP3    H180806   2.698   6.408   2.531  0.4121  1.7830 -0.4194
19797TIP3    H280807   2.787   6.300   2.589 -1.6901 -0.3487 -0.9736
19798TIP3   OH280808   2.113   1.308  13.927  0.6514  0.0945 -0.5419
19798TIP3    H180809   2.098   1.213  13.920  1.4364 -0.1067  0.3083
19798TIP3    H280810   2.050   1.337  13.993 -0.0306  0.2898 -1.2629
19799TIP3   OH280811   5.694   3.209   5.403  0.0220 -0.1889 -0.1856
19799TIP3    H180812   5.772   3.176   5.447  0.2737  0.3055 -0.2445
19799TIP3    H280813   5.717   3.299   5.380 -0.3703 -0.2156 -0.6865
19800TIP3   OH280814   6.685   4.702   4.629 -0.1104  0.3352 -0.3110
19800TIP3    H180815   6.655   4.793   4.625  1.7279  0.9592 -1.2211
19800TIP3    H280816   6.671   4.667   4.541  0.2714  0.1315 -0.2959
19801TIP3   OH280817   1.146   1.128  16.002  0.4392 -0.4840  0.1444
19801TIP3    H180818   1.201   1.054  16.027 -1.0143 -1.6728 -0.0597
19801TIP3    H280819   1.192   1.169  15.929  0.8752 -1.6808 -0.2757
19802TIP3   OH280820   6.172   4.111  10.897 -0.9374  0.4004 -0.0875
19802TIP3    H180821   6.196   4.073  10.812 -0.4342  1.9611 -0.6868
19802TIP3    H280822   6.093   4.162  10.878  0.1995  2.2344 -0.0624
19803TIP3   OH280823   5.121   5.710  15.179 -0.2863 -0.0655  0.0196
19803TIP3    H180824   5.183   5.648  15.217 -0.0398 -0.3662 -0.8416
19803TIP3    H280825   5.043   5.657  15.160 -1.3124  0.5418  2.2020
19804TIP3   OH280826   3.438   2.888  13.152 -0.2349  0.2467 -0.1350
19804TIP3    H180827   3.471   2.868  13.065  0.2953  2.1463 -0.4334
19804TIP3    H280828   3.504   2.854  13.212  0.9277  1.5331 -0.6266
19805TIP3   OH280829   5.671   0.665   6.136  0.4344  0.5617  0.0482
19805TIP3    H180830   5.649   0.627   6.221  0.9492 -0.3419 -0.2074
19805TIP3    H280831   5.592   0.713   6.109 -0.9647 -1.8631 -0.4554
19806TIP3   OH280832   5.019   5.007  14.969 -0.2435 -0.3649 -0.1065
19806TIP3    H180833   5.093   5.023  14.909 -0.2475 -2.3023 -0.6954
19806TIP3    H280834   5.053   5.028  15.056  0.2604  0.9594 -0.5964
19807TIP3   OH280835   0.042   0.712  16.073 -0.0478 -0.0884  0.9681
19807TIP3    H180836   0.118   0.663  16.042 -1.4244 -0.8903 -1.2927
19807TIP3    H280837   0.050   0.798  16.031 -0.3367 -0.1444  0.7960
19808TIP3   OH280838   6.383   1.127   5.385  0.2937  0.2352 -0.0218
19808TIP3    H180839   6.458   1.140   5.327  0.6330 -0.9215  0.1523
19808TIP3    H280840   6.414   1.156   5.471 -0.0019  1.3212 -0.2587
19809TIP3   OH280841   0.416   2.516   4.698  0.2970 -0.0067 -0.3529
19809TIP3    H180842   0.374   2.591   4.740 -0.8980 -2.0812  2.4765
19809TIP3    H280843   0.421   2.540   4.605 -3.0385  2.2159 -0.1100
19810TIP3   OH280844   2.244   3.549   5.961  0.2219 -0.0636 -0.2983
19810TIP3    H180845   2.221   3.501   6.040 -0.4358  0.3688 -0.2136
19810TIP3    H280846   2.335   3.576   5.974  0.3046 -0.5127  0.0424
19811TIP3   OH280847   3.948   4.429  12.062  0.0347  0.2144  0.1990
19811TIP3    H180848   3.942   4.343  12.021 -0.2727 -0.3054  1.2947
19811TIP3    H280849   3.889   4.424  12.137  1.0077  0.9354  1.0461
19812TIP3   OH280850   0.203   4.936   5.094 -0.6008  0.0732 -0.2902
19812TIP3    H180851   0.289   4.904   5.122 -0.8738  0.7487  1.4815
19812TIP3    H280852   0.167   4.976   5.173 -1.8853  1.2231 -1.4295
19813TIP3   OH280853   3.054   5.343   4.930  0.5781  0.1708  0.4436
19813TIP3    H180854   3.051   5.261   4.882  0.8146  0.0450  0.6419
19813TIP3    H280855   2.990   5.399   4.885  0.6237 -0.0220  0.1298
19814TIP3   OH280856   1.214   5.593  10.954  0.2347  0.0999 -0.4123
19814TIP3    H180857   1.218   5.677  10.909  0.8088 -0.7806 -2.1015
19814TIP3    H280858   1.304   5.560  10.953 -0.4927 -2.1408 -3.1172
19815TIP3   OH280859   4.593   5.393  16.415 -0.1207  0.0320  0.4597
19815TIP3    H180860   4.512   5.441  16.431 -1.5604 -1.5388 -1.5437
19815TIP3    H280861   4.597   5.330  16.487  0.1705  1.1103  1.4145
19816TIP3   OH280862   1.785   4.562  15.332 -0.0084 -0.0659 -0.5151
19816TIP3    H180863   1.747   4.485  15.289  0.1652  0.5083 -1.7306
19816TIP3    H280864   1.869   4.575  15.288  1.3888 -0.9440  1.7145
19817TIP3   OH280865   5.494   3.785  13.296  0.0793 -0.2191 -0.3402
19817TIP3    H180866   5.535   3.842  13.230 -0.0907 -1.0955 -1.2248
19817TIP3    H280867   5.556   3.714  13.308 -1.3938 -1.9576 -2.2361
19818TIP3   OH280868   1.317   3.124  11.115 -0.5595  0.5982 -0.1678
19818TIP3    H180869   1.374   3.170  11.053 -1.5001  0.5805 -1.0675
19818TIP3    H280870   1.362   3.041  11.131 -0.4871  0.4399 -1.1334
19819TIP3   OH280871   2.773   0.972   4.899  0.7150  0.0633 -0.2261
19819TIP3    H180872   2.734   0.986   4.985 -1.0398 -0.0140 -0.9557
19819TIP3    H280873   2.814   1.056   4.877  1.6212 -0.0698  0.8702
19820TIP3   OH280874   5.873   2.299   0.694 -0.5827  0.8922 -0.4172
19820TIP3    H180875   5.835   2.386   0.680 -0.0087  1.2063 -0.0560
19820TIP3    H280876   5.897   2.268   0.607 -0.1751  1.3820 -0.4799
19821TIP3   OH280877   4.408   6.252   4.892 -0.1951 -0.5253  0.6896
19821TIP3    H180878   4.406   6.317   4.822 -0.8314 -0.9301  0.3202
19821TIP3    H280879   4.421   6.304   4.972 -0.3122  0.0155  0.3663
19822TIP3   OH280880   2.225   3.430   2.898 -0.1295 -0.0836  0.0533
19822TIP3    H180881   2.234   3.346   2.943  0.9199  0.3337  0.6532
19822TIP3    H280882   2.239   3.409   2.805  0.6617 -0.4899  0.2620
19823TIP3   OH280883   5.968   3.387  16.594 -0.2138  0.3972  0.0303
19823TIP3    H180884   5.888   3.334  16.589  0.1108 -0.1507  0.6334
19823TIP3    H280885   5.961   3.433  16.678 -0.1092  0.7064 -0.1281
19824TIP3   OH280886   2.772   4.155   0.261 -0.2109  0.1609  0.1449
19824TIP3    H180887   2.790   4.098   0.186  0.1925 -1.7983  1.6426
19824TIP3    H280888   2.785   4.244   0.227 -2.8587 -0.4110 -2.8377
19825TIP3   OH280889   0.947   3.658   4.084  0.6629 -0.4231 -0.0870
19825TIP3    H180890   0.854   3.663   4.062  0.3434 -0.8917  1.0499
19825TIP3    H280891   0.961   3.566   4.109  0.4810  0.3481  3.4389
19826TIP3   OH280892   2.789   1.370  12.735  0.0270 -0.2056  0.1289
19826TIP3    H180893   2.714   1.317  12.709  1.2054 -1.8949  0.0636
19826TIP3    H280894   2.829   1.398  12.652  1.0179 -1.5989  0.1061
19827TIP3   OH280895   3.013   4.127  12.130  0.2703  0.4547 -0.3133
19827TIP3    H180896   3.002   4.199  12.067 -0.3919  1.4145  0.8601
19827TIP3    H280897   2.948   4.062  12.103  0.9332  0.2245 -1.4360
19828TIP3   OH280898   5.294   6.138   2.207 -0.0973 -0.1804 -0.3232
19828TIP3    H180899   5.307   6.099   2.293  0.5064  1.9742  0.6276
19828TIP3    H280900   5.375   6.122   2.160  0.4690  0.6126  0.3601
19829TIP3   OH280901   4.066   0.032  16.028 -0.3285 -0.6859  0.0340
19829TIP3    H180902   4.146  -0.016  16.051  1.4316  1.5049 -1.0953
19829TIP3    H280903   4.051   0.090  16.103 -0.5100 -0.6439 -0.0352
19830TIP3   OH280904   2.503   3.714   0.516 -0.5238  0.2532  0.9236
19830TIP3    H180905   2.466   3.799   0.493 -0.9473 -0.0853  0.3056
19830TIP3    H280906   2.597   3.728   0.520 -0.2943  0.1347 -2.0781
19831TIP3   OH280907   5.808   2.959   2.409 -0.9165 -0.4576  0.2608
19831TIP3    H180908   5.718   2.978   2.385 -0.6066  0.5244 -0.1977
19831TIP3    H280909   5.808   2.964   2.505 -1.5217 -1.3565  0.3188
19832TIP3   OH280910   3.847   1.823   0.250 -0.5671 -0.1748  0.3684
19832TIP3    H180911   3.891   1.875   0.182  0.0812 -1.3932 -0.1876
19832TIP3    H280912   3.772   1.784   0.205 -0.7146 -0.1784  0.6178
19833TIP3   OH280913   2.050   5.872   2.499  0.6171  0.2479 -0.0662
19833TIP3    H180914   1.961   5.850   2.472  1.1741 -1.5170 -0.5607
19833TIP3    H280915   2.094   5.898   2.418  0.5975  1.0263  0.1635
19834TIP3   OH280916   4.125   3.263  16.978  0.6129 -0.5146  0.3141
19834TIP3    H180917   4.114   3.355  16.954 -1.0767 -0.9489 -0.8054
19834TIP3    H280918   4.206   3.236  16.936  0.1323 -0.0091 -0.9882
19835TIP3   OH280919   3.585   6.320   4.710  0.1300 -0.3038  0.0402
19835TIP3    H180920   3.560   6.311   4.802  1.6263  3.1666  0.9440
19835TIP3    H280921   3.560   6.409   4.687  4.2383  0.7008 -1.3371
19836TIP3   OH280922   0.396   5.136   5.630  0.7172  0.0185 -0.4729
19836TIP3    H180923   0.440   5.173   5.554  0.2603 -0.0832 -0.7940
19836TIP3    H280924   0.390   5.042   5.612 -1.9596  0.3299 -1.6907
19837TIP3   OH280925   3.355   5.279  14.323 -0.4722  0.2634 -0.1804
19837TIP3    H180926   3.343   5.361  14.371  1.2540 -0.2144  1.1773
19837TIP3    H280927   3.450   5.269  14.318 -0.6127 -2.3099  0.9372
19838TIP3   OH280928   3.706   3.980   0.747  0.7722 -0.9224 -0.2922
19838TIP3    H180929   3.733   4.066   0.715  0.1861 -0.2478  0.9454
19838TIP3    H280930   3.695   3.993   0.842 -2.6815 -1.4101 -0.5191
19839TIP3   OH280931   0.908   0.098   5.523 -0.0847  0.1794  0.2829
19839TIP3    H180932   0.883   0.047   5.599  2.4850  0.1652  1.2297
19839TIP3    H280933   1.004   0.090   5.519  0.1921  2.8839 -0.9756
19840TIP3   OH280934   1.217   6.257   5.525 -0.4522 -0.0351 -0.1440
19840TIP3    H180935   1.165   6.337   5.520 -0.8252 -0.2183  0.7623
19840TIP3    H280936   1.268   6.257   5.443 -0.4443  1.1200 -0.1530
19841TIP3   OH280937   4.333   4.356  15.978 -0.0917 -0.1589 -0.6826
19841TIP3    H180938   4.308   4.446  15.958  1.1787  0.0288 -1.5650
19841TIP3    H280939   4.283   4.303  15.917 -1.5796 -0.1639  0.4818
19842TIP3   OH280940   1.905   6.414  14.219 -0.4402 -0.2291  0.3992
19842TIP3    H180941   1.873   6.337  14.267  0.8697 -0.7135  0.5411
19842TIP3    H280942   1.945   6.469  14.286  1.1843 -0.7935 -0.0468
19843TIP3   OH280943   0.267   6.376  13.588  0.2406 -0.4780  0.0962
19843TIP3    H180944   0.289   6.327  13.509 -0.5561 -1.7830  0.6537
19843TIP3    H280945   0.350   6.381  13.637  0.1361 -2.1312  0.4789
19844TIP3   OH280946   5.737   0.779  13.933 -0.5088  0.4899  0.5436
19844TIP3    H180947   5.660   0.767  13.878 -0.7659  2.6728  0.3442
19844TIP3    H280948   5.758   0.691  13.965 -1.9991 -0.4054 -0.8127
19845TIP3   OH280949   2.298   5.265  12.971  0.0427 -0.4621  0.3612
19845TIP3    H180950   2.320   5.303  12.886  2.0174 -1.8916  0.1435
19845TIP3    H280951   2.218   5.309  12.998  0.9820  2.1853 -0.8543
19846TIP3   OH280952   3.548   6.731   3.862  0.2955 -0.2662  0.5974
19846TIP3    H180953   3.525   6.655   3.916 -1.2414  0.5114  1.1010
19846TIP3    H280954   3.559   6.695   3.774 -1.4510 -0.9706  0.6130
19847TIP3   OH280955   1.648   3.150  16.833  0.5608 -0.5586 -0.2425
19847TIP3    H180956   1.681   3.068  16.870  1.4115 -0.7198 -1.3219
19847TIP3    H280957   1.659   3.214  16.903 -0.6416 -1.4604  0.8242
19848TIP3   OH280958   0.886   5.584   2.577  0.2955  0.1266  0.0295
19848TIP3    H180959   0.873   5.653   2.642 -1.9608  0.3337 -0.5698
19848TIP3    H280960   0.951   5.619   2.516  0.5171  0.9643  0.7298
19849TIP3   OH280961   5.266   5.975  13.458 -0.0452  0.6481  0.7169
19849TIP3    H180962   5.277   6.061  13.419 -0.8798 -0.2375 -1.6427
19849TIP3    H280963   5.338   5.923  13.422  0.5734  0.3687  2.2784
19850TIP3   OH280964   0.814   3.526   2.412  0.0453 -0.6250  0.5531
19850TIP3    H180965   0.857   3.505   2.329  1.4816  0.0095  1.1106
19850TIP3    H280966   0.854   3.466   2.475 -2.1315 -2.1774  0.5544
19851TIP3   OH280967   3.686   0.138  14.647 -0.2423  0.4378 -0.3233
19851TIP3    H180968   3.748   0.202  14.681  0.0670  0.3557 -0.7224
19851TIP3    H280969   3.736   0.088  14.583  0.2943 -1.9460  1.7959
19852TIP3   OH280970   1.289   1.950  16.395 -0.6021  0.1834  0.2721
19852TIP3    H180971   1.225   1.879  16.395 -2.1549  1.4904  1.4553
19852TIP3    H280972   1.252   2.016  16.336  1.2064 -0.2197 -1.4585
19853TIP3   OH280973   0.765   1.448   0.424 -0.6471  0.7987 -0.5614
19853TIP3    H180974   0.712   1.417   0.498  1.1141 -0.7639  0.1130
19853TIP3    H280975   0.849   1.404   0.434  0.5654  2.6034 -2.0264
19854TIP3   OH280976   1.902   6.747  16.177 -0.6858  0.4075 -0.3922
19854TIP3    H180977   1.868   6.755  16.088 -1.7206 -0.0907 -0.0607
19854TIP3    H280978   1.830   6.779  16.232 -0.0290  0.7681  0.2621
19855TIP3   OH280979   2.148   1.048   1.213 -0.8057 -0.1430 -0.4427
19855TIP3    H180980   2.140   1.030   1.119 -0.9220  0.8838 -0.6357
19855TIP3    H280981   2.062   1.083   1.238 -0.5985  0.1017 -0.0710
19856TIP3   OH280982   5.289   2.805   1.476 -0.4164 -0.0966 -0.1383
19856TIP3    H180983   5.307   2.730   1.418  0.8599  0.0367  0.0643
19856TIP3    H280984   5.336   2.878   1.435  0.5532 -0.0137  1.0770
19857TIP3   OH280985   0.657   6.647  16.017  0.1666 -0.7804  0.6970
19857TIP3    H180986   0.592   6.707  16.052  0.5551  1.2576 -1.7467
19857TIP3    H280987   0.624   6.624  15.930  2.2478 -0.2629 -0.3139
19858TIP3   OH280988   0.773   2.869   2.182  0.3762  0.7923 -0.2706
19858TIP3    H180989   0.767   2.872   2.086  0.6203 -0.1448 -0.3336
19858TIP3    H280990   0.686   2.844   2.211  0.8423 -1.2082 -0.4224
19859TIP3   OH280991   4.580   1.129   1.446  0.0841 -0.5982  0.6023
19859TIP3    H180992   4.636   1.054   1.428 -0.6925 -1.3886  1.3250
19859TIP3    H280993   4.595   1.149   1.538  0.2050  0.0779  0.4426
19860TIP3   OH280994   6.227   2.370  16.847  0.2245 -0.0053 -0.7698
19860TIP3    H180995   6.158   2.372  16.781 -1.7452 -0.7082  1.1499
19860TIP3    H280996   6.252   2.462  16.858  1.5264  0.0478 -3.2761
19861TIP3   OH280997   1.842   1.726   5.559 -0.2030 -0.4722  0.0077
19861TIP3    H180998   1.832   1.631   5.557  1.0322 -0.6105 -0.7151
19861TIP3    H280999   1.825   1.754   5.469 -2.0189  0.1836  0.5188
19862TIP3   OH281000   4.256   0.069  12.572 -0.5751  0.0554  0.0460
19862TIP3    H181001   4.177   0.104  12.530 -0.6738 -0.7268 -0.4457
19862TIP3    H281002   4.242  -0.025  12.573  0.6468 -0.1488 -0.6512
19863TIP3   OH281003   5.886   1.318  13.124 -0.0645  0.1293 -0.5103
19863TIP3    H181004   5.963   1.344  13.174 -0.1679  1.4444 -0.9759
19863TIP3    H281005   5.883   1.223  13.131  0.8848  0.1538  0.5499
19864TIP3   OH281006   4.661   0.795  14.231  0.6347 -0.0679 -0.0988
19864TIP3    H181007   4.737   0.816  14.285  1.0249 -0.1866 -0.5889
19864TIP3    H281008   4.654   0.869  14.170 -0.3092  0.4767  0.6412
19865TIP3   OH281009   2.132   2.567  15.906  0.1901 -0.0137  0.0908
19865TIP3    H181010   2.044   2.605  15.912  0.2157  0.3985 -1.5804
19865TIP3    H281011   2.119   2.474  15.925 -0.7387 -0.0809 -0.7493
19866TIP3   OH281012   0.772   2.749  14.024 -0.5940  0.2072  0.0276
19866TIP3    H181013   0.706   2.680  14.014 -0.1954 -0.1254 -0.3345
19866TIP3    H281014   0.855   2.702  14.028 -0.1047  0.7331 -2.3036
19867TIP3   OH281015   3.073   0.761  12.415 -0.1532  0.1691  0.3271
19867TIP3    H181016   3.095   0.793  12.502 -1.4354  1.7074  0.1300
19867TIP3    H281017   3.146   0.788  12.359 -0.4036  1.2451  0.5054
19868TIP3   OH281018   2.551   3.474  15.846 -0.4811 -0.1649 -0.5286
19868TIP3    H181019   2.556   3.562  15.810  0.0090  0.2989  0.6332
19868TIP3    H281020   2.622   3.469  15.910 -1.4788 -0.8425  0.5893
19869TIP3   OH281021   2.650   1.393   5.204 -0.8384 -0.5747 -0.5078
19869TIP3    H181022   2.731   1.343   5.218 -0.8835 -0.6572 -0.5423
19869TIP3    H281023   2.658   1.467   5.264 -0.7296 -0.5736 -0.5225
19870TIP3   OH281024   6.082   5.889   5.657  0.1913  0.2583  0.2818
19870TIP3    H181025   6.158   5.832   5.667  1.0025  1.5865  2.2061
19870TIP3    H281026   6.017   5.834   5.612  1.7192 -1.4005 -0.0253
19871TIP3   OH281027   5.564   1.091  13.810  0.0615  0.2237 -0.3888
19871TIP3    H181028   5.491   1.151  13.796  0.4183  0.6457 -0.4414
19871TIP3    H281029   5.556   1.027  13.739 -0.9719 -0.4532  0.2939
19872TIP3   OH281030   3.637   5.494   0.225  0.3546 -0.1337  0.3214
19872TIP3    H181031   3.697   5.477   0.152 -0.2980  0.9217 -0.4751
19872TIP3    H281032   3.571   5.553   0.190 -0.3687 -0.1469  1.5829
19873TIP3   OH281033   4.174   5.435   2.946  0.2344 -0.1553 -0.0910
19873TIP3    H181034   4.216   5.492   2.881 -0.3688 -0.8131 -1.0853
19873TIP3    H281035   4.133   5.496   3.008 -1.4868  0.5774 -1.8463
19874TIP3   OH281036   4.646   3.898   6.278 -0.2070 -0.6458 -0.0360
19874TIP3    H181037   4.616   3.867   6.364 -1.2410  0.1390 -0.0949
19874TIP3    H281038   4.611   3.987   6.271  1.9918  0.2839 -0.2186
19875TIP3   OH281039   6.357   5.988  17.209 -0.0199 -0.4703  0.9291
19875TIP3    H181040   6.315   5.991  17.123 -1.6740 -4.3856  1.3953
19875TIP3    H281041   6.448   5.965  17.190 -0.0480 -0.0422  0.2214
19876TIP3   OH281042   4.578   5.489  15.350  0.6557 -0.2518  0.1509
19876TIP3    H181043   4.637   5.434  15.298  0.0883 -1.0111  0.2944
19876TIP3    H281044   4.513   5.428  15.384 -0.7982  0.7141 -0.8127
19877TIP3   OH281045   1.377   3.851   4.455 -0.2555  0.2451  0.4492
19877TIP3    H181046   1.356   3.885   4.368  1.8377  0.2563 -0.0969
19877TIP3    H281047   1.354   3.758   4.451 -0.1900  0.2493 -0.0944
19878TIP3   OH281048   1.476   5.046   2.077  0.2599 -0.2044  0.5030
19878TIP3    H181049   1.499   5.069   1.987  1.0923 -0.3177  0.6771
19878TIP3    H281050   1.395   5.093   2.095  0.4719  0.3775 -0.0676
19879TIP3   OH281051   5.616   2.125  13.133  0.4210 -0.1912 -0.6881
19879TIP3    H181052   5.618   2.039  13.175  1.2467  0.4662  0.6836
19879TIP3    H281053   5.581   2.108  13.045 -1.7747 -1.5326  0.3750
19880TIP3   OH281054   5.546   1.420  13.931 -0.4054 -0.1847 -0.2284
19880TIP3    H181055   5.618   1.460  13.883  0.9787 -2.3625 -0.0928
19880TIP3    H281056   5.467   1.459  13.894  0.7724  1.4157 -1.1732
19881TIP3   OH281057   2.341   4.055   1.156 -0.2711  0.7057 -0.0496
19881TIP3    H181058   2.413   4.016   1.107 -1.1104 -0.5389 -0.3361
19881TIP3    H281059   2.308   3.984   1.211 -1.2200  1.2749  0.1421
19882TIP3   OH281060   0.513   5.918   1.380 -0.2345 -0.3598 -0.1028
19882TIP3    H181061   0.428   5.941   1.418 -0.7229  0.0095 -1.3961
19882TIP3    H281062   0.564   5.999   1.385  0.1866 -0.6719  0.9952
19883TIP3   OH281063   0.839   1.527  13.126  0.1486  0.3697  0.2123
19883TIP3    H181064   0.875   1.571  13.203 -0.9715 -0.2368  1.1003
19883TIP3    H281065   0.913   1.479  13.089  0.2907 -0.9105  2.0320
19884TIP3   OH281066   2.614   0.681   3.743  0.0185 -0.1466 -0.1732
19884TIP3    H181067   2.678   0.726   3.798 -1.9367  0.1293  2.0883
19884TIP3    H281068   2.597   0.599   3.789 -0.2366 -0.8457 -1.4701
19885TIP3   OH281069   4.126   2.030  14.480 -0.2190  0.1833 -0.7504
19885TIP3    H181070   4.190   2.015  14.410  1.2835 -0.1599  0.6468
19885TIP3    H281071   4.042   2.039  14.434  0.9469  1.7061 -2.7329
19886TIP3   OH281072   3.862   1.230  17.183  0.5145  0.4789 -0.3794
19886TIP3    H181073   3.838   1.320  17.205  0.0965  0.2316  0.1804
19886TIP3    H281074   3.802   1.206  17.112 -2.1553 -0.7126  2.1048
19887TIP3   OH281075   4.480   4.528  12.803 -0.1183 -0.9964 -0.3866
19887TIP3    H181076   4.414   4.459  12.803 -2.6802  1.2465  0.6427
19887TIP3    H281077   4.522   4.522  12.889  0.3434 -1.8121 -0.6616
19888TIP3   OH281078   2.836   3.796   0.547 -0.2005  0.1551 -0.1156
19888TIP3    H181079   2.823   3.880   0.504  4.0097  1.0051 -0.2365
19888TIP3    H281080   2.831   3.816   0.641 -1.8239 -0.0791 -0.1332
19889TIP3   OH281081   0.015   2.738   1.885  0.6141  0.1024 -0.3452
19889TIP3    H181082   0.009   2.764   1.977  0.9017  0.2521 -0.3652
19889TIP3    H281083   0.015   2.821   1.836  2.6965  0.1666 -0.3426
19890TIP3   OH281084   5.358   2.930   2.556  0.2383 -0.5245  0.0201
19890TIP3    H181085   5.349   2.943   2.651  1.6355 -0.6705  0.1932
19890TIP3    H281086   5.311   2.849   2.538  0.1574 -0.6168  0.6247
19891TIP3   OH281087   1.786   1.589   0.016 -0.1886 -0.1664 -0.3736
19891TIP3    H181088   1.814   1.680   0.022  0.4404 -0.2801 -1.4300
19891TIP3    H281089   1.708   1.584   0.072  0.0495  0.8970  0.0668
19892TIP3   OH281090   1.543   3.035  14.120  0.2553  0.5085 -0.8114
19892TIP3    H181091   1.581   2.983  14.191  1.0486 -0.8837 -2.1955
19892TIP3    H281092   1.618   3.077  14.078 -0.1839  1.1413 -0.9846
19893TIP3   OH281093   4.940   3.954  15.937  0.4731  0.2731 -0.0627
19893TIP3    H181094   4.889   3.939  15.858  0.9083 -0.8743 -0.1492
19893TIP3    H281095   5.007   3.886  15.935  0.0882 -0.2019  1.6287
19894TIP3   OH281096   6.720   0.947   0.223 -0.7865 -0.3024  0.2863
19894TIP3    H181097   6.748   1.034   0.252 -2.2604 -0.3778  2.1680
19894TIP3    H281098   6.642   0.929   0.275 -1.7978 -1.8494 -1.6435
19895TIP3   OH281099   2.330   5.824  15.240 -0.2080 -0.5156 -0.6711
19895TIP3    H181100   2.423   5.847  15.241 -0.3406  0.1676 -1.6974
19895TIP3    H281101   2.326   5.743  15.189 -0.3007  0.2423 -1.9222
19896TIP3   OH281102   4.052   5.489   3.753 -0.0647  0.1466 -0.0694
19896TIP3    H181103   4.118   5.442   3.702 -1.6013 -0.7202 -1.3403
19896TIP3    H281104   4.084   5.579   3.756  1.6430 -0.4172  0.2160
19897TIP3   OH281105   0.222   3.505  16.996  0.2556  0.5232 -0.3438
19897TIP3    H181106   0.157   3.573  17.012 -0.4205 -0.3858  0.9918
19897TIP3    H281107   0.178   3.424  17.020  1.7432 -0.1508  0.2111
19898TIP3   OH281108   0.075   5.231   0.564  0.0216 -0.1112  0.5230
19898TIP3    H181109  -0.009   5.254   0.524  0.9796  0.1957 -1.4049
19898TIP3    H281110   0.073   5.274   0.649 -1.5307  0.3671  0.2834
19899TIP3   OH281111   4.993   1.221   6.245 -0.0684  0.3438  0.4757
19899TIP3    H181112   4.909   1.224   6.291  0.8454  0.3484  2.2400
19899TIP3    H281113   5.058   1.206   6.314  1.3713  0.1007 -0.8613
19900TIP3   OH281114   5.537   2.446   5.240  0.8119  0.0053  0.0924
19900TIP3    H181115   5.631   2.456   5.229  0.9242  0.2717  1.1773
19900TIP3    H281116   5.522   2.461   5.334 -0.5400  1.9110 -0.3671
19901TIP3   OH281117   4.573   5.099  17.243  0.2162  0.1709 -0.0549
19901TIP3    H181118   4.493   5.136  17.207  0.2033 -0.3185 -0.5402
19901TIP3    H281119   4.547   5.060  17.326  0.2710  1.4181  0.5711
19902TIP3   OH281120   2.499   6.385  14.225  0.5280 -0.4079 -0.0260
19902TIP3    H181121   2.510   6.374  14.130  1.8364  2.0355 -0.2305
19902TIP3    H281122   2.424   6.443  14.234  0.2372 -0.8503  0.4653
19903TIP3   OH281123   1.544   5.133  13.289  0.2020 -0.3349 -0.0389
19903TIP3    H181124   1.554   5.038  13.289 -2.2257 -0.6697 -0.7761
19903TIP3    H281125   1.506   5.152  13.375  0.3715 -0.0831 -0.0216
19904TIP3   OH281126   5.252   5.126  14.881 -0.1821 -0.1762 -0.2184
19904TIP3    H181127   5.281   5.075  14.806 -1.4701 -2.0009  0.4640
19904TIP3    H281128   5.302   5.208  14.875  1.3026 -1.1396 -1.8390
19905TIP3   OH281129   2.995   6.508  14.761 -0.4925 -0.0778  0.5638
19905TIP3    H181130   2.930   6.536  14.826 -0.4164  1.2503  0.1091
19905TIP3    H281131   3.066   6.471  14.813  0.9731  3.6987  1.6027
19906TIP3   OH281132   2.601   2.757  16.621 -0.4762  0.0874  0.0926
19906TIP3    H181133   2.599   2.712  16.537 -0.6084  0.6665 -0.2248
19906TIP3    H281134   2.677   2.816  16.614  1.1582 -1.7364  1.3848
19907TIP3   OH281135   3.855   5.540  16.974 -0.1978 -0.1522 -1.1811
19907TIP3    H181136   3.905   5.618  16.950  0.3674  0.8529  2.6339
19907TIP3    H281137   3.920   5.478  17.006 -0.9294 -0.9866 -1.2501
19908TIP3   OH281138   4.247   0.598   1.264 -0.0253  0.0206  0.4346
19908TIP3    H181139   4.157   0.622   1.284  0.3746  1.2798  0.7951
19908TIP3    H281140   4.268   0.647   1.185  0.2101 -0.5982  0.1087
19909TIP3   OH281141   4.320   4.395   4.379 -0.0537 -0.4284 -0.5675
19909TIP3    H181142   4.405   4.369   4.413 -0.0980  0.7723  0.5372
19909TIP3    H281143   4.257   4.347   4.432 -0.0965  0.5518  0.3007
19910TIP3   OH281144   4.383   0.379   4.057  0.3574  0.5490  0.4407
19910TIP3    H181145   4.392   0.418   4.144  1.8434  1.8838 -0.2618
19910TIP3    H281146   4.414   0.447   3.997  1.0408 -0.9711 -1.0004
19911TIP3   OH281147   6.103   5.195  16.982  0.4500 -0.3375  1.0407
19911TIP3    H181148   6.176   5.137  17.004  0.6204 -0.1823  0.8844
19911TIP3    H281149   6.080   5.237  17.064  0.9891  0.1322  0.9521
19912TIP3   OH281150   1.770   2.309   0.203  0.6220 -0.3089 -0.6021
19912TIP3    H181151   1.864   2.325   0.216  0.5899  2.0336 -2.6142
19912TIP3    H281152   1.766   2.258   0.122  0.1454 -0.7391 -0.3134
19913TIP3   OH281153   3.537   1.132   3.687 -0.6477 -0.4658 -0.0117
19913TIP3    H181154   3.629   1.159   3.690 -0.6784 -0.1450 -1.2931
19913TIP3    H281155   3.522   1.108   3.596 -1.8986 -0.2873  0.1251
19914TIP3   OH281156   3.867   5.401  11.642 -0.0628 -0.1365 -0.1456
19914TIP3    H181157   3.819   5.474  11.682 -1.2544 -0.0459 -1.6613
19914TIP3    H281158   3.835   5.397  11.552  3.6201  0.6386 -1.6501
19915TIP3   OH281159   0.167   4.251  11.682 -0.1198  0.0009 -0.0582
19915TIP3    H181160   0.122   4.207  11.610 -0.3012  0.6044 -0.3224
19915TIP3    H281161   0.102   4.251  11.753 -0.8313  1.4974 -0.6654
19916TIP3   OH281162   5.789   1.130   5.920 -0.3446  0.3425 -0.3466
19916TIP3    H181163   5.760   1.197   5.858  0.3930  1.1781  0.1843
19916TIP3    H281164   5.782   1.172   6.006 -1.6824 -0.9177  0.1987
19917TIP3   OH281165   5.365   5.689   1.780  0.6664 -0.6798  0.3087
19917TIP3    H181166   5.327   5.611   1.820 -0.0149  0.5861  2.2968
19917TIP3    H281167   5.393   5.743   1.855  0.6111  1.2083 -0.9563
19918TIP3   OH281168   1.644   0.622  13.693 -0.3825  0.3615 -0.1059
19918TIP3    H181169   1.691   0.559  13.638 -0.5341  0.6938 -0.6291
19918TIP3    H281170   1.710   0.687  13.718  0.0263 -0.5505  1.3188
19919TIP3   OH281171   4.116   3.356  11.194 -0.1891  0.0362 -0.4535
19919TIP3    H181172   4.060   3.379  11.268 -1.3904  1.0021 -1.6141
19919TIP3    H281173   4.081   3.273  11.162 -0.7897  0.4947 -1.0009
19920TIP3   OH281174   0.524   0.766   3.344 -0.0670 -0.6275 -0.0004
19920TIP3    H181175   0.440   0.764   3.390 -0.1849  0.3042 -0.1642
19920TIP3    H281176   0.582   0.814   3.402  0.1585 -0.6440 -0.2138
19921TIP3   OH281177   5.065   3.107  14.579  0.8479  0.3799 -0.0791
19921TIP3    H181178   5.023   3.025  14.552 -0.7517  1.6831 -1.8791
19921TIP3    H281179   5.157   3.084  14.592  0.1371 -2.0420  1.2907
19922TIP3   OH281180   3.583   6.275   5.430 -0.6622 -0.4607  0.2423
19922TIP3    H181181   3.616   6.254   5.343 -3.7522 -2.0875 -0.6630
19922TIP3    H281182   3.656   6.255   5.489  0.5425 -2.2208 -1.7109
19923TIP3   OH281183   0.031   4.089   3.587 -0.0491  0.5205  0.1744
19923TIP3    H181184  -0.021   4.073   3.509 -0.4524  1.0901  0.3199
19923TIP3    H281185   0.076   4.006   3.604 -1.4297 -0.2072  0.4284
19924TIP3   OH281186   2.666   0.182  14.785 -0.0080 -0.6128  0.0708
19924TIP3    H181187   2.687   0.158  14.695 -1.1305  0.9578 -0.6436
19924TIP3    H281188   2.737   0.239  14.813  0.0796 -0.6979  0.0244
19925TIP3   OH281189   3.993   2.855   0.740 -0.0142 -0.3072  0.2670
19925TIP3    H181190   3.940   2.933   0.754 -0.1547 -0.2489 -0.5259
19925TIP3    H281191   4.040   2.843   0.822  0.4275  0.9259  0.2146
19926TIP3   OH281192   2.761   3.887   4.500 -0.5910  0.5098  0.1980
19926TIP3    H181193   2.791   3.855   4.415  0.2491  0.9536  0.3137
19926TIP3    H281194   2.787   3.979   4.502 -0.2199  0.3988  1.0935
19927TIP3   OH281195   2.502   0.829   3.437 -0.1233 -0.6567  0.4919
19927TIP3    H181196   2.597   0.821   3.434 -0.0160  0.5232 -0.4785
19927TIP3    H281197   2.479   0.867   3.351 -1.3050  0.4132  1.2395
19928TIP3   OH281198   4.255   1.836  11.268 -0.3456  0.1296 -0.0327
19928TIP3    H181199   4.172   1.871  11.234 -0.4580  1.7072  1.7051
19928TIP3    H281200   4.229   1.772  11.333 -0.1693 -0.1869 -0.2696
19929TIP3   OH281201   5.455   5.775  12.477  0.1790 -0.2069  0.7741
19929TIP3    H181202   5.481   5.865  12.495  0.1607  0.3502 -1.7255
19929TIP3    H281203   5.362   5.781  12.455  0.5541 -0.5298 -1.0719
19930TIP3   OH281204   5.630   5.951   3.512  0.6610 -0.0802  0.3948
19930TIP3    H181205   5.557   6.009   3.530 -0.2628 -1.0925 -0.0009
19930TIP3    H281206   5.647   5.962   3.419 -0.3192 -1.3091  0.0439
19931TIP3   OH281207   4.805   3.420  15.424  0.1565 -0.0800  0.0152
19931TIP3    H181208   4.883   3.455  15.381  1.1802 -2.3459 -0.1056
19931TIP3    H281209   4.766   3.360  15.361 -1.1271  0.2343  0.4658
19932TIP3   OH281210   4.829   2.352  16.372  0.3552  0.3947 -0.2976
19932TIP3    H181211   4.840   2.343  16.467  3.7936  1.7947 -0.4137
19932TIP3    H281212   4.753   2.409  16.362 -0.2637 -0.0145  1.5701
19933TIP3   OH281213   6.291   3.390  11.870  0.7902  0.0378 -0.5472
19933TIP3    H181214   6.375   3.437  11.871  0.4434  0.6910  0.6527
19933TIP3    H281215   6.229   3.453  11.834  0.6384 -0.0972 -0.5220
19934TIP3   OH281216   2.488   1.979  13.408 -0.2110  0.4395  0.2692
19934TIP3    H181217   2.465   2.003  13.498 -0.9240  1.1420 -0.0993
19934TIP3    H281218   2.454   1.891  13.397 -1.6276  0.9887  0.1438
19935TIP3   OH281219   3.120   4.805  15.675  0.3218 -0.0593  0.4528
19935TIP3    H181220   3.104   4.887  15.723 -0.6925 -0.2213  0.4111
19935TIP3    H281221   3.215   4.791  15.683  0.2320  0.1014  2.1064
19936TIP3   OH281222   2.091   5.640   1.075 -0.1118  0.0877 -0.5920
19936TIP3    H181223   2.001   5.664   1.096  0.0457 -1.3779  2.2304
19936TIP3    H281224   2.083   5.578   1.002 -1.0712  2.0635 -2.2970
19937TIP3   OH281225   4.813   5.612   1.216  0.0396  0.0868 -0.1379
19937TIP3    H181226   4.867   5.675   1.168 -0.4463 -0.2768 -1.2020
19937TIP3    H281227   4.791   5.545   1.151 -1.9499  0.3769  0.1806
19938TIP3   OH281228   2.561   4.734   0.395  0.0281 -0.4163  0.1865
19938TIP3    H181229   2.555   4.718   0.301 -0.5900  1.3594 -0.1304
19938TIP3    H281230   2.485   4.789   0.414  0.5638 -0.1200  1.5736
19939TIP3   OH281231   1.250   1.403   0.684 -0.6437  0.0902 -0.2724
19939TIP3    H181232   1.314   1.472   0.700  1.2384 -0.6370 -3.7328
19939TIP3    H281233   1.301   1.322   0.685 -1.9535 -0.7785 -0.7911
19940TIP3   OH281234   6.711   5.415   5.831  0.0430 -0.2853 -0.4602
19940TIP3    H181235   6.798   5.397   5.793 -0.3619 -0.2687 -1.4319
19940TIP3    H281236   6.693   5.338   5.885  0.5495 -0.4221 -0.4789
19941TIP3   OH281237   0.514   0.247  14.676  0.4271 -0.4013 -0.2638
19941TIP3    H181238   0.606   0.263  14.696  0.5123 -2.5749  1.4614
19941TIP3    H281239   0.466   0.303  14.737  0.5770  0.3829 -0.8486
19942TIP3   OH281240   3.870   6.534   5.603  0.0560  0.3118  0.1436
19942TIP3    H181241   3.803   6.503   5.664  0.6966  0.4371  0.9301
19942TIP3    H281242   3.952   6.522   5.651  0.5390  0.7410 -0.5717
19943TIP3   OH281243   4.728   4.349  17.225 -0.4429  0.2838  0.3630
19943TIP3    H181244   4.729   4.254  17.236  0.7157  0.3444  1.0243
19943TIP3    H281245   4.733   4.363  17.131  0.8961 -0.3391  0.3171
19944TIP3   OH281246   4.908   0.242  14.639 -0.3115 -0.0945 -0.2891
19944TIP3    H181247   4.990   0.217  14.683  0.0929  1.0602 -0.3474
19944TIP3    H281248   4.926   0.228  14.546  0.2988  1.4009 -0.4153
19945TIP3   OH281249   0.689   3.225   0.237 -0.7240  0.2541  0.2114
19945TIP3    H181250   0.628   3.298   0.229  0.7328  1.3800 -1.2742
19945TIP3    H281251   0.773   3.266   0.257 -0.0999 -1.1332  0.5477
19946TIP3   OH281252   4.847   6.629   2.984  0.0365  0.3897  0.1638
19946TIP3    H181253   4.768   6.610   3.035 -1.0579  3.2920 -0.2545
19946TIP3    H281254   4.909   6.666   3.047  0.7394 -0.9879  0.3122
19947TIP3   OH281255   3.120   3.987   1.264  0.5279 -0.6034 -0.3389
19947TIP3    H181256   3.096   4.076   1.291 -0.6382 -0.7051 -0.9798
19947TIP3    H281257   3.215   3.990   1.255  0.6498  0.2011  0.9561
19948TIP3   OH281258   4.858   3.495  14.542 -0.2063 -0.2274  0.4657
19948TIP3    H181259   4.818   3.578  14.568 -0.5743 -0.5170  0.8396
19948TIP3    H281260   4.876   3.450  14.624 -0.5915 -0.7918  0.2462
19949TIP3   OH281261   0.128   4.722  15.061  0.2123 -0.4698  0.0406
19949TIP3    H181262   0.169   4.757  14.982  0.0771 -1.1808 -0.3562
19949TIP3    H281263   0.136   4.792  15.125  1.9349 -0.5340 -0.0621
19950CLA    CLA81264   5.751   6.577   0.483 -0.0036 -0.0641  0.1282
19951LIG      S81265   3.464   2.887  16.327  0.0904  0.0489  0.4266
19951LIG     O181266   3.601   3.327  16.051  0.4439  0.2919 -0.3107
19951LIG     O281267   3.439   3.175  16.247 -0.3736  0.2969  0.9884
19951LIG     O381268   3.045   3.142  16.666  0.6098 -0.3294 -0.4615
19951LIG     O481269   2.961   2.986  16.455  0.5894  0.2520  0.4912
19951LIG      N81270   3.449   3.667  16.410  0.2648 -0.1895 -0.0800
19951LIG     C181271   3.561   3.438  16.258  0.1504 -0.1782  0.4581
19951LIG     C281272   3.575   3.607  16.461 -0.6048  0.3377  1.0613
19951LIG     C381273   3.456   3.674  16.257 -0.1322 -0.3951  0.4213
19951LIG     C481274   3.614   3.468  16.395  0.4959  0.2791 -0.0944
19951LIG     C581275   3.548   3.572  16.189 -0.0992 -1.4334 -0.1520
19951LIG     C681276   3.318   3.605  16.444  0.2783  0.6263  0.0329
19951LIG     C781277   3.648   3.343  16.180 -0.0117 -0.2113 -0.2265
19951LIG     C881278   3.455   3.812  16.444 -0.2853  0.9381  0.1695
19951LIG     C981279   3.669   3.211  16.251  0.0873  0.1912 -0.1653
19951LIG    C1081280   3.302   3.601  16.592  0.7159 -0.4777 -0.3324
19951LIG    C1181281   3.550   3.145  16.288 -1.3032 -0.3347 -0.2106
19951LIG    C1281282   3.568   3.029  16.385 -0.1333 -0.0991 -0.0522
19951LIG    C1381283   3.351   3.483  16.661 -0.5546 -0.0505 -0.3170
19951LIG    C1481284   3.229   3.701  16.658 -0.6303  0.0892 -0.6118
19951LIG    C1581285   3.525   3.036  16.530  0.0147 -0.2751  0.0597
19951LIG    C1681286   3.372   3.029  16.537  0.8342  0.5373  0.4280
19951LIG    C1781287   3.315   3.469  16.793  0.2287 -0.0620 -0.0028
19951LIG    C1881288   3.225   3.696  16.802  0.4062  0.5037  0.0004
19951LIG    C1981289   3.330   2.943  16.428  0.2523 -0.4539  0.4712
19951LIG    C2081290   3.264   3.572  16.862 -0.7049 -0.4457 -0.3889
19951LIG    C2181291   3.281   3.091  16.619 -0.4393 -0.0655 -0.3395
19951LIG    C2281292   3.196   2.925  16.402 -0.1439  0.1970 -0.3545
19951LIG    C2381293   3.146   3.078  16.591  0.2260  0.5646  0.0890
19951LIG    C2481294   3.103   3.000  16.476  0.1471 -0.4547  0.7507
19951LIG    C2581295   3.081   3.232  16.775 -0.0482  0.5082 -0.5201
19951LIG    C2681296   2.918   2.878  16.370 -0.3786  0.2416 -0.2981
19951LIG     H181297   3.455   3.404  16.261 -0.2742  1.1263  0.9372
19951LIG     H281298   3.572   3.608  16.569  3.2535  1.4850  1.2856
19951LIG     H381299   3.656   3.673  16.436 -0.6293 -0.7745 -2.6007
19951LIG     H481300   3.504   3.767  16.231 -1.1079 -0.5081 -2.1507
19951LIG     H581301   3.360   3.670  16.207  0.4315 -0.2179 -0.7268
19951LIG     H681302   3.725   3.468  16.385  0.4001 -1.5058 -1.6084
19951LIG     H781303   3.600   3.386  16.469  3.6041  0.4181  0.8138
19951LIG     H881304   3.496   3.567  16.091 -1.2773  3.4926 -0.0715
19951LIG     H981305   3.649   3.619  16.184  0.0151 -1.5853  0.6379
19951LIG    H1081306   3.308   3.507  16.402 -0.1827  0.8084 -0.2968
19951LIG    H1181307   3.233   3.656  16.399 -0.1537 -1.5141 -1.7239
19951LIG    H1281308   3.748   3.389  16.173  2.0388 -4.1387  0.2692
19951LIG    H1381309   3.549   3.861  16.427 -0.3986  1.2699  0.4952
19951LIG    H1481310   3.427   3.829  16.547 -0.5247 -0.8149  0.4243
19951LIG    H1581311   3.378   3.870  16.395 -1.8496 -0.7238  0.5628
19951LIG    H1681312   3.729   3.238  16.341 -2.5994  0.9011  1.5509
19951LIG    H1781313   3.734   3.146  16.189 -3.2609 -1.4586 -2.2041
19951LIG    H1881314   3.637   3.397  15.996  0.1669 -0.0696 -0.9615
19951LIG    H1981315   3.672   2.990  16.384 -0.9111 -2.3547 -0.7494
19951LIG    H2081316   3.398   3.411  16.596  0.5898 -0.5871  1.0504
19951LIG    H2181317   3.194   3.789  16.607  0.6956  0.2291 -1.3364
19951LIG    H2281318   3.558   3.126  16.584 -0.2349  0.9355 -1.7183
19951LIG    H2381319   3.579   2.958  16.585 -0.7201 -1.2791 -0.6130
19951LIG    H2481320   3.341   3.383  16.852 -0.6231 -0.9744 -0.9234
19951LIG    H2581321   3.183   3.772  16.867  0.5324  0.6086 -0.0395
19951LIG    H2681322   3.240   3.565  16.967 -0.6384  1.8892 -0.1559
19951LIG    H2781323   3.315   3.152  16.701 -0.2607  1.9590 -1.8482
19951LIG    H2881324   3.164   2.863  16.319 -1.1940 -1.0222  0.8988
19951LIG    H2981325   3.141   3.205  16.864 -2.1298 -1.7173  0.3361
19951LIG    H3081326   2.985   3.258  16.825 -0.6253 -2.1661 -0.0790
19951LIG    H3181327   3.118   3.325  16.726  0.7489 -0.0605 -1.0225
19951LIG    H3281328   2.985   2.789  16.377  0.4472  0.7939 -1.0119
19951LIG    H3381329   2.926   2.904  16.262  1.2255  0.4724 -0.1442
19951LIG    H3481330   2.812   2.856  16.394 -0.2960  0.6696  0.4716
   6.75491   6.75491  17.37515
